INSANE! Membrane UpperLeaflet>loPI=1 LowerLeaflet>loPI=1
49675
    1loPI    C1    1   0.250  17.741  11.810 -0.0955 -0.0136  0.1208
    1loPI    C2    2   0.476  17.471  12.000  0.0487 -0.0376 -0.0818
    1loPI    C3    3   0.108  17.553  12.134  0.0935 -0.1597  0.1207
    1loPI   PO4    4   0.345  17.715  11.557 -0.1592 -0.4480  0.2377
    1loPI   GL1    5   0.159  17.539  11.202 -0.2778 -0.0275  0.1317
    1loPI   GL2    6   0.188  17.843  10.963 -0.1148  0.1185  0.1898
    1loPI   C1A    7   0.328  17.436  10.743 -0.1292 -0.0281  0.0902
    1loPI   C2A    8   0.308  17.517  10.271 -0.0687  0.1502  0.2200
    1loPI   C3A    9   0.259  17.667   9.825 -0.0491 -0.3062 -0.0383
    1loPI   C4A   10   0.399  17.606   9.428  0.0445  0.1626 -0.0902
    1loPI   C5A   11   0.337  17.706   8.955  0.2636 -0.0101  0.2002
    1loPI   C6A   12   0.073  17.939   8.962  0.0025  0.0687  0.1928
    1loPI   C1B   13  -0.046  17.845  10.690 -0.0111  0.0416  0.1521
    1loPI   C2B   14  -0.095  17.889  10.297  0.0224  0.0000 -0.0766
    1loPI   C3B   15  -0.096  17.951   9.876  0.0833  0.3376  0.0672
    1loPI   C4B   16  -0.086  18.007   9.446  0.2312 -0.0947 -0.0588
    2loPI    C1   17   8.520   3.228  11.390 -0.0094 -0.1136 -0.1255
    2loPI    C2   18   8.835   3.067  11.577 -0.0710 -0.0894  0.0001
    2loPI    C3   19   8.539   3.232  11.790 -0.1789 -0.1313 -0.1165
    2loPI   PO4   20   8.489   3.170  11.181 -0.2410 -0.0499 -0.1967
    2loPI   GL1   21   8.352   3.121  10.750  0.0543 -0.2124 -0.0122
    2loPI   GL2   22   8.413   3.321  10.600 -0.1379  0.0337  0.0795
    2loPI   C1A   23   8.313   2.758  10.371 -0.2854 -0.1524 -0.1404
    2loPI   C2A   24   8.282   2.790   9.962  0.3162  0.0214  0.1128
    2loPI   C3A   25   8.312   2.834   9.547  0.0600 -0.1275  0.2111
    2loPI   C4A   26   8.340   2.862   9.104 -0.0189  0.0574 -0.1776
    2loPI   C5A   27   8.271   3.032   8.721 -0.1917 -0.3835 -0.1245
    2loPI   C6A   28   8.511   3.138   8.260 -0.2742  0.0078 -0.0276
    2loPI   C1B   29   8.397   3.236  10.126 -0.1123  0.0119  0.1371
    2loPI   C2B   30   8.466   3.261   9.714  0.2485 -0.2103  0.1738
    2loPI   C3B   31   8.443   3.350   9.288 -0.0328  0.1818  0.1530
    2loPI   C4B   32   8.550   3.459   8.916 -0.0077 -0.1038  0.0216
    3loPI    C1   33  17.329  15.132  11.633 -0.0536 -0.1590  0.1462
    3loPI    C2   34  17.208  15.466  11.818 -0.2485 -0.0767 -0.1250
    3loPI    C3   35  17.177  15.113  12.003 -0.0143  0.0560  0.1752
    3loPI   PO4   36  17.455  15.242  11.411  0.1306  0.1208 -0.0609
    3loPI   GL1   37  17.511  15.066  11.056 -0.1902 -0.0995  0.1051
    3loPI   GL2   38  17.718  14.762  10.946  0.1521 -0.1411 -0.0087
    3loPI   C1A   39  17.442  15.107  10.592  0.0133 -0.0900  0.0888
    3loPI   C2A   40  17.522  15.082  10.161  0.0250 -0.0858  0.0901
    3loPI   C3A   41  17.551  15.190   9.711 -0.1311  0.1115  0.0525
    3loPI   C4A   42  17.544  15.144   9.317  0.3438  0.1836 -0.1411
    3loPI   C5A   43  17.674  15.151   8.999  0.5223  0.1519 -0.0296
    3loPI   C6A   44  17.955  14.824   8.834 -0.1382 -0.0142  0.1846
    3loPI   C1B   45  17.857  14.702  10.492 -0.0731 -0.0733 -0.0837
    3loPI   C2B   46  17.868  14.778  10.068  0.1143  0.0188  0.2243
    3loPI   C3B   47  17.900  14.677   9.744  0.1727  0.1513 -0.0298
    3loPI   C4B   48  17.880  14.763   9.358 -0.2110 -0.0817  0.3238
    4loPI    C1   49  12.455  12.753  11.818 -0.1331  0.1007 -0.1827
    4loPI    C2   50  12.182  12.491  11.948 -0.2831  0.3075 -0.0747
    4loPI    C3   51  12.461  12.629  12.199 -0.0256  0.0356 -0.2051
    4loPI   PO4   52  12.554  12.562  11.501 -0.1587 -0.0705 -0.0621
    4loPI   GL1   53  12.400  12.534  11.139  0.1496 -0.0449 -0.5879
    4loPI   GL2   54  12.421  12.816  10.983 -0.0716 -0.1377  0.1082
    4loPI   C1A   55  12.382  12.423  10.729 -0.0194  0.1884  0.1845
    4loPI   C2A   56  12.334  12.521  10.236 -0.3127  0.2411 -0.0852
    4loPI   C3A   57  12.401  12.560   9.804 -0.0488 -0.1509  0.0898
    4loPI   C4A   58  12.418  12.509   9.470  0.0172 -0.2481 -0.0847
    4loPI   C5A   59  12.416  12.483   9.033  0.0999 -0.2135 -0.3763
    4loPI   C6A   60  12.453  12.670   8.676  0.0249  0.0754  0.0252
    4loPI   C1B   61  12.542  12.961  10.552 -0.1435 -0.2852 -0.1443
    4loPI   C2B   62  12.480  13.036  10.145  0.1285  0.1923  0.3575
    4loPI   C3B   63  12.538  13.035   9.635 -0.1592  0.1221 -0.0403
    4loPI   C4B   64  12.555  13.004   9.168  0.0476  0.1036  0.0077
    5loPI    C1   65  17.442   9.856  11.332  0.0203 -0.0669 -0.1806
    5loPI    C2   66  17.587   9.835  11.704  0.0296 -0.1565 -0.1891
    5loPI    C3   67  17.836   9.887  11.395 -0.0064  0.2539 -0.1544
    5loPI   PO4   68  17.331   9.713  11.270 -0.0369 -0.0081  0.1124
    5loPI   GL1   69  17.289   9.601  10.909  0.3095 -0.0969 -0.2157
    5loPI   GL2   70  17.673   9.714  10.925 -0.0491  0.2990  0.0811
    5loPI   C1A   71  17.145   9.478  10.588  0.1938 -0.5408  0.0503
    5loPI   C2A   72  17.091   9.403  10.160  0.0935  0.0451 -0.0200
    5loPI   C3A   73  17.201   9.393   9.878  0.2303  0.0001 -0.3613
    5loPI   C4A   74  17.134   9.364   9.483 -0.1771  0.0870  0.1301
    5loPI   C5A   75  17.175   9.325   9.034  0.0548  0.1117  0.1351
    5loPI   C6A   76  17.159   9.327   8.572 -0.2250 -0.0981  0.1897
    5loPI   C1B   77  17.641   9.590  10.491 -0.2157  0.0208 -0.4606
    5loPI   C2B   78  17.649   9.582  10.018 -0.2304  0.3071 -0.1465
    5loPI   C3B   79  17.651   9.572   9.615 -0.0092  0.0395  0.2021
    5loPI   C4B   80  17.592   9.555   9.252 -0.0376 -0.2544 -0.4021
    6loPI    C1   81  12.279   4.849  11.293 -0.1597 -0.0537  0.0141
    6loPI    C2   82  12.068   5.068  11.553 -0.0962 -0.0546  0.0667
    6loPI    C3   83  12.366   4.836  11.683  0.1080  0.1457 -0.0362
    6loPI   PO4   84  12.358   5.037  11.059 -0.2538  0.0288 -0.1888
    6loPI   GL1   85  12.764   5.248  10.762 -0.1058 -0.0605 -0.0394
    6loPI   GL2   86  12.599   4.969  10.581  0.0902 -0.2983  0.0153
    6loPI   C1A   87  12.966   5.230  10.333  0.0819 -0.1618  0.0864
    6loPI   C2A   88  12.991   5.248   9.896  0.0737 -0.2566 -0.0710
    6loPI   C3A   89  12.909   5.161   9.526 -0.1423 -0.3182 -0.0902
    6loPI   C4A   90  12.556   5.213   9.423  0.1396  0.1237  0.2404
    6loPI   C5A   91  12.464   5.205   8.932 -0.0326  0.2059 -0.0212
    6loPI   C6A   92  11.927   5.018   8.827  0.0889 -0.0192 -0.1801
    6loPI   C1B   93  12.784   4.752  10.312 -0.2921  0.1649  0.0178
    6loPI   C2B   94  12.771   4.718   9.885  0.1825 -0.0989 -0.0861
    6loPI   C3B   95  12.849   4.629   9.376  0.2425  0.0480  0.2327
    6loPI   C4B   96  12.811   4.738   9.005  0.3067 -0.0118 -0.2499
    7loPI    C1   97   3.966  13.277  11.599  0.0346 -0.1993  0.1448
    7loPI    C2   98   3.665  13.088  11.782 -0.2053  0.1050  0.0722
    7loPI    C3   99   3.917  13.316  11.994 -0.0154 -0.1586  0.1348
    7loPI   PO4  100   4.062  13.132  11.382  0.0290  0.2979 -0.1749
    7loPI   GL1  101   3.944  13.269  10.993 -0.1940  0.0381 -0.0143
    7loPI   GL2  102   3.876  12.981  10.776  0.0135  0.2702  0.3347
    7loPI   C1A  103   3.989  13.543  10.697 -0.1940  0.0069 -0.1191
    7loPI   C2A  104   3.956  13.620  10.302 -0.0295  0.3121 -0.2080
    7loPI   C3A  105   3.943  13.630   9.878  0.2060  0.2520 -0.4358
    7loPI   C4A  106   3.963  13.653   9.435 -0.3820 -0.2406  0.0651
    7loPI   C5A  107   4.108  13.752   8.971  0.0005 -0.1775 -0.1635
    7loPI   C6A  108   4.173  13.438   8.690  0.1996 -0.0805  0.0594
    7loPI   C1B  109   3.990  13.105  10.339  0.1306 -0.2854 -0.0253
    7loPI   C2B  110   3.918  13.081   9.951 -0.0037  0.1793 -0.1772
    7loPI   C3B  111   3.809  13.178   9.469 -0.0585  0.2264  0.2183
    7loPI   C4B  112   3.912  13.110   8.974 -0.3363  0.0975 -0.3055
    8loPI    C1  113  13.019   0.223  12.013  0.1175  0.0074  0.1716
    8loPI    C2  114  12.926  -0.018  12.319 -0.2353 -0.0474  0.0259
    8loPI    C3  115  12.842   0.373  12.340 -0.0026 -0.0005  0.1108
    8loPI   PO4  116  12.985   0.179  11.700  0.0448  0.1789  0.0633
    8loPI   GL1  117  13.001   0.123  11.215 -0.0796 -0.2093 -0.1970
    8loPI   GL2  118  13.293   0.178  11.123  0.2156 -0.3692  0.0652
    8loPI   C1A  119  13.044   0.061  10.639 -0.1425  0.0313  0.2680
    8loPI   C2A  120  13.192   0.145  10.264 -0.1690  0.1153 -0.3417
    8loPI   C3A  121  13.196   0.215   9.794 -0.0636  0.3959 -0.0751
    8loPI   C4A  122  13.134   0.209   9.347  0.1664 -0.0019  0.0415
    8loPI   C5A  123  13.220   0.470   8.972 -0.3146  0.0529 -0.0819
    8loPI   C6A  124  13.325   0.476   8.489  0.0054 -0.3018  0.0406
    8loPI   C1B  125  13.492   0.260  10.767  0.2567 -0.3327 -0.2456
    8loPI   C2B  126  13.718   0.234  10.369 -0.0803 -0.2358  0.1666
    8loPI   C3B  127  13.659   0.292   9.910 -0.0050  0.0608 -0.2531
    8loPI   C4B  128  13.685   0.339   9.463 -0.0164  0.0734  0.1600
    9loPI    C1  129   9.769  17.710  11.409 -0.0642 -0.1053  0.1446
    9loPI    C2  130  10.112  17.686  11.613 -0.0351 -0.1478  0.0907
    9loPI    C3  131   9.781  17.514  11.757 -0.0732  0.0343  0.2245
    9loPI   PO4  132   9.790  17.772  11.099  0.1580  0.2647 -0.0260
    9loPI   GL1  133   9.730  17.782  10.659  0.0768  0.2480 -0.1516
    9loPI   GL2  134   9.402  17.630  10.564 -0.3384 -0.0170 -0.1711
    9loPI   C1A  135   9.927  17.815  10.207  0.1126  0.0882 -0.2774
    9loPI   C2A  136   9.927  17.842   9.752 -0.2026  0.0722 -0.1235
    9loPI   C3A  137   9.959  17.884   9.276  0.1433 -0.0771 -0.1153
    9loPI   C4A  138   9.981  17.929   8.852  0.0812  0.0245 -0.1999
    9loPI   C5A  139   9.978  17.649   8.439  0.0916 -0.1447 -0.0264
    9loPI   C6A  140  10.295  17.494   8.115  0.1051  0.1481 -0.1723
    9loPI   C1B  141   9.386  17.643  10.148  0.2568  0.1120  0.0109
    9loPI   C2B  142   9.444  17.732   9.665  0.0240 -0.2763  0.1416
    9loPI   C3B  143   9.483  17.728   9.209 -0.0622 -0.0434 -0.1905
    9loPI   C4B  144   9.414  17.655   8.775  0.2518 -0.1625 -0.2115
   10loPI    C1  145   0.933   9.637  11.586  0.1979  0.1254 -0.0609
   10loPI    C2  146   0.771   9.999  11.635 -0.1280 -0.0329  0.0626
   10loPI    C3  147   0.816   9.756  11.950  0.0559 -0.1144 -0.0255
   10loPI   PO4  148   0.994   9.672  11.293  0.1520  0.1125 -0.2961
   10loPI   GL1  149   0.925   9.758  10.872 -0.1120 -0.1962 -0.1321
   10loPI   GL2  150   1.245   9.869  10.689  0.1167  0.3949 -0.1504
   10loPI   C1A  151   0.795   9.768  10.444 -0.3085 -0.1467 -0.3112
   10loPI   C2A  152   0.845   9.852  10.024  0.2632 -0.0092  0.0038
   10loPI   C3A  153   0.813   9.840   9.571 -0.2259 -0.2896 -0.1747
   10loPI   C4A  154   0.854   9.921   9.129 -0.1551  0.1044 -0.0838
   10loPI   C5A  155   0.892   9.778   8.633  0.2127  0.0926 -0.2074
   10loPI   C6A  156   1.081   9.864   8.238 -0.2892 -0.1621  0.0135
   10loPI   C1B  157   1.268   9.948  10.279  0.1832  0.0975  0.2411
   10loPI   C2B  158   1.294   9.983   9.798  0.2558 -0.0141 -0.2573
   10loPI   C3B  159   1.307  10.027   9.430  0.1599 -0.0957 -0.1097
   10loPI   C4B  160   1.335  10.007   9.036  0.3018 -0.0398 -0.0318
   11loPI    C1  161   7.806  10.985  11.300  0.0558  0.3198 -0.2517
   11loPI    C2  162   8.114  11.136  11.506  0.1727 -0.0942 -0.1132
   11loPI    C3  163   7.982  10.766  11.584 -0.4578  0.1266 -0.0704
   11loPI   PO4  164   7.834  11.015  11.088  0.0064 -0.1752  0.0827
   11loPI   GL1  165   7.938  11.046  10.742 -0.3743 -0.0599  0.0905
   11loPI   GL2  166   7.670  10.982  10.644  0.3479  0.0226 -0.0559
   11loPI   C1A  167   8.099  11.105  10.405 -0.1733  0.3509 -0.0432
   11loPI   C2A  168   8.032  11.178   9.970 -0.1233  0.1104  0.0124
   11loPI   C3A  169   7.976  11.110   9.597 -0.0173  0.2723 -0.1279
   11loPI   C4A  170   7.894  11.166   9.162 -0.0161  0.0886  0.2403
   11loPI   C5A  171   8.025  11.180   8.713  0.1428  0.3242  0.1155
   11loPI   C6A  172   8.033  11.512   8.395 -0.2363 -0.1418  0.0881
   11loPI   C1B  173   7.530  10.827  10.199 -0.1301 -0.2095 -0.1408
   11loPI   C2B  174   7.557  10.951   9.847  0.0654  0.1487 -0.0979
   11loPI   C3B  175   7.498  10.912   9.437 -0.2578 -0.0635  0.0712
   11loPI   C4B  176   7.367  11.049   9.094  0.0432 -0.0104  0.5840
   12loPI    C1  177   6.362   2.239  11.469  0.3860  0.0804 -0.0666
   12loPI    C2  178   6.136   2.556  11.562  0.3051  0.0537 -0.1705
   12loPI    C3  179   6.327   2.355  11.850  0.1087  0.0110 -0.0684
   12loPI   PO4  180   6.266   2.139  11.193  0.0656  0.0729  0.1668
   12loPI   GL1  181   6.378   2.288  10.807  0.0611 -0.0475  0.0178
   12loPI   GL2  182   6.413   2.633  10.719 -0.1362 -0.1707  0.0635
   12loPI   C1A  183   6.383   2.197  10.420  0.0012 -0.2063 -0.0894
   12loPI   C2A  184   6.315   2.252   9.984  0.0077 -0.0077 -0.0927
   12loPI   C3A  185   6.230   2.223   9.541  0.0172  0.0181 -0.2544
   12loPI   C4A  186   6.359   2.316   9.196 -0.0612  0.1312 -0.0080
   12loPI   C5A  187   6.261   2.268   8.780 -0.0924 -0.0131  0.3173
   12loPI   C6A  188   6.301   2.525   8.438 -0.1950  0.2152  0.5058
   12loPI   C1B  189   6.419   2.663  10.326 -0.0445 -0.2748 -0.2021
   12loPI   C2B  190   6.516   2.704   9.900 -0.0178  0.2309  0.0991
   12loPI   C3B  191   6.354   2.753   9.482 -0.0298  0.0467  0.2618
   12loPI   C4B  192   6.411   2.858   9.029 -0.4089  0.0322 -0.1854
   13loPI    C1  193  12.317   4.334  11.349 -0.1966 -0.0253  0.1945
   13loPI    C2  194  12.391   4.024  11.590  0.2132 -0.0512  0.0420
   13loPI    C3  195  12.598   4.364  11.633  0.0134  0.0797 -0.0211
   13loPI   PO4  196  12.331   4.201  11.119 -0.1562  0.2396  0.4345
   13loPI   GL1  197  12.116   3.996  10.780 -0.0742 -0.3781  0.4107
   13loPI   GL2  198  12.205   4.137  10.579  0.0134 -0.4816  0.0513
   13loPI   C1A  199  12.059   3.654  10.445 -0.1998  0.1595 -0.1002
   13loPI   C2A  200  12.160   3.587  10.078  0.0928 -0.1270  0.0505
   13loPI   C3A  201  12.179   3.600   9.565  0.1772 -0.0336  0.1784
   13loPI   C4A  202  12.123   3.679   9.115 -0.0810 -0.1915 -0.2740
   13loPI   C5A  203  12.145   3.873   8.697 -0.1420 -0.1208  0.0790
   13loPI   C6A  204  12.188   3.831   8.241  0.1254  0.0510  0.1223
   13loPI   C1B  205  12.207   4.108  10.201  0.1185  0.0107 -0.2966
   13loPI   C2B  206  12.219   4.052   9.773  0.1755  0.1611  0.0173
   13loPI   C3B  207  12.349   4.080   9.326  0.1665 -0.1309  0.1261
   13loPI   C4B  208  12.013   4.224   9.075  0.3310  0.4009  0.0919
   14loPI    C1  209   1.855  12.264  11.602  0.2888 -0.0980  0.0514
   14loPI    C2  210   1.575  12.048  11.788 -0.0669  0.2117 -0.1120
   14loPI    C3  211   1.931  12.105  11.961 -0.2036  0.0542  0.2308
   14loPI   PO4  212   1.946  12.180  11.395  0.1648  0.1507  0.1822
   14loPI   GL1  213   1.855  12.243  10.905 -0.1774  0.0899  0.1078
   14loPI   GL2  214   1.911  12.490  10.684  0.1147  0.0218  0.1088
   14loPI   C1A  215   1.865  11.960  10.507  0.1795 -0.0349 -0.1304
   14loPI   C2A  216   1.742  11.881  10.052  0.0253 -0.0072  0.0012
   14loPI   C3A  217   1.804  12.048   9.608 -0.0900  0.4328 -0.0268
   14loPI   C4A  218   1.737  11.962   9.182  0.1959 -0.0300 -0.1553
   14loPI   C5A  219   1.822  12.047   8.784 -0.1173  0.2288  0.1864
   14loPI   C6A  220   2.013  11.888   8.336 -0.0688  0.2691 -0.0384
   14loPI   C1B  221   1.885  12.448  10.237 -0.0808 -0.1432  0.2101
   14loPI   C2B  222   1.956  12.506   9.752  0.0143  0.0964 -0.3969
   14loPI   C3B  223   1.839  12.445   9.293  0.2069  0.4236 -0.1195
   14loPI   C4B  224   1.922  12.579   8.922 -0.0755 -0.3124 -0.1815
   15loPI    C1  225   7.620   7.546  11.235  0.0432  0.2054 -0.2060
   15loPI    C2  226   7.425   7.871  11.364  0.2926  0.2627  0.0358
   15loPI    C3  227   7.684   7.684  11.605  0.1647 -0.1074 -0.1070
   15loPI   PO4  228   7.679   7.547  10.998  0.0932 -0.0698  0.0591
   15loPI   GL1  229   7.342   7.616  10.679  0.3530  0.0451  0.1333
   15loPI   GL2  230   7.224   7.905  10.870  0.1099 -0.0084  0.0498
   15loPI   C1A  231   7.158   7.556  10.338 -0.0003 -0.1834  0.2582
   15loPI   C2A  232   7.194   7.595   9.906  0.2023  0.0875  0.0441
   15loPI   C3A  233   7.207   7.644   9.483  0.0349  0.0326 -0.4413
   15loPI   C4A  234   7.235   7.641   9.070 -0.3153 -0.1372  0.0181
   15loPI   C5A  235   7.169   7.583   8.565 -0.1325  0.1082 -0.6199
   15loPI   C6A  236   7.264   7.525   8.144 -0.2192 -0.0022 -0.2441
   15loPI   C1B  237   7.340   8.056  10.466  0.0702  0.0116  0.0555
   15loPI   C2B  238   7.333   8.081   9.996 -0.1777 -0.1887 -0.0072
   15loPI   C3B  239   7.264   8.091   9.581  0.4258 -0.1556 -0.2142
   15loPI   C4B  240   7.345   8.146   9.097  0.0462  0.0967 -0.1597
   16loPI    C1  241   6.171   9.102  11.660 -0.1625  0.1228 -0.0027
   16loPI    C2  242   5.823   9.298  11.635 -0.0392  0.3388 -0.0505
   16loPI    C3  243   6.102   9.416  11.897 -0.0484  0.0901  0.0750
   16loPI   PO4  244   6.211   9.015  11.371 -0.1730  0.0354  0.1610
   16loPI   GL1  245   6.231   9.036  10.875  0.0558 -0.2410  0.0068
   16loPI   GL2  246   6.492   8.751  10.812  0.2718  0.3883  0.1585
   16loPI   C1A  247   6.249   9.019  10.490  0.3078 -0.2305 -0.1962
   16loPI   C2A  248   6.202   9.104  10.058  0.4679 -0.0661 -0.1178
   16loPI   C3A  249   6.156   9.190   9.553 -0.0946  0.0301  0.1270
   16loPI   C4A  250   6.171   9.156   9.160 -0.1444  0.1111 -0.0528
   16loPI   C5A  251   6.222   9.219   8.777 -0.3680 -0.1087 -0.2838
   16loPI   C6A  252   6.572   9.216   8.492 -0.1622 -0.0701 -0.0860
   16loPI   C1B  253   6.617   8.742  10.351  0.0298  0.0257  0.0549
   16loPI   C2B  254   6.590   8.782   9.858  0.2405  0.0285  0.0168
   16loPI   C3B  255   6.534   8.772   9.436  0.2635  0.0955  0.2054
   16loPI   C4B  256   6.538   8.829   8.933 -0.0599  0.1440 -0.0754
   17loPI    C1  257  10.266  11.353  11.266 -0.2185  0.0756 -0.1366
   17loPI    C2  258  10.112  11.061  11.040 -0.2015 -0.1577  0.1482
   17loPI    C3  259  10.260  10.977  11.402  0.1809  0.1378  0.0666
   17loPI   PO4  260  10.375  11.505  11.116  0.2612  0.0809  0.1161
   17loPI   GL1  261  10.396  11.371  10.720  0.1299 -0.0083 -0.1634
   17loPI   GL2  262  10.074  11.516  10.681 -0.2253  0.1307  0.2777
   17loPI   C1A  263  10.347  11.320  10.322  0.0560  0.0830  0.0922
   17loPI   C2A  264  10.408  11.433  10.033  0.2025 -0.1082  0.0620
   17loPI   C3A  265  10.356  11.386   9.625  0.0628 -0.0498  0.0271
   17loPI   C4A  266  10.337  11.340   9.132 -0.1388  0.0724 -0.0199
   17loPI   C5A  267  10.596  11.425   8.846  0.0672  0.1735  0.1876
   17loPI   C6A  268  10.490  11.711   8.431 -0.1694  0.1474 -0.2646
   17loPI   C1B  269   9.989  11.670  10.234 -0.1015 -0.1355  0.1750
   17loPI   C2B  270   9.977  11.770   9.722 -0.1302  0.0514 -0.0414
   17loPI   C3B  271   9.906  11.805   9.273 -0.0262  0.1094 -0.0278
   17loPI   C4B  272  10.070  11.799   8.813 -0.0136 -0.1827  0.0306
   18loPI    C1  273   4.659   9.772  11.532  0.2341 -0.0384  0.1851
   18loPI    C2  274   4.655   9.614  11.900  0.0980  0.0893  0.2398
   18loPI    C3  275   4.365   9.865  11.787  0.0128 -0.1262 -0.0338
   18loPI   PO4  276   4.610   9.681  11.280 -0.0797 -0.2107  0.1056
   18loPI   GL1  277   4.659   9.719  10.821  0.2350 -0.0710  0.2025
   18loPI   GL2  278   4.490   9.950  10.771  0.1041 -0.1681 -0.1360
   18loPI   C1A  279   4.502   9.502  10.407 -0.1359 -0.1316 -0.1193
   18loPI   C2A  280   4.483   9.587  10.017 -0.0365  0.1183  0.0435
   18loPI   C3A  281   4.464   9.595   9.595 -0.0645  0.1231  0.2836
   18loPI   C4A  282   4.374   9.604   9.194  0.1422 -0.3656 -0.0328
   18loPI   C5A  283   4.216   9.624   8.814  0.0021  0.0887  0.0832
   18loPI   C6A  284   3.955   9.370   8.526 -0.3136 -0.0734 -0.1026
   18loPI   C1B  285   4.530  10.053  10.337  0.0235 -0.1867  0.0356
   18loPI   C2B  286   4.540  10.078   9.832  0.2366 -0.3690  0.0706
   18loPI   C3B  287   4.558  10.102   9.341  0.2566  0.0664 -0.0532
   18loPI   C4B  288   4.635  10.023   8.852 -0.0232 -0.0716  0.2773
   19loPI    C1  289   4.523  13.421  11.677 -0.0989  0.0752  0.1642
   19loPI    C2  290   4.414  13.114  11.909 -0.0141 -0.0933 -0.0154
   19loPI    C3  291   4.732  13.335  12.008  0.2289 -0.3771 -0.1470
   19loPI   PO4  292   4.491  13.374  11.409 -0.3559 -0.0724  0.2177
   19loPI   GL1  293   4.450  13.225  11.064  0.2262 -0.0362 -0.1405
   19loPI   GL2  294   4.379  12.961  10.987 -0.2525 -0.2790  0.0352
   19loPI   C1A  295   4.442  13.279  10.581 -0.0521  0.0705  0.3758
   19loPI   C2A  296   4.394  13.324  10.109  0.3086  0.1908  0.0382
   19loPI   C3A  297   4.291  13.228   9.676  0.0726  0.0658 -0.0955
   19loPI   C4A  298   4.284  13.290   9.281  0.2235  0.0084 -0.0111
   19loPI   C5A  299   4.580  13.340   8.956 -0.3660 -0.0680  0.0500
   19loPI   C6A  300   4.942  13.326   8.696 -0.2524  0.0132 -0.0335
   19loPI   C1B  301   4.350  12.765  10.651 -0.0079 -0.0817 -0.1047
   19loPI   C2B  302   4.381  12.825  10.280 -0.1633 -0.0006 -0.0511
   19loPI   C3B  303   4.305  12.658   9.859 -0.0862  0.1407 -0.0840
   19loPI   C4B  304   4.249  12.753   9.408 -0.0409 -0.4276  0.3340
   20loPI    C1  305   6.827  15.833  11.714 -0.0947  0.0915  0.2806
   20loPI    C2  306   6.906  15.586  12.019  0.1061  0.0013  0.1581
   20loPI    C3  307   6.864  15.979  12.085 -0.1149 -0.0502  0.3389
   20loPI   PO4  308   6.768  15.683  11.534  0.0450  0.2226  0.0917
   20loPI   GL1  309   6.717  15.541  11.134  0.0409 -0.2258  0.0315
   20loPI   GL2  310   7.073  15.460  11.029  0.2617 -0.0402  0.1613
   20loPI   C1A  311   6.625  15.474  10.745  0.3332 -0.0008 -0.0254
   20loPI   C2A  312   6.722  15.384  10.335  0.0184  0.2179 -0.0734
   20loPI   C3A  313   6.657  15.375   9.912 -0.1495  0.1148 -0.0428
   20loPI   C4A  314   6.639  15.440   9.466 -0.0137 -0.2580 -0.0237
   20loPI   C5A  315   6.582  15.461   9.070 -0.1828 -0.2515 -0.1490
   20loPI   C6A  316   6.725  15.426   8.681 -0.0053 -0.2096 -0.2603
   20loPI   C1B  317   7.159  15.497  10.585  0.2614 -0.0644 -0.1147
   20loPI   C2B  318   7.209  15.558  10.129  0.1621 -0.4442  0.0080
   20loPI   C3B  319   7.114  15.466   9.715  0.0840  0.0530  0.0259
   20loPI   C4B  320   7.162  15.526   9.320 -0.1525  0.0647  0.0430
   21loPI    C1  321   0.885  16.646  11.576 -0.1338 -0.1043  0.0882
   21loPI    C2  322   1.231  16.640  11.776 -0.0692 -0.0314 -0.0199
   21loPI    C3  323   0.989  16.321  11.784 -0.0535 -0.0398  0.1492
   21loPI   PO4  324   0.903  16.667  11.355 -0.1679  0.1770  0.1489
   21loPI   GL1  325   1.060  16.500  10.944 -0.0912  0.1439  0.1170
   21loPI   GL2  326   1.374  16.528  10.908 -0.0849 -0.1213 -0.1389
   21loPI   C1A  327   0.912  16.364  10.643 -0.3506  0.0806 -0.1585
   21loPI   C2A  328   0.937  16.402  10.247  0.1726 -0.0482  0.0998
   21loPI   C3A  329   0.938  16.338   9.745  0.2005 -0.1198 -0.1742
   21loPI   C4A  330   1.043  16.355   9.251 -0.3110 -0.0054 -0.0727
   21loPI   C5A  331   1.171  16.152   8.924 -0.1978 -0.2796 -0.1503
   21loPI   C6A  332   1.496  15.953   8.856 -0.0505  0.0877  0.0584
   21loPI   C1B  333   1.384  16.497  10.422  0.0326  0.1206 -0.0969
   21loPI   C2B  334   1.385  16.540   9.963  0.0882 -0.0095 -0.3313
   21loPI   C3B  335   1.439  16.463   9.543  0.3961 -0.0088 -0.3115
   21loPI   C4B  336   1.504  16.484   9.113 -0.0454  0.2360 -0.0771
   22loPI    C1  337   2.647   2.622  11.445 -0.2054  0.1150  0.3584
   22loPI    C2  338   2.978   2.589  11.668  0.0970 -0.1304 -0.1112
   22loPI    C3  339   2.727   2.279  11.635  0.0269 -0.0779 -0.0733
   22loPI   PO4  340   2.720   2.699  11.229 -0.0326  0.3276  0.2754
   22loPI   GL1  341   2.908   2.710  10.846 -0.2983 -0.0838 -0.0700
   22loPI   GL2  342   2.847   2.890  10.743  0.0688  0.1132  0.1162
   22loPI   C1A  343   2.832   2.517  10.476  0.0490 -0.5144 -0.2973
   22loPI   C2A  344   2.739   2.474  10.068  0.2587 -0.1195  0.1028
   22loPI   C3A  345   2.785   2.593   9.653 -0.3914 -0.1343 -0.1782
   22loPI   C4A  346   2.880   2.567   9.204 -0.2032 -0.0365  0.0165
   22loPI   C5A  347   2.886   2.645   8.709 -0.1125  0.0830 -0.1221
   22loPI   C6A  348   3.184   2.411   8.307 -0.0362  0.1615 -0.2983
   22loPI   C1B  349   2.939   2.954  10.308  0.1834 -0.1115 -0.2198
   22loPI   C2B  350   2.813   3.012   9.978  0.0653 -0.0722  0.2006
   22loPI   C3B  351   2.894   3.096   9.493  0.2683 -0.0786  0.0279
   22loPI   C4B  352   2.878   3.130   8.950  0.2527 -0.0944 -0.2999
   23loPI    C1  353  12.695   9.687  11.673  0.2476  0.0861 -0.1217
   23loPI    C2  354  12.643  10.013  11.900  0.1173  0.0412 -0.0862
   23loPI    C3  355  12.589   9.649  12.057  0.2456  0.0024 -0.1304
   23loPI   PO4  356  12.693   9.799  11.418  0.0767 -0.2944  0.1439
   23loPI   GL1  357  12.729   9.715  10.979  0.1424 -0.0032  0.1173
   23loPI   GL2  358  12.586   9.411  10.883 -0.0150  0.3555  0.2514
   23loPI   C1A  359  12.733   9.743  10.566 -0.3839  0.0950 -0.1407
   23loPI   C2A  360  12.721   9.783  10.105  0.1879  0.0025  0.3407
   23loPI   C3A  361  12.648   9.801   9.697 -0.0002  0.2625  0.5319
   23loPI   C4A  362  12.633   9.804   9.246 -0.1934 -0.1431 -0.1363
   23loPI   C5A  363  12.748   9.850   8.850  0.0723 -0.0121  0.2848
   23loPI   C6A  364  12.965   9.862   8.491 -0.0041  0.0475 -0.0010
   23loPI   C1B  365  12.645   9.268  10.395 -0.1354 -0.1038  0.0353
   23loPI   C2B  366  12.638   9.282   9.984 -0.1705 -0.1018 -0.0047
   23loPI   C3B  367  12.575   9.290   9.552  0.0919 -0.1858  0.2251
   23loPI   C4B  368  12.463   9.312   9.045  0.2152 -0.0539 -0.0389
   24loPI    C1  369  15.425   6.794  11.556  0.2861  0.0290  0.2166
   24loPI    C2  370  15.059   6.833  11.714  0.0709  0.0857 -0.2772
   24loPI    C3  371  15.295   6.531  11.829 -0.1358  0.0367  0.0317
   24loPI   PO4  372  15.371   6.716  11.270 -0.1488  0.4625 -0.2521
   24loPI   GL1  373  15.128   6.497  10.965  0.3557 -0.3262  0.1833
   24loPI   GL2  374  14.796   6.666  10.776  0.2921 -0.0505  0.3311
   24loPI   C1A  375  15.019   6.307  10.570  0.2140 -0.1359  0.1866
   24loPI   C2A  376  15.190   6.408  10.202 -0.0711 -0.3104  0.0038
   24loPI   C3A  377  15.116   6.453   9.731 -0.1733  0.0581 -0.4067
   24loPI   C4A  378  15.068   6.427   9.334 -0.0830  0.1404 -0.0793
   24loPI   C5A  379  14.915   6.396   8.881  0.2189 -0.2397 -0.1004
   24loPI   C6A  380  14.882   6.701   8.543  0.1804 -0.0916 -0.1808
   24loPI   C1B  381  14.670   6.684  10.339 -0.0952  0.1518  0.0821
   24loPI   C2B  382  14.778   6.783   9.935  0.0037  0.1655  0.0057
   24loPI   C3B  383  14.644   6.774   9.461 -0.0157 -0.3308 -0.0601
   24loPI   C4B  384  14.701   6.885   9.022  0.2271  0.0000 -0.3063
   25loPI    C1  385   0.160  15.080  11.546 -0.2122 -0.0562 -0.1592
   25loPI    C2  386   0.292  14.762  11.749 -0.1973 -0.0025 -0.0845
   25loPI    C3  387   0.016  15.002  11.911 -0.2035  0.0266 -0.1379
   25loPI   PO4  388   0.278  14.979  11.271  0.1969 -0.0886  0.2514
   25loPI   GL1  389   0.228  15.222  10.874 -0.0139 -0.1483  0.2494
   25loPI   GL2  390   0.519  15.299  10.962 -0.2386 -0.0975 -0.1539
   25loPI   C1A  391   0.304  15.254  10.363  0.1491  0.0637  0.3695
   25loPI   C2A  392   0.249  15.296   9.961 -0.0495 -0.1779 -0.0493
   25loPI   C3A  393   0.255  15.244   9.449  0.0828  0.1972  0.1182
   25loPI   C4A  394   0.382  15.306   9.015 -0.0423 -0.0922 -0.1822
   25loPI   C5A  395   0.348  15.220   8.552  0.1336  0.0550 -0.0028
   25loPI   C6A  396   0.195  14.872   8.316 -0.0075  0.0011 -0.1899
   25loPI   C1B  397   0.767  15.372  10.588  0.0491  0.2962 -0.0023
   25loPI   C2B  398   0.752  15.386  10.170  0.1457  0.1170 -0.0335
   25loPI   C3B  399   0.738  15.412   9.729  0.0990 -0.0339  0.0855
   25loPI   C4B  400   0.845  15.365   9.318 -0.2365 -0.2832 -0.0807
   26loPI    C1  401  10.986  15.814  11.593 -0.2812 -0.1841  0.2699
   26loPI    C2  402  11.029  15.436  11.715  0.1499 -0.1842  0.1358
   26loPI    C3  403  11.031  15.734  11.982  0.0006 -0.2608  0.2238
   26loPI   PO4  404  10.778  15.898  11.397 -0.1841 -0.0331  0.0782
   26loPI   GL1  405  10.593  15.883  11.042  0.1032  0.2871 -0.0724
   26loPI   GL2  406  10.316  16.140  11.063 -0.3201 -0.0801 -0.0379
   26loPI   C1A  407  10.838  15.744  10.606  0.1651  0.0793 -0.0413
   26loPI   C2A  408  10.819  15.722  10.090  0.0607 -0.0477 -0.0097
   26loPI   C3A  409  10.864  15.724   9.672  0.0787 -0.2292  0.0967
   26loPI   C4A  410  10.843  15.878   9.233  0.0313  0.2030 -0.1076
   26loPI   C5A  411  10.967  15.792   8.830  0.0767 -0.0734  0.0869
   26loPI   C6A  412  11.306  15.628   8.538  0.1846 -0.1362 -0.0148
   26loPI   C1B  413  10.396  16.074  10.660 -0.0331 -0.0607 -0.1371
   26loPI   C2B  414  10.374  16.038  10.286  0.0041  0.0995 -0.0380
   26loPI   C3B  415  10.531  16.109   9.827 -0.2758 -0.0936  0.1119
   26loPI   C4B  416  10.480  16.181   9.410 -0.0323  0.1442  0.0056
   27loPI    C1  417   6.239   9.521  11.347 -0.2252  0.0302  0.0108
   27loPI    C2  418   6.561   9.362  11.524 -0.1890  0.0957  0.0046
   27loPI    C3  419   6.420   9.716  11.646 -0.1560  0.1477 -0.1063
   27loPI   PO4  420   6.246   9.465  11.136 -0.0537  0.0943 -0.2469
   27loPI   GL1  421   6.366   9.473  10.719 -0.0448  0.2163  0.0604
   27loPI   GL2  422   6.677   9.209  10.655  0.3222  0.1459  0.0456
   27loPI   C1A  423   6.395   9.536  10.357  0.1586  0.1959 -0.1456
   27loPI   C2A  424   6.318   9.642   9.934  0.1109 -0.1063  0.1846
   27loPI   C3A  425   6.300   9.661   9.464  0.1053  0.0722 -0.3496
   27loPI   C4A  426   6.207   9.674   9.149  0.4753 -0.0810  0.4269
   27loPI   C5A  427   6.444   9.704   8.731  0.0761 -0.1564  0.3083
   27loPI   C6A  428   6.616   9.982   8.484 -0.1222 -0.0070 -0.0369
   27loPI   C1B  429   6.674   9.180  10.249 -0.0794 -0.0504  0.0076
   27loPI   C2B  430   6.647   9.350   9.824 -0.0272  0.0731 -0.1071
   27loPI   C3B  431   6.640   9.273   9.401  0.1503 -0.2343 -0.0351
   27loPI   C4B  432   6.709   9.408   9.015 -0.1305 -0.1010 -0.3889
   28loPI    C1  433  11.336  11.125  11.548  0.0930  0.0292 -0.0793
   28loPI    C2  434  11.510  10.896  11.826  0.2213  0.1619 -0.0489
   28loPI    C3  435  11.327  11.235  11.933  0.0862  0.1063 -0.1015
   28loPI   PO4  436  11.502  11.099  11.309 -0.0173 -0.2068 -0.0165
   28loPI   GL1  437  11.656  10.825  10.964 -0.2224 -0.3044 -0.1774
   28loPI   GL2  438  11.459  10.572  11.063  0.0254 -0.3234 -0.1387
   28loPI   C1A  439  11.641  10.772  10.461 -0.1052  0.0375 -0.0046
   28loPI   C2A  440  11.565  10.860  10.058 -0.0689  0.3127 -0.1263
   28loPI   C3A  441  11.630  10.887   9.662  0.2382  0.3072  0.0403
   28loPI   C4A  442  11.600  10.874   9.191 -0.2280 -0.2318  0.1685
   28loPI   C5A  443  11.569  11.180   8.846  0.2662 -0.2067 -0.0020
   28loPI   C6A  444  11.753  11.521   8.799  0.0803 -0.0237 -0.1023
   28loPI   C1B  445  11.464  10.380  10.683  0.3255  0.0092 -0.0441
   28loPI   C2B  446  11.533  10.246  10.275  0.1689 -0.0077  0.1626
   28loPI   C3B  447  11.441  10.282   9.750 -0.2177 -0.1213 -0.1074
   28loPI   C4B  448  11.481  10.414   9.348 -0.1979 -0.1642  0.0334
   29loPI    C1  449   7.096   2.621  11.201 -0.0109 -0.0962 -0.1024
   29loPI    C2  450   7.331   2.463  11.484 -0.1488 -0.2315 -0.0616
   29loPI    C3  451   6.934   2.451  11.525 -0.1632  0.0894 -0.0799
   29loPI   PO4  452   7.172   2.509  10.971  0.2326  0.1685 -0.2105
   29loPI   GL1  453   7.385   2.587  10.681 -0.0491  0.2847  0.0623
   29loPI   GL2  454   7.453   2.880  10.570  0.0129 -0.0595 -0.0175
   29loPI   C1A  455   7.290   2.410  10.196  0.1234 -0.0996  0.3602
   29loPI   C2A  456   7.298   2.535   9.780  0.2455 -0.2434 -0.4769
   29loPI   C3A  457   7.295   2.620   9.351  0.0991  0.1417  0.0022
   29loPI   C4A  458   7.199   2.647   8.969 -0.2423  0.0603 -0.1400
   29loPI   C5A  459   7.181   2.599   8.531 -0.0937  0.0584  0.2538
   29loPI   C6A  460   7.288   2.709   8.076  0.0857  0.0034 -0.1425
   29loPI   C1B  461   7.502   2.915  10.166  0.1972 -0.2152 -0.0329
   29loPI   C2B  462   7.444   3.078   9.677  0.0753  0.1016  0.2161
   29loPI   C3B  463   7.532   3.145   9.295 -0.0813 -0.0095 -0.0815
   29loPI   C4B  464   7.442   3.095   8.892 -0.1727  0.0025  0.0032
   30loPI    C1  465   9.581   2.630  11.383  0.0756  0.0213  0.0143
   30loPI    C2  466   9.762   2.971  11.486  0.3028 -0.1442  0.1731
   30loPI    C3  467   9.649   2.712  11.769  0.0145 -0.1439  0.0610
   30loPI   PO4  468   9.557   2.626  11.109  0.1760 -0.2597  0.2316
   30loPI   GL1  469   9.497   2.655  10.742  0.0759  0.0005 -0.0580
   30loPI   GL2  470   9.147   2.696  10.634 -0.3189  0.0283  0.3884
   30loPI   C1A  471   9.609   2.326  10.502  0.2536  0.1348 -0.0452
   30loPI   C2A  472   9.559   2.303  10.079  0.1330  0.1826  0.1495
   30loPI   C3A  473   9.528   2.274   9.664 -0.0418 -0.0095 -0.2050
   30loPI   C4A  474   9.522   2.301   9.181 -0.0109  0.0247 -0.1291
   30loPI   C5A  475   9.597   2.352   8.749 -0.0371 -0.0017 -0.0465
   30loPI   C6A  476  10.022   2.408   8.548  0.0295  0.0485 -0.1381
   30loPI   C1B  477   9.186   2.631  10.236  0.1456  0.0713  0.2693
   30loPI   C2B  478   9.192   2.609   9.823  0.0918  0.2828  0.1768
   30loPI   C3B  479   9.180   2.543   9.362  0.2379  0.1072  0.0640
   30loPI   C4B  480   9.107   2.691   8.982  0.0338  0.4742  0.3520
   31loPI    C1  481  11.881  13.151  11.419 -0.1351  0.1401 -0.0581
   31loPI    C2  482  12.220  13.162  11.630 -0.1162  0.0633 -0.0841
   31loPI    C3  483  12.139  12.845  11.400 -0.1918  0.0946 -0.1008
   31loPI   PO4  484  11.822  13.377  11.246  0.0818 -0.1669 -0.0386
   31loPI   GL1  485  11.666  13.354  10.846 -0.0767  0.3170  0.0069
   31loPI   GL2  486  11.408  13.627  11.077  0.0507 -0.0064  0.0937
   31loPI   C1A  487  11.690  13.218  10.468 -0.1632 -0.1195  0.0777
   31loPI   C2A  488  11.672  13.212  10.058 -0.2250 -0.0281  0.0994
   31loPI   C3A  489  11.637  13.258   9.642 -0.3024  0.2009  0.2556
   31loPI   C4A  490  11.620  13.128   9.234  0.2028  0.0140 -0.0845
   31loPI   C5A  491  11.719  13.314   8.881  0.0423  0.0793  0.0897
   31loPI   C6A  492  11.915  13.517   8.555 -0.0749 -0.0642 -0.2634
   31loPI   C1B  493  11.252  13.571  10.581  0.0478 -0.0516 -0.1385
   31loPI   C2B  494  11.262  13.500  10.119 -0.0089  0.2355  0.1518
   31loPI   C3B  495  11.211  13.511   9.695 -0.1612 -0.1222 -0.2796
   31loPI   C4B  496  11.319  13.519   9.292 -0.1503  0.0116  0.4283
   32loPI    C1  497   1.038   1.940  11.501 -0.1968 -0.0414 -0.0983
   32loPI    C2  498   0.745   2.211  11.469 -0.1145  0.0967  0.2674
   32loPI    C3  499   0.803   2.020  11.815  0.1717  0.0043  0.1713
   32loPI   PO4  500   0.968   1.847  11.206  0.2740 -0.1452  0.2170
   32loPI   GL1  501   0.693   1.955  10.882  0.1407  0.3640  0.1744
   32loPI   GL2  502   0.912   2.238  10.867  0.1686 -0.0461 -0.2286
   32loPI   C1A  503   0.745   1.827  10.505  0.1480 -0.2283 -0.2244
   32loPI   C2A  504   0.757   1.870  10.136  0.1222  0.0349  0.0645
   32loPI   C3A  505   0.786   1.870   9.667  0.2669  0.0835  0.0679
   32loPI   C4A  506   0.821   1.968   9.251  0.0706  0.3178 -0.0508
   32loPI   C5A  507   1.018   2.066   8.845 -0.0565 -0.1356 -0.0891
   32loPI   C6A  508   1.455   2.150   8.726  0.1703 -0.2408 -0.0603
   32loPI   C1B  509   0.927   2.371  10.506  0.0051  0.0295  0.0948
   32loPI   C2B  510   0.884   2.375   9.992 -0.1043 -0.0945  0.0140
   32loPI   C3B  511   0.978   2.342   9.566  0.3558 -0.0564 -0.1388
   32loPI   C4B  512   0.943   2.411   9.207 -0.2433 -0.5966  0.1912
   33loPI    C1  513   1.391   9.626  11.661  0.1715  0.0822 -0.0028
   33loPI    C2  514   1.620   9.537  11.976  0.0125 -0.0080  0.0885
   33loPI    C3  515   1.252   9.382  11.946  0.0529 -0.0568 -0.1766
   33loPI   PO4  516   1.502   9.551  11.405  0.0721 -0.0503 -0.1038
   33loPI   GL1  517   1.380   9.310  10.980  0.1211 -0.0487  0.1352
   33loPI   GL2  518   1.595   9.496  10.859 -0.0627  0.0275  0.0939
   33loPI   C1A  519   1.206   9.391  10.541  0.3270  0.1423 -0.1522
   33loPI   C2A  520   1.211   9.454  10.144 -0.2336  0.1152  0.4123
   33loPI   C3A  521   1.254   9.523   9.657  0.1468  0.2323  0.0777
   33loPI   C4A  522   1.267   9.506   9.213  0.0376 -0.0963 -0.0435
   33loPI   C5A  523   1.317   9.506   8.786 -0.2790 -0.1333  0.0081
   33loPI   C6A  524   1.192   9.417   8.301  0.0182 -0.2466 -0.0041
   33loPI   C1B  525   1.620   9.586  10.447 -0.0933  0.0739 -0.2323
   33loPI   C2B  526   1.676   9.678  10.035  0.3392 -0.3658  0.0688
   33loPI   C3B  527   1.719   9.730   9.590  0.0725  0.0727  0.2555
   33loPI   C4B  528   1.704   9.690   9.111 -0.0046  0.2735 -0.2325
   34loPI    C1  529   1.396  12.149  11.343 -0.0073 -0.0719 -0.0089
   34loPI    C2  530   1.371  12.467  11.102 -0.2748 -0.0617  0.0292
   34loPI    C3  531   1.451  12.517  11.491  0.0728 -0.0722 -0.0374
   34loPI   PO4  532   1.525  12.010  11.234  0.0381  0.0727 -0.0067
   34loPI   GL1  533   1.491  11.931  10.844 -0.1357  0.0935  0.0772
   34loPI   GL2  534   1.224  11.768  10.752  0.0137 -0.0442  0.0220
   34loPI   C1A  535   1.468  12.266  10.628  0.1159 -0.0767 -0.0335
   34loPI   C2A  536   1.450  12.342  10.164  0.1740 -0.2382  0.2633
   34loPI   C3A  537   1.383  12.247   9.777  0.0839 -0.3325 -0.1266
   34loPI   C4A  538   1.361  12.301   9.357 -0.2248 -0.1643 -0.2137
   34loPI   C5A  539   1.388  12.220   8.906  0.0114  0.0489 -0.1685
   34loPI   C6A  540   1.452  12.153   8.412  0.0393  0.0189  0.0100
   34loPI   C1B  541   1.371  11.796  10.343  0.4316 -0.2146  0.0736
   34loPI   C2B  542   1.259  11.797   9.941 -0.0175  0.2515  0.2353
   34loPI   C3B  543   1.309  11.837   9.490 -0.0223 -0.2272 -0.0056
   34loPI   C4B  544   1.333  11.760   9.037 -0.2094 -0.0914 -0.0972
   35loPI    C1  545  11.590   0.345  11.562  0.3374  0.2495  0.2233
   35loPI    C2  546  11.301   0.515  11.780 -0.0434 -0.2064  0.0892
   35loPI    C3  547  11.476   0.179  11.907  0.1989 -0.1121  0.0091
   35loPI   PO4  548  11.507   0.333  11.274  0.0945  0.0323 -0.4219
   35loPI   GL1  549  11.111   0.191  11.028 -0.1356  0.3925  0.1662
   35loPI   GL2  550  10.832   0.062  11.014 -0.0630  0.0668  0.0966
   35loPI   C1A  551  11.339   0.371  10.640  0.0555 -0.0440  0.0546
   35loPI   C2A  552  11.417   0.492  10.188 -0.1608  0.0559  0.1550
   35loPI   C3A  553  11.525   0.496   9.790 -0.0180 -0.3148  0.0210
   35loPI   C4A  554  11.430   0.595   9.317  0.2431  0.2778  0.0080
   35loPI   C5A  555  11.477   0.640   8.866  0.3919 -0.1964  0.0939
   35loPI   C6A  556  11.785   0.837   8.526  0.0367  0.2231  0.3018
   35loPI   C1B  557  10.725  -0.151  10.596  0.0348 -0.1357 -0.2307
   35loPI   C2B  558  10.761  -0.166  10.154 -0.0324  0.0665  0.1571
   35loPI   C3B  559  10.762  -0.052   9.742 -0.3158 -0.1074 -0.1705
   35loPI   C4B  560  10.859  -0.036   9.312 -0.1832 -0.1045 -0.2285
   36loPI    C1  561  16.611  10.491  11.779 -0.0164 -0.0458  0.2478
   36loPI    C2  562  16.968  10.619  11.907  0.0942  0.0623 -0.1541
   36loPI    C3  563  16.645  10.665  12.138  0.3657 -0.2096  0.2968
   36loPI   PO4  564  16.605  10.582  11.525 -0.0663 -0.1455  0.3437
   36loPI   GL1  565  16.714  10.505  11.108  0.1796  0.1046 -0.1575
   36loPI   GL2  566  16.430  10.534  10.982  0.3349  0.2289 -0.0944
   36loPI   C1A  567  16.829  10.366  10.687 -0.0831 -0.1239  0.2307
   36loPI   C2A  568  16.885  10.317  10.278  0.0039 -0.1612 -0.1823
   36loPI   C3A  569  16.852  10.212   9.851 -0.0801 -0.2482  0.2022
   36loPI   C4A  570  16.836  10.267   9.495 -0.0566 -0.2086 -0.0163
   36loPI   C5A  571  16.794  10.195   9.059  0.3884  0.1500  0.0865
   36loPI   C6A  572  16.614  10.246   8.625 -0.0786 -0.3908  0.3151
   36loPI   C1B  573  16.411  10.629  10.567 -0.2104 -0.0715  0.0998
   36loPI   C2B  574  16.444  10.594  10.100 -0.1080  0.0163 -0.1203
   36loPI   C3B  575  16.461  10.561   9.623  0.1321 -0.1420 -0.3242
   36loPI   C4B  576  16.429  10.573   9.073  0.0845  0.0429  0.1386
   37loPI    C1  577  16.089  11.313  11.659 -0.0033 -0.0234 -0.2843
   37loPI    C2  578  15.724  11.153  11.625  0.0326 -0.1453 -0.1103
   37loPI    C3  579  15.917  11.139  11.975  0.1594  0.0170 -0.1721
   37loPI   PO4  580  16.126  11.317  11.366  0.1272  0.0822  0.4170
   37loPI   GL1  581  16.033  11.193  10.941  0.0819  0.1693  0.1245
   37loPI   GL2  582  15.749  11.195  10.679  0.3288  0.1403 -0.2628
   37loPI   C1A  583  16.146  11.388  10.502  0.0843  0.1392 -0.1634
   37loPI   C2A  584  16.207  11.468  10.076  0.1754  0.1682  0.0069
   37loPI   C3A  585  16.259  11.425   9.623 -0.0417 -0.1860 -0.1603
   37loPI   C4A  586  16.164  11.406   9.217 -0.2633  0.0963  0.1636
   37loPI   C5A  587  16.079  11.345   8.798 -0.1791  0.2161 -0.0087
   37loPI   C6A  588  16.021  11.236   8.389 -0.0308  0.3650  0.2430
   37loPI   C1B  589  15.738  11.184  10.223  0.0252 -0.1317  0.0335
   37loPI   C2B  590  15.778  11.265   9.765  0.1652  0.1151  0.0516
   37loPI   C3B  591  15.665  11.277   9.275 -0.0751 -0.3067 -0.0434
   37loPI   C4B  592  15.331  11.558   9.045 -0.1928 -0.1683 -0.3087
   38loPI    C1  593  11.466   7.152  11.320  0.1927 -0.2185  0.1076
   38loPI    C2  594  11.598   7.450  11.551  0.1590 -0.0745 -0.0566
   38loPI    C3  595  11.773   7.090  11.569  0.2610 -0.0194  0.0742
   38loPI   PO4  596  11.486   7.229  11.107  0.3951  0.0763 -0.0695
   38loPI   GL1  597  11.744   7.550  11.061 -0.0055 -0.1785  0.0647
   38loPI   GL2  598  11.882   7.792  11.201 -0.1454  0.2002  0.1162
   38loPI   C1A  599  11.810   7.541  10.595  0.0528 -0.0341  0.1783
   38loPI   C2A  600  11.756   7.530  10.160  0.3763 -0.2329  0.1189
   38loPI   C3A  601  11.784   7.652   9.779  0.2972 -0.0532  0.1714
   38loPI   C4A  602  11.734   7.655   9.371  0.1171  0.0632  0.1402
   38loPI   C5A  603  11.711   7.741   8.953  0.0841  0.1282 -0.3712
   38loPI   C6A  604  11.506   8.001   8.647  0.0414 -0.3479  0.2777
   38loPI   C1B  605  11.860   8.032  10.795  0.1122  0.1514  0.0924
   38loPI   C2B  606  11.890   8.118  10.369 -0.0610  0.0552  0.1832
   38loPI   C3B  607  11.919   8.103   9.855  0.1657 -0.0803  0.0493
   38loPI   C4B  608  11.936   8.114   9.385  0.3972 -0.0763 -0.1920
   39loPI    C1  609  11.769  11.300  11.731 -0.1080  0.0749 -0.0200
   39loPI    C2  610  11.770  11.604  11.992 -0.0091 -0.0402  0.1151
   39loPI    C3  611  11.766  11.227  12.124  0.1603 -0.1012 -0.0487
   39loPI   PO4  612  11.919  11.380  11.589  0.0868 -0.0323 -0.0746
   39loPI   GL1  613  12.196  11.485  11.096  0.4742 -0.0718 -0.1563
   39loPI   GL2  614  11.893  11.286  11.109  0.2402  0.2799 -0.0975
   39loPI   C1A  615  12.172  11.540  10.670 -0.0340  0.0051  0.2023
   39loPI   C2A  616  12.239  11.538  10.160 -0.1808 -0.1349 -0.1242
   39loPI   C3A  617  12.173  11.517   9.795  0.1505  0.1445  0.2363
   39loPI   C4A  618  12.208  11.411   9.363 -0.5008 -0.2360 -0.1266
   39loPI   C5A  619  12.218  11.482   8.929  0.0711 -0.3449  0.1208
   39loPI   C6A  620  12.180  11.673   8.519 -0.2380 -0.3298  0.2765
   39loPI   C1B  621  11.684  11.356  10.648  0.1324  0.0825 -0.1897
   39loPI   C2B  622  11.713  11.305  10.193  0.0723 -0.0627  0.0586
   39loPI   C3B  623  11.731  11.392   9.708 -0.0807  0.2778  0.0845
   39loPI   C4B  624  11.710  11.371   9.303 -0.3403 -0.1863 -0.2038
   40loPI    C1  625  13.018  17.070  11.768 -0.0378  0.0832  0.2938
   40loPI    C2  626  12.840  17.401  11.903 -0.1643  0.1666 -0.0664
   40loPI    C3  627  12.761  17.048  12.074 -0.3555  0.2616  0.0459
   40loPI   PO4  628  12.878  17.129  11.465  0.0202 -0.0577 -0.2635
   40loPI   GL1  629  12.643  17.125  11.182  0.0776  0.1040  0.4187
   40loPI   GL2  630  12.866  17.387  11.047  0.0072  0.0476 -0.0259
   40loPI   C1A  631  12.526  17.141  10.724  0.0103 -0.1499  0.1038
   40loPI   C2A  632  12.430  17.232  10.322  0.2215  0.3064  0.1103
   40loPI   C3A  633  12.561  17.294   9.926  0.0496  0.0843  0.0380
   40loPI   C4A  634  12.577  17.301   9.482 -0.1531 -0.1218 -0.2993
   40loPI   C5A  635  12.477  17.343   9.035 -0.0193 -0.1032 -0.1590
   40loPI   C6A  636  12.517  17.477   8.621 -0.1963  0.1412 -0.1014
   40loPI   C1B  637  12.996  17.289  10.656 -0.5500 -0.2702 -0.0111
   40loPI   C2B  638  13.002  17.387  10.282 -0.1423  0.1799 -0.3080
   40loPI   C3B  639  13.007  17.433   9.805  0.0392 -0.0674  0.3225
   40loPI   C4B  640  13.051  17.452   9.388  0.1861 -0.2899 -0.0155
   41loPI    C1  641   5.819  13.038  11.160 -0.0731  0.0673  0.0953
   41loPI    C2  642   6.130  12.931  11.388 -0.1529  0.2448  0.2912
   41loPI    C3  643   5.802  12.703  11.378 -0.0105  0.0450  0.0663
   41loPI   PO4  644   5.914  13.120  10.973  0.0605  0.1720  0.2878
   41loPI   GL1  645   5.913  13.375  10.665 -0.0461 -0.3209 -0.1911
   41loPI   GL2  646   5.896  13.175  10.522  0.1855  0.0587  0.1126
   41loPI   C1A  647   5.902  13.666  10.366  0.1662 -0.0329 -0.0026
   41loPI   C2A  648   5.858  13.683   9.917  0.0425  0.1834  0.2050
   41loPI   C3A  649   5.816  13.745   9.590  0.2042 -0.0199  0.3319
   41loPI   C4A  650   5.830  13.707   9.089 -0.1496 -0.0892  0.1750
   41loPI   C5A  651   5.874  13.621   8.643 -0.0820  0.0223  0.0455
   41loPI   C6A  652   6.071  13.733   8.225  0.4313  0.2465 -0.1590
   41loPI   C1B  653   5.751  13.169  10.124  0.1840 -0.1859 -0.3165
   41loPI   C2B  654   5.728  13.232   9.681 -0.1522  0.0539 -0.1833
   41loPI   C3B  655   5.706  13.210   9.207 -0.1317 -0.0164 -0.0252
   41loPI   C4B  656   5.801  13.105   8.711 -0.1103 -0.1764 -0.0389
   42loPI    C1  657   9.819   4.354  10.960 -0.1787 -0.1857  0.0301
   42loPI    C2  658  10.057   4.517  11.238 -0.0149 -0.0302 -0.1972
   42loPI    C3  659   9.741   4.298  11.348 -0.0783  0.2104  0.1126
   42loPI   PO4  660  10.013   4.264  10.735 -0.0716 -0.1187 -0.0126
   42loPI   GL1  661   9.902   4.279  10.292 -0.2032  0.2244  0.2470
   42loPI   GL2  662  10.249   4.247  10.303  0.1495  0.1744 -0.2259
   42loPI   C1A  663   9.804   3.833  10.140 -0.0560  0.1036  0.0315
   42loPI   C2A  664   9.790   3.773   9.747  0.0444  0.0070  0.0626
   42loPI   C3A  665   9.933   3.747   9.339 -0.3083  0.1001  0.0324
   42loPI   C4A  666   9.974   3.782   8.954 -0.0557  0.1455 -0.0166
   42loPI   C5A  667   9.801   3.708   8.557 -0.1741  0.2971  0.0720
   42loPI   C6A  668   9.673   3.490   8.179 -0.0047  0.0169 -0.3068
   42loPI   C1B  669  10.237   4.082   9.961 -0.4192 -0.0047  0.0015
   42loPI   C2B  670  10.376   3.867   9.557  0.0060  0.0792  0.2731
   42loPI   C3B  671  10.761   3.901   9.410  0.3095  0.0850 -0.0702
   42loPI   C4B  672  11.071   4.188   9.224 -0.0168 -0.0960 -0.2169
   43loPI    C1  673  11.962  10.279  11.521 -0.0698 -0.0682 -0.1219
   43loPI    C2  674  11.786  10.491  11.810  0.0478  0.2744 -0.2960
   43loPI    C3  675  11.746  10.093  11.801 -0.0785  0.2738  0.1037
   43loPI   PO4  676  11.908  10.404  11.248 -0.2346  0.3861  0.1691
   43loPI   GL1  677  11.864  10.236  10.914  0.0854 -0.0333 -0.0159
   43loPI   GL2  678  11.962  10.481  10.759 -0.1617 -0.3512  0.1536
   43loPI   C1A  679  11.818   9.975  10.522 -0.2237  0.2477 -0.0913
   43loPI   C2A  680  11.916   9.986  10.146  0.1815 -0.0148 -0.2135
   43loPI   C3A  681  11.807   9.948   9.688 -0.1960  0.0469 -0.1703
   43loPI   C4A  682  11.834   9.991   9.259 -0.4506 -0.2860 -0.0189
   43loPI   C5A  683  11.873  10.136   8.832 -0.1641  0.0855  0.2268
   43loPI   C6A  684  11.947  10.097   8.342  0.2019 -0.1243 -0.0353
   43loPI   C1B  685  12.034  10.482  10.353  0.0890 -0.2766  0.0514
   43loPI   C2B  686  11.950  10.566  10.039 -0.1488 -0.0590  0.1266
   43loPI   C3B  687  11.915  10.501   9.613  0.1010  0.3091 -0.0319
   43loPI   C4B  688  11.992  10.482   9.277  0.2083  0.3961  0.2758
   44loPI    C1  689  17.691   6.514  11.592  0.2899  0.0737  0.2211
   44loPI    C2  690  17.449   6.816  11.694  0.1311 -0.0225  0.1339
   44loPI    C3  691  17.808   6.779  11.868  0.1970  0.2775  0.0675
   44loPI   PO4  692  17.594   6.473  11.345 -0.0992 -0.0977  0.0677
   44loPI   GL1  693  17.633   6.626  10.975  0.2303 -0.2523 -0.0581
   44loPI   GL2  694  17.893   6.674  10.821 -0.2430 -0.1430 -0.2351
   44loPI   C1A  695  17.308   6.509  10.621 -0.1738 -0.0337 -0.1773
   44loPI   C2A  696  17.430   6.575  10.169 -0.0807  0.1813 -0.2795
   44loPI   C3A  697  17.491   6.648   9.822  0.2793  0.0281  0.1835
   44loPI   C4A  698  17.482   6.643   9.388 -0.0414 -0.0807  0.1634
   44loPI   C5A  699  17.522   6.620   8.917 -0.0955  0.0876 -0.0258
   44loPI   C6A  700  17.620   6.683   8.560 -0.2611  0.1153 -0.0711
   44loPI   C1B  701  17.961   6.770  10.388  0.2347 -0.0649  0.1566
   44loPI   C2B  702  17.967   6.825   9.960  0.2965 -0.0161  0.1119
   44loPI   C3B  703  17.942   6.832   9.503 -0.0256 -0.2236 -0.3397
   44loPI   C4B  704  17.940   6.852   9.038 -0.0697  0.2709  0.0967
   45loPI    C1  705  11.818   3.081  11.282  0.0180 -0.3798  0.0345
   45loPI    C2  706  12.186   3.228  11.342 -0.1328 -0.0081  0.0796
   45loPI    C3  707  12.138   2.871  11.166  0.2502 -0.1158  0.1853
   45loPI   PO4  708  11.686   3.334  11.257  0.0455  0.0842  0.1518
   45loPI   GL1  709  11.780   3.468  10.804 -0.0342 -0.2026  0.2197
   45loPI   GL2  710  12.140   3.284  10.837  0.1705 -0.0250  0.0510
   45loPI   C1A  711  11.924   3.165  10.410  0.0875  0.2058 -0.1317
   45loPI   C2A  712  12.066   3.040  10.011  0.1838 -0.0521 -0.3280
   45loPI   C3A  713  12.042   3.103   9.557 -0.2283 -0.0230  0.1654
   45loPI   C4A  714  11.995   3.108   9.152 -0.2170  0.1840  0.0462
   45loPI   C5A  715  12.057   3.321   8.724 -0.2679 -0.2165  0.1663
   45loPI   C6A  716  11.951   3.340   8.280 -0.1120  0.0197 -0.0667
   45loPI   C1B  717  12.466   3.250  10.497 -0.1220  0.2082 -0.1556
   45loPI   C2B  718  12.597   3.198  10.120 -0.1416  0.0335  0.0553
   45loPI   C3B  719  12.525   3.168   9.732 -0.0191 -0.1423  0.3648
   45loPI   C4B  720  12.462   3.213   9.265 -0.0835  0.1069  0.2455
   46loPI    C1  721   8.462   4.876  11.317 -0.0691  0.1015 -0.2043
   46loPI    C2  722   8.226   4.555  11.351  0.1203 -0.0378 -0.1854
   46loPI    C3  723   8.479   4.650  11.646  0.1808  0.0355 -0.2604
   46loPI   PO4  724   8.664   4.825  11.061 -0.0967  0.1980  0.0024
   46loPI   GL1  725   8.713   4.931  10.668 -0.0692 -0.0331  0.0056
   46loPI   GL2  726   8.467   5.101  10.449  0.4349  0.2159 -0.2274
   46loPI   C1A  727   8.745   4.758  10.197 -0.3286  0.1903  0.0872
   46loPI   C2A  728   8.715   4.786   9.753 -0.2585 -0.0793  0.0087
   46loPI   C3A  729   8.817   4.851   9.229  0.3049 -0.1199 -0.1321
   46loPI   C4A  730   9.184   4.793   8.854  0.0198  0.2052 -0.2323
   46loPI   C5A  731   9.680   4.732   8.759  0.1517 -0.1556 -0.1182
   46loPI   C6A  732  10.084   4.607   8.855 -0.0426  0.0027  0.2237
   46loPI   C1B  733   8.350   5.125  10.005  0.1219  0.0292 -0.0940
   46loPI   C2B  734   8.515   5.229   9.560 -0.2355 -0.0085 -0.1395
   46loPI   C3B  735   8.504   5.238   9.082 -0.1573 -0.2615  0.1449
   46loPI   C4B  736   8.700   5.043   8.776 -0.1416  0.1764 -0.2063
   47loPI    C1  737   0.901   2.645  11.513  0.1298 -0.2169 -0.1396
   47loPI    C2  738   0.742   2.524  11.859 -0.1785  0.0448 -0.1850
   47loPI    C3  739   1.116   2.419  11.763 -0.1444 -0.1589  0.1544
   47loPI   PO4  740   0.844   2.648  11.284 -0.0068  0.0817 -0.0991
   47loPI   GL1  741   0.718   2.712  10.831  0.0961 -0.2392 -0.2846
   47loPI   GL2  742   1.036   2.810  10.720  0.0564  0.2055  0.0443
   47loPI   C1A  743   0.505   2.690  10.461 -0.1959 -0.0457  0.1342
   47loPI   C2A  744   0.560   2.695  10.137  0.2541  0.4355 -0.5563
   47loPI   C3A  745   0.592   2.730   9.682 -0.0051  0.1787  0.3452
   47loPI   C4A  746   0.586   2.710   9.216 -0.2915 -0.1514  0.1169
   47loPI   C5A  747   0.686   2.535   8.787 -0.3620  0.3471 -0.0701
   47loPI   C6A  748   0.567   2.282   8.416 -0.1789  0.2790  0.1647
   47loPI   C1B  749   1.008   2.823  10.372  0.1008  0.6011  0.1088
   47loPI   C2B  750   1.144   2.808  10.003 -0.2355 -0.1250 -0.2087
   47loPI   C3B  751   1.103   2.835   9.564  0.2251 -0.1110 -0.3776
   47loPI   C4B  752   1.158   2.937   9.166  0.0735  0.2892  0.2675
   48loPI    C1  753   1.197  13.391  11.672 -0.1585  0.3538 -0.0674
   48loPI    C2  754   1.411  13.524  11.983 -0.1102  0.0353  0.0395
   48loPI    C3  755   1.054  13.355  12.044 -0.1909  0.1533 -0.0985
   48loPI   PO4  756   1.389  13.405  11.462  0.1403  0.0779  0.5809
   48loPI   GL1  757   1.408  13.562  11.001  0.0288 -0.0251  0.0575
   48loPI   GL2  758   1.357  13.306  10.986  0.3801  0.2685 -0.3085
   48loPI   C1A  759   1.374  13.681  10.520  0.0725  0.4204 -0.1927
   48loPI   C2A  760   1.342  13.689  10.061 -0.1710 -0.0170 -0.0892
   48loPI   C3A  761   1.196  13.607   9.745  0.2194 -0.0419  0.2399
   48loPI   C4A  762   1.232  13.656   9.277 -0.4157 -0.2237  0.0729
   48loPI   C5A  763   1.246  13.407   8.895  0.4242  0.1708 -0.1035
   48loPI   C6A  764   1.401  13.110   8.664  0.1101 -0.0643  0.0062
   48loPI   C1B  765   1.255  13.186  10.534 -0.0838  0.5191 -0.0405
   48loPI   C2B  766   1.189  13.201  10.114 -0.0644  0.2390  0.0334
   48loPI   C3B  767   1.240  13.085   9.659  0.1825  0.4280 -0.2284
   48loPI   C4B  768   1.126  13.093   9.232  0.0677  0.0130 -0.1811
   49loPI    C1  769   3.284   4.330  11.344 -0.0228  0.2193 -0.1827
   49loPI    C2  770   2.934   4.149  11.414  0.1568 -0.0885 -0.0652
   49loPI    C3  771   3.120   4.347  11.708  0.0024  0.2219 -0.1715
   49loPI   PO4  772   3.247   4.343  11.124 -0.3208  0.0112 -0.1842
   49loPI   GL1  773   3.167   4.087  10.728  0.1511 -0.2920 -0.1290
   49loPI   GL2  774   2.854   4.148  10.911  0.3096  0.0667 -0.1149
   49loPI   C1A  775   3.094   3.916  10.292  0.0710 -0.4068  0.0777
   49loPI   C2A  776   3.065   3.943   9.909 -0.1561 -0.3029  0.0080
   49loPI   C3A  777   3.157   4.074   9.532  0.0448  0.0626 -0.0259
   49loPI   C4A  778   3.188   4.080   9.161 -0.0146  0.1976 -0.1178
   49loPI   C5A  779   3.225   4.007   8.658  0.1846  0.1041  0.0423
   49loPI   C6A  780   3.269   4.245   8.214  0.2982  0.1066 -0.1648
   49loPI   C1B  781   2.711   4.384  10.435 -0.1855  0.2228 -0.1582
   49loPI   C2B  782   2.668   4.347  10.040 -0.1172 -0.0619  0.1693
   49loPI   C3B  783   2.798   4.415   9.526 -0.0747  0.2488 -0.1520
   49loPI   C4B  784   2.823   4.503   9.129  0.1651  0.0201  0.1685
   50loPI    C1  785   4.405  11.565  11.477 -0.0967 -0.1381 -0.2482
   50loPI    C2  786   4.252  11.277  11.708 -0.1087  0.1058  0.0540
   50loPI    C3  787   4.429  11.594  11.875 -0.0446  0.2476 -0.2759
   50loPI   PO4  788   4.199  11.530  11.305 -0.2117  0.1582 -0.1270
   50loPI   GL1  789   4.146  11.360  10.916  0.0540 -0.2055  0.1937
   50loPI   GL2  790   4.230  11.736  10.808  0.0456  0.1851 -0.3982
   50loPI   C1A  791   4.009  11.289  10.489  0.0888  0.3297 -0.0668
   50loPI   C2A  792   3.930  11.229  10.122  0.1550  0.1443  0.1961
   50loPI   C3A  793   3.851  11.257   9.731 -0.0456  0.0783  0.2363
   50loPI   C4A  794   3.851  11.213   9.240 -0.0853  0.0212  0.0540
   50loPI   C5A  795   3.860  11.289   8.789  0.0768 -0.2063 -0.2050
   50loPI   C6A  796   3.678  11.545   8.429 -0.0143 -0.0657  0.0490
   50loPI   C1B  797   4.121  11.735  10.351  0.1369 -0.0357 -0.0811
   50loPI   C2B  798   4.068  11.762   9.948  0.2788  0.0396  0.1829
   50loPI   C3B  799   3.964  11.650   9.495  0.0506 -0.0762  0.3583
   50loPI   C4B  800   3.982  11.676   9.115  0.0819  0.0919  0.0052
   51loPI    C1  801  14.486  11.755  11.494 -0.1707  0.0208 -0.0844
   51loPI    C2  802  14.288  11.408  11.519  0.2136 -0.1963  0.0333
   51loPI    C3  803  14.348  11.629  11.848 -0.0175 -0.0220 -0.0389
   51loPI   PO4  804  14.379  11.895  11.339  0.0867  0.1384 -0.0091
   51loPI   GL1  805  14.190  11.630  11.034 -0.2153  0.0155  0.1851
   51loPI   GL2  806  14.449  11.531  10.997  0.1950  0.3697  0.0419
   51loPI   C1A  807  14.075  11.541  10.600 -0.3017 -0.1606  0.1401
   51loPI   C2A  808  14.027  11.666  10.124 -0.1404  0.3785  0.2813
   51loPI   C3A  809  14.048  11.718   9.610  0.2537  0.1763  0.1710
   51loPI   C4A  810  14.108  11.668   9.151 -0.2480 -0.1166  0.1979
   51loPI   C5A  811  14.021  11.780   8.779 -0.2014  0.0644  0.1773
   51loPI   C6A  812  14.116  11.839   8.371  0.1196  0.1662 -0.0704
   51loPI   C1B  813  14.526  11.783  10.680 -0.0299 -0.0571 -0.0112
   51loPI   C2B  814  14.437  11.789  10.336 -0.1484  0.0307  0.3053
   51loPI   C3B  815  14.498  11.930   9.898  0.0410  0.1094  0.0481
   51loPI   C4B  816  14.521  11.838   9.423 -0.1633  0.1515 -0.0679
   52loPI    C1  817   1.098  11.358  11.484  0.1481  0.0486 -0.1405
   52loPI    C2  818   0.945  11.672  11.679  0.0815 -0.0670 -0.0042
   52loPI    C3  819   1.337  11.656  11.602  0.0919  0.0281  0.0278
   52loPI   PO4  820   0.988  11.306  11.297 -0.0153 -0.0292 -0.1624
   52loPI   GL1  821   1.024  11.303  10.932 -0.4376 -0.0434 -0.1444
   52loPI   GL2  822   0.758  11.116  10.796 -0.0020 -0.1424  0.1758
   52loPI   C1A  823   1.188  11.302  10.536  0.0349  0.1940 -0.2005
   52loPI   C2A  824   1.248  11.339  10.094 -0.2472 -0.0301 -0.0149
   52loPI   C3A  825   1.140  11.409   9.620  0.0920 -0.2466 -0.1433
   52loPI   C4A  826   1.187  11.302   9.179 -0.0406  0.0287  0.0448
   52loPI   C5A  827   1.021  11.491   8.740 -0.0699  0.0483  0.3194
   52loPI   C6A  828   1.042  11.955   8.678  0.1234 -0.0354  0.1230
   52loPI   C1B  829   0.760  11.164  10.313 -0.1736  0.2079  0.0102
   52loPI   C2B  830   0.697  11.128   9.938  0.0736 -0.0925 -0.1010
   52loPI   C3B  831   0.702  11.229   9.552  0.0713  0.1277  0.0974
   52loPI   C4B  832   0.721  11.200   9.089 -0.1362  0.0825 -0.0428
   53loPI    C1  833  10.785  14.402  11.661 -0.0772 -0.2154 -0.1609
   53loPI    C2  834  10.790  14.126  11.951 -0.0536 -0.0662 -0.0179
   53loPI    C3  835  11.043  14.435  11.965 -0.1004 -0.0207 -0.1615
   53loPI   PO4  836  10.821  14.303  11.407  0.0278 -0.1559  0.0005
   53loPI   GL1  837  10.972  14.488  11.046 -0.1499 -0.0602 -0.0420
   53loPI   GL2  838  10.927  14.406  10.705 -0.5138  0.0611 -0.2320
   53loPI   C1A  839  11.035  14.849  10.907 -0.1526 -0.1502  0.3596
   53loPI   C2A  840  11.001  14.866  10.394  0.0333  0.0040  0.0623
   53loPI   C3A  841  11.070  14.918   9.988  0.1572  0.0834 -0.0648
   53loPI   C4A  842  11.154  14.927   9.529 -0.1813  0.1228 -0.3502
   53loPI   C5A  843  11.390  15.062   9.165 -0.0911 -0.1136  0.2367
   53loPI   C6A  844  11.551  15.213   8.828  0.2015 -0.0597  0.3575
   53loPI   C1B  845  11.006  14.347  10.237 -0.1615 -0.0395  0.2948
   53loPI   C2B  846  11.027  14.345   9.770  0.0207  0.0385 -0.2359
   53loPI   C3B  847  11.046  14.362   9.334 -0.3461  0.2793 -0.0730
   53loPI   C4B  848  10.986  14.358   8.885 -0.2019 -0.1805 -0.4313
   54loPI    C1  849  16.811   6.312  11.627 -0.0471  0.1154  0.1889
   54loPI    C2  850  17.186   6.385  11.746  0.1023 -0.0574 -0.1594
   54loPI    C3  851  17.007   6.041  11.846 -0.0633  0.1341  0.2269
   54loPI   PO4  852  16.787   6.348  11.279  0.0381  0.1493  0.0628
   54loPI   GL1  853  16.863   6.575  10.893  0.4582  0.0321 -0.1409
   54loPI   GL2  854  16.829   6.294  10.761 -0.0299  0.0367 -0.1817
   54loPI   C1A  855  16.569   6.738  10.681  0.1580 -0.3248 -0.0623
   54loPI   C2A  856  16.623   6.834  10.267  0.2001  0.2502 -0.1929
   54loPI   C3A  857  16.632   6.775   9.788  0.0407 -0.3330 -0.2234
   54loPI   C4A  858  16.567   6.797   9.313 -0.3601 -0.0157 -0.1988
   54loPI   C5A  859  16.617   6.702   8.853  0.3302 -0.0048 -0.1756
   54loPI   C6A  860  16.643   6.719   8.431 -0.1841  0.1421 -0.0361
   54loPI   C1B  861  16.906   6.364  10.390  0.0819  0.2883  0.0846
   54loPI   C2B  862  16.910   6.373   9.984  0.1205 -0.1824  0.0465
   54loPI   C3B  863  16.995   6.418   9.624 -0.0687  0.0425 -0.1319
   54loPI   C4B  864  17.023   6.503   9.222  0.1505  0.0502 -0.0069
   55loPI    C1  865  10.299  14.726  11.627 -0.0944  0.0232 -0.2241
   55loPI    C2  866  10.138  14.792  11.987  0.0208 -0.1682 -0.1355
   55loPI    C3  867  10.352  15.079  11.808  0.1645 -0.1537  0.0558
   55loPI   PO4  868  10.034  14.585  11.515 -0.1060 -0.1104  0.0877
   55loPI   GL1  869  10.015  14.718  11.081  0.1312 -0.2858  0.1165
   55loPI   GL2  870   9.692  14.935  10.894 -0.0631 -0.0174  0.0165
   55loPI   C1A  871  10.064  14.645  10.655 -0.0468 -0.3258 -0.0032
   55loPI   C2A  872  10.130  14.529  10.172 -0.2647 -0.0367  0.1812
   55loPI   C3A  873  10.126  14.590   9.740  0.2136  0.1167 -0.0151
   55loPI   C4A  874  10.158  14.657   9.363 -0.0597  0.2925 -0.0894
   55loPI   C5A  875  10.215  14.610   8.905 -0.3872  0.0420 -0.2094
   55loPI   C6A  876  10.257  14.565   8.445  0.1801 -0.1237  0.1370
   55loPI   C1B  877   9.722  14.959  10.444  0.2876 -0.2117 -0.0391
   55loPI   C2B  878   9.779  14.939  10.023  0.2430  0.1718 -0.0869
   55loPI   C3B  879   9.779  15.072   9.517 -0.0526 -0.0489  0.0803
   55loPI   C4B  880   9.860  14.885   9.066  0.0445 -0.0615 -0.1477
   56loPI    C1  881   5.899   4.575  11.340 -0.0319  0.0244  0.2642
   56loPI    C2  882   5.510   4.488  11.377 -0.0783  0.2396  0.2938
   56loPI    C3  883   5.780   4.289  11.594 -0.1297 -0.2123 -0.0409
   56loPI   PO4  884   5.936   4.601  11.121  0.0234 -0.0478  0.2121
   56loPI   GL1  885   5.647   4.733  10.727  0.0623 -0.0075  0.1077
   56loPI   GL2  886   5.491   4.446  10.780 -0.1004  0.0473  0.1692
   56loPI   C1A  887   5.654   4.740  10.303 -0.4324 -0.0721  0.2494
   56loPI   C2A  888   5.582   4.770   9.853 -0.0348  0.0182 -0.0514
   56loPI   C3A  889   5.508   4.843   9.470 -0.1936  0.0849  0.1117
   56loPI   C4A  890   5.640   4.840   9.069  0.0069  0.1371  0.0271
   56loPI   C5A  891   5.629   4.670   8.594 -0.1958 -0.1173 -0.1168
   56loPI   C6A  892   5.639   4.845   8.179  0.1391  0.0190 -0.2259
   56loPI   C1B  893   5.525   4.234  10.409  0.1717  0.2597  0.0147
   56loPI   C2B  894   5.456   4.259   9.933 -0.0001 -0.0594 -0.0662
   56loPI   C3B  895   5.392   4.337   9.450  0.1624 -0.0617 -0.1029
   56loPI   C4B  896   5.532   4.369   9.057  0.0387  0.2053 -0.0466
   57loPI    C1  897   1.850   9.841  11.379  0.1231 -0.0947 -0.1151
   57loPI    C2  898   2.134   9.980  11.624  0.0574  0.0359 -0.1122
   57loPI    C3  899   1.750   9.990  11.736  0.0183  0.1785 -0.2553
   57loPI   PO4  900   1.945   9.749  11.089  0.2327 -0.3152 -0.3960
   57loPI   GL1  901   1.851   9.970  10.711 -0.2650 -0.2882  0.0375
   57loPI   GL2  902   1.812  10.297  10.813  0.1181  0.0671 -0.2728
   57loPI   C1A  903   1.833  10.117  10.303  0.0517 -0.1560  0.0521
   57loPI   C2A  904   1.811  10.181   9.876 -0.4101  0.0236  0.0736
   57loPI   C3A  905   1.767  10.125   9.338 -0.1072  0.0663  0.0601
   57loPI   C4A  906   1.818  10.143   8.903 -0.3262 -0.1711 -0.1283
   57loPI   C5A  907   1.953  10.479   8.760  0.1774  0.1390  0.1057
   57loPI   C6A  908   1.884  10.852   8.763  0.1108 -0.1473  0.1673
   57loPI   C1B  909   1.940  10.559  10.476 -0.2274  0.0132  0.2740
   57loPI   C2B  910   1.910  10.657  10.030  0.0932  0.0741 -0.2904
   57loPI   C3B  911   1.798  10.692   9.672 -0.1174 -0.1818 -0.2401
   57loPI   C4B  912   1.990  10.675   9.228 -0.1969  0.4479 -0.3375
   58loPI    C1  913   2.371   3.359  11.351 -0.3276 -0.0512 -0.1948
   58loPI    C2  914   2.142   3.275  11.668 -0.0366  0.0931  0.0583
   58loPI    C3  915   2.487   3.080  11.613 -0.1835 -0.0782 -0.2865
   58loPI   PO4  916   2.210   3.322  11.174 -0.0401 -0.0617 -0.0738
   58loPI   GL1  917   2.153   3.189  10.813 -0.0792  0.1335 -0.0248
   58loPI   GL2  918   2.310   2.915  10.815 -0.1381 -0.0406  0.2443
   58loPI   C1A  919   2.050   3.167  10.425 -0.1773 -0.2768 -0.0318
   58loPI   C2A  920   2.046   3.156   9.974 -0.0267 -0.0804 -0.3084
   58loPI   C3A  921   1.986   3.237   9.572 -0.1681 -0.2229  0.1199
   58loPI   C4A  922   2.033   3.274   9.098 -0.0860  0.2329  0.1242
   58loPI   C5A  923   2.343   3.317   8.795 -0.3317  0.0223  0.0328
   58loPI   C6A  924   2.605   3.104   8.442 -0.1003  0.3246  0.1995
   58loPI   C1B  925   2.426   2.843  10.341  0.2111 -0.1773  0.2139
   58loPI   C2B  926   2.367   2.812   9.909 -0.0738  0.1373 -0.2654
   58loPI   C3B  927   2.388   2.903   9.482 -0.1971  0.1516 -0.1414
   58loPI   C4B  928   2.423   2.891   9.050 -0.0938 -0.1649 -0.2067
   59loPI    C1  929   6.257   1.292  11.479 -0.1054  0.0402 -0.0546
   59loPI    C2  930   6.200   0.964  11.701 -0.2302  0.0782 -0.0292
   59loPI    C3  931   6.359   1.293  11.866  0.2130 -0.0753 -0.1354
   59loPI   PO4  932   6.022   1.301  11.308 -0.1209  0.0599 -0.0935
   59loPI   GL1  933   5.906   1.081  10.930  0.1129 -0.1339 -0.1235
   59loPI   GL2  934   6.149   1.111  10.768  0.1771  0.2566 -0.0226
   59loPI   C1A  935   5.683   0.975  10.584  0.0192 -0.0583 -0.2397
   59loPI   C2A  936   5.649   1.059  10.166 -0.1596 -0.1330 -0.0895
   59loPI   C3A  937   5.648   1.030   9.715 -0.1784  0.2566 -0.0849
   59loPI   C4A  938   5.604   1.082   9.209 -0.0564 -0.1763  0.1946
   59loPI   C5A  939   5.549   1.217   8.816  0.1729 -0.0516 -0.0876
   59loPI   C6A  940   5.500   1.285   8.375  0.0305  0.0656 -0.3312
   59loPI   C1B  941   6.157   1.149  10.349 -0.1324 -0.1476  0.3089
   59loPI   C2B  942   6.086   1.252   9.868  0.2069 -0.0502 -0.0242
   59loPI   C3B  943   6.135   1.233   9.400  0.0668  0.1675  0.1982
   59loPI   C4B  944   6.021   1.325   8.977 -0.3224  0.1975 -0.0884
   60loPI    C1  945   8.375   0.167  11.436  0.2403 -0.1332 -0.1204
   60loPI    C2  946   8.201  -0.052  11.721  0.1779 -0.2442 -0.2424
   60loPI    C3  947   8.557   0.118  11.788 -0.0327  0.0945  0.0568
   60loPI   PO4  948   8.162  -0.005  11.142 -0.0498 -0.0746  0.1371
   60loPI   GL1  949   8.113   0.091  10.788 -0.0534 -0.2028 -0.3288
   60loPI   GL2  950   7.851   0.281  10.686  0.0919  0.0600 -0.2492
   60loPI   C1A  951   8.196  -0.080  10.381  0.1300 -0.2510  0.1542
   60loPI   C2A  952   8.085  -0.054   9.949  0.0637  0.3627  0.2192
   60loPI   C3A  953   8.089  -0.023   9.503 -0.0583  0.0401 -0.1676
   60loPI   C4A  954   8.015   0.034   9.123 -0.0929  0.1046  0.1442
   60loPI   C5A  955   7.912   0.075   8.687  0.1632  0.0918 -0.0808
   60loPI   C6A  956   7.706  -0.074   8.318  0.3584 -0.2846 -0.0396
   60loPI   C1B  957   7.771   0.329  10.287 -0.1521  0.0741 -0.2582
   60loPI   C2B  958   7.681   0.249   9.880  0.1926 -0.0133 -0.0175
   60loPI   C3B  959   7.666   0.328   9.477  0.2626  0.1146  0.0308
   60loPI   C4B  960   7.702   0.425   9.036 -0.1136 -0.3999 -0.1031
   61loPI    C1  961  12.638   3.478  11.705 -0.2338 -0.0825 -0.0644
   61loPI    C2  962  12.817   3.829  11.771 -0.2047 -0.1176  0.0463
   61loPI    C3  963  12.730   3.589  12.078 -0.0518 -0.2924 -0.0448
   61loPI   PO4  964  12.626   3.406  11.467 -0.1335 -0.1201  0.2850
   61loPI   GL1  965  12.727   3.377  10.991 -0.1209  0.2534  0.1378
   61loPI   GL2  966  12.595   3.033  11.083 -0.1904  0.0196  0.0469
   61loPI   C1A  967  12.973   3.311  10.751 -0.2902  0.2005 -0.3873
   61loPI   C2A  968  13.039   3.308  10.343  0.3010  0.2757 -0.4073
   61loPI   C3A  969  13.021   3.316   9.969 -0.0224  0.1049 -0.0479
   61loPI   C4A  970  13.028   3.354   9.520 -0.0053 -0.3383 -0.2266
   61loPI   C5A  971  13.051   3.407   9.090  0.1800 -0.0483 -0.1986
   61loPI   C6A  972  13.376   3.209   8.790  0.1966 -0.2295  0.6483
   61loPI   C1B  973  12.437   2.747  10.742  0.0608  0.0626 -0.2936
   61loPI   C2B  974  12.400   2.704  10.284 -0.1209  0.1141 -0.0994
   61loPI   C3B  975  12.407   2.650   9.844  0.0356  0.2389  0.1254
   61loPI   C4B  976  12.339   2.722   9.414  0.0527  0.2226 -0.0209
   62loPI    C1  977  11.161   2.400  11.279  0.0570  0.0300  0.1271
   62loPI    C2  978  10.781   2.279  11.264  0.0245  0.1480 -0.0355
   62loPI    C3  979  10.930   2.428  11.604  0.0011 -0.1346  0.1019
   62loPI   PO4  980  11.226   2.387  11.064 -0.0131  0.2682  0.0897
   62loPI   GL1  981  11.185   2.646  10.733 -0.3326 -0.0943  0.1643
   62loPI   GL2  982  11.456   2.467  10.662  0.1134  0.0061  0.0328
   62loPI   C1A  983  10.980   2.764  10.358  0.0204 -0.1669 -0.2015
   62loPI   C2A  984  10.991   2.772   9.983 -0.0547 -0.2558  0.0504
   62loPI   C3A  985  11.015   2.748   9.604 -0.0844  0.4228 -0.1560
   62loPI   C4A  986  10.990   2.751   9.128 -0.1338 -0.0655 -0.3934
   62loPI   C5A  987  10.902   2.733   8.715  0.0273  0.0677 -0.2517
   62loPI   C6A  988  10.935   2.861   8.302  0.0484  0.0438 -0.1133
   62loPI   C1B  989  11.433   2.438  10.212  0.1197 -0.0885 -0.1950
   62loPI   C2B  990  11.414   2.412   9.777 -0.4097  0.0837 -0.0652
   62loPI   C3B  991  11.430   2.447   9.402 -0.1106 -0.0527 -0.1688
   62loPI   C4B  992  11.392   2.491   8.911  0.0719 -0.0367 -0.0082
   63loPI    C1  993   3.040   5.238  11.249  0.1351 -0.0650 -0.1466
   63loPI    C2  994   2.691   5.362  11.398  0.0450 -0.5441  0.0622
   63loPI    C3  995   2.995   5.279  11.644  0.3332 -0.0763 -0.1217
   63loPI   PO4  996   2.910   5.082  10.996 -0.0451  0.3237  0.1228
   63loPI   GL1  997   2.998   5.258  10.563 -0.0590  0.1616 -0.0475
   63loPI   GL2  998   3.322   5.444  10.456 -0.3966 -0.0007  0.1512
   63loPI   C1A  999   2.932   5.338  10.082  0.3832  0.1458 -0.0265
   63loPI   C2A 1000   2.998   5.426   9.674 -0.1432  0.2321  0.2212
   63loPI   C3A 1001   3.055   5.391   9.203  0.2292 -0.3815  0.0203
   63loPI   C4A 1002   3.025   5.455   8.789  0.1490  0.4671 -0.1950
   63loPI   C5A 1003   2.647   5.585   8.631 -0.0402 -0.2629 -0.1110
   63loPI   C6A 1004   2.571   5.636   8.309  0.0982 -0.1732 -0.1789
   63loPI   C1B 1005   3.464   5.515  10.019 -0.1833 -0.3419 -0.1371
   63loPI   C2B 1006   3.478   5.544   9.560 -0.1407  0.2926  0.0444
   63loPI   C3B 1007   3.505   5.648   9.202 -0.0065 -0.1666 -0.3038
   63loPI   C4B 1008   3.526   5.527   8.712  0.1100  0.0534 -0.0032
   64loPI    C1 1009   3.831   9.363  11.325 -0.1946 -0.1037  0.0944
   64loPI    C2 1010   3.787   9.488  11.703 -0.0646  0.0207  0.0695
   64loPI    C3 1011   4.137   9.537  11.516 -0.0635 -0.2308  0.0021
   64loPI   PO4 1012   3.662   9.431  11.205 -0.3042  0.1488 -0.0561
   64loPI   GL1 1013   3.742   9.343  10.804 -0.2705 -0.3367 -0.1842
   64loPI   GL2 1014   4.046   9.116  10.800  0.0003 -0.0517  0.4099
   64loPI   C1A 1015   3.486   9.229  10.445 -0.1673 -0.0503  0.0580
   64loPI   C2A 1016   3.445   9.195  10.023  0.1132 -0.0749  0.1909
   64loPI   C3A 1017   3.349   9.289   9.664  0.0428 -0.2464 -0.0934
   64loPI   C4A 1018   3.399   9.222   9.207  0.2214  0.3893 -0.1773
   64loPI   C5A 1019   3.450   9.221   8.739  0.0580 -0.0620 -0.1434
   64loPI   C6A 1020   3.456   9.481   8.377 -0.1238  0.1417 -0.0939
   64loPI   C1B 1021   3.970   9.316  10.354 -0.0279  0.4236  0.0202
   64loPI   C2B 1022   3.969   9.415   9.866 -0.1531  0.0836  0.1016
   64loPI   C3B 1023   3.897   9.415   9.421  0.1552  0.2859 -0.0514
   64loPI   C4B 1024   3.901   9.300   9.029 -0.3697 -0.0457 -0.0772
   65loPI    C1 1025   8.919   8.602  11.446  0.1122 -0.0541 -0.0957
   65loPI    C2 1026   9.265   8.421  11.535  0.1159  0.1200  0.2633
   65loPI    C3 1027   8.929   8.316  11.726 -0.0138  0.0235 -0.0112
   65loPI   PO4 1028   8.991   8.672  11.152 -0.1298  0.0301 -0.0894
   65loPI   GL1 1029   8.912   8.509  10.736 -0.2838  0.0723  0.1317
   65loPI   GL2 1030   8.720   8.290  10.771  0.0541  0.2360 -0.2850
   65loPI   C1A 1031   8.830   8.502  10.317  0.1787  0.2312  0.2292
   65loPI   C2A 1032   8.708   8.509   9.820  0.2239  0.2219  0.0206
   65loPI   C3A 1033   8.830   8.563   9.404 -0.3278  0.2523 -0.1864
   65loPI   C4A 1034   8.667   8.595   9.044 -0.1592 -0.0795  0.0136
   65loPI   C5A 1035   8.813   8.671   8.670 -0.0814 -0.0986 -0.2113
   65loPI   C6A 1036   9.171   8.760   8.352 -0.3006  0.0406  0.0685
   65loPI   C1B 1037   9.032   8.082  10.486 -0.0180  0.0661  0.1279
   65loPI   C2B 1038   9.041   8.165  10.029 -0.0656  0.1210  0.0055
   65loPI   C3B 1039   9.133   8.185   9.512 -0.1239 -0.2646 -0.1400
   65loPI   C4B 1040   9.100   8.234   9.078 -0.1762  0.2626  0.0911
   66loPI    C1 1041  10.457  15.518  11.595 -0.2161  0.1064 -0.3281
   66loPI    C2 1042  10.616  15.420  11.948 -0.2008  0.0155 -0.3597
   66loPI    C3 1043  10.535  15.803  11.864 -0.0650  0.0545 -0.3161
   66loPI   PO4 1044  10.613  15.376  11.432 -0.0507  0.3586  0.0459
   66loPI   GL1 1045  10.889  15.478  11.135  0.1659 -0.1134  0.0557
   66loPI   GL2 1046  10.729  15.290  10.957 -0.4399 -0.0375 -0.2358
   66loPI   C1A 1047  11.136  15.327  10.754 -0.2783 -0.1525 -0.1155
   66loPI   C2A 1048  11.202  15.382  10.379 -0.2538 -0.0565  0.1708
   66loPI   C3A 1049  11.195  15.392   9.974 -0.0576  0.0256 -0.1366
   66loPI   C4A 1050  11.259  15.423   9.491  0.2082  0.1257  0.0344
   66loPI   C5A 1051  11.199  15.518   9.113 -0.2952  0.3903  0.3253
   66loPI   C6A 1052  11.522  15.810   8.930 -0.4722  0.0138 -0.0165
   66loPI   C1B 1053  10.731  15.207  10.555 -0.3079  0.3165 -0.2729
   66loPI   C2B 1054  10.697  15.208  10.197  0.1241  0.1186  0.3105
   66loPI   C3B 1055  10.764  15.227   9.754  0.0908 -0.0493  0.0097
   66loPI   C4B 1056  10.764  15.284   9.343 -0.3890  0.2971 -0.1925
   67loPI    C1 1057  12.897   8.065  11.519  0.2520  0.1719 -0.0875
   67loPI    C2 1058  13.034   8.385  11.715  0.0599  0.2323 -0.0497
   67loPI    C3 1059  12.930   8.057  11.918  0.1804  0.1738 -0.0815
   67loPI   PO4 1060  12.727   8.145  11.363 -0.0257 -0.0434  0.2503
   67loPI   GL1 1061  12.750   7.984  10.983 -0.0010  0.1509  0.0250
   67loPI   GL2 1062  13.024   7.767  11.098 -0.3538  0.1396  0.1658
   67loPI   C1A 1063  12.720   7.933  10.465 -0.0672  0.0401 -0.0521
   67loPI   C2A 1064  12.750   7.918  10.038  0.1258 -0.1319  0.1690
   67loPI   C3A 1065  12.780   8.050   9.561  0.2804 -0.3701 -0.4464
   67loPI   C4A 1066  12.720   8.103   9.159 -0.1768  0.0474 -0.2103
   67loPI   C5A 1067  12.418   8.271   8.925 -0.3821  0.0891  0.1638
   67loPI   C6A 1068  12.393   8.363   8.520 -0.0709  0.1849  0.1250
   67loPI   C1B 1069  13.175   8.111  10.662  0.2288  0.2376  0.0276
   67loPI   C2B 1070  13.213   8.094  10.146 -0.0617  0.0600  0.3052
   67loPI   C3B 1071  13.240   8.223   9.722  0.1573 -0.1029  0.0537
   67loPI   C4B 1072  13.218   8.180   9.302  0.0981 -0.0822 -0.1030
   68loPI    C1 1073  10.824   7.242  11.464 -0.0221  0.1377  0.2161
   68loPI    C2 1074  11.063   6.926  11.514  0.0217  0.1352  0.0021
   68loPI    C3 1075  11.152   7.274  11.691 -0.0439  0.0211  0.2644
   68loPI   PO4 1076  10.805   7.239  11.207  0.2478 -0.0525 -0.0589
   68loPI   GL1 1077  10.789   7.260  10.810 -0.0042  0.1710  0.0363
   68loPI   GL2 1078  11.127   7.444  10.853  0.0537 -0.1316  0.0313
   68loPI   C1A 1079  10.842   7.276  10.371 -0.0887 -0.0220  0.1722
   68loPI   C2A 1080  10.726   7.335   9.943 -0.2628  0.1962  0.0149
   68loPI   C3A 1081  10.831   7.355   9.476 -0.1019  0.1141 -0.3198
   68loPI   C4A 1082  10.973   7.098   9.198 -0.3164 -0.1057 -0.1404
   68loPI   C5A 1083  11.148   7.115   8.718  0.4379 -0.0849 -0.0800
   68loPI   C6A 1084  11.151   6.936   8.276 -0.0383 -0.1725  0.1121
   68loPI   C1B 1085  11.301   7.343  10.474 -0.2175 -0.3754  0.1251
   68loPI   C2B 1086  11.261   7.429   9.998 -0.2108  0.1023  0.0581
   68loPI   C3B 1087  11.290   7.479   9.645 -0.1764  0.1734 -0.1255
   68loPI   C4B 1088  11.263   7.560   9.205  0.2808 -0.1080 -0.0163
   69loPI    C1 1089   8.098   6.728  11.529  0.1103  0.1591  0.5589
   69loPI    C2 1090   8.446   6.537  11.578  0.0813 -0.0885 -0.1084
   69loPI    C3 1091   8.104   6.364  11.693  0.1086 -0.1923 -0.1816
   69loPI   PO4 1092   8.085   6.790  11.284  0.1239 -0.0244  0.0316
   69loPI   GL1 1093   8.002   6.789  10.831 -0.0113 -0.2379  0.3480
   69loPI   GL2 1094   7.965   6.466  10.847 -0.0642  0.0691  0.0605
   69loPI   C1A 1095   7.915   6.777  10.397  0.1266  0.3558  0.2069
   69loPI   C2A 1096   7.878   6.814  10.009 -0.2433  0.3253  0.3304
   69loPI   C3A 1097   7.911   6.930   9.511  0.2580  0.1099 -0.0470
   69loPI   C4A 1098   7.948   6.926   9.041 -0.2339  0.4894  0.4678
   69loPI   C5A 1099   7.752   6.935   8.563  0.2509 -0.0388 -0.0249
   69loPI   C6A 1100   7.544   6.948   8.198 -0.4091  0.4025 -0.1561
   69loPI   C1B 1101   7.838   6.254  10.450 -0.1086  0.0139 -0.2050
   69loPI   C2B 1102   7.753   6.295   9.940  0.1736 -0.2695 -0.3930
   69loPI   C3B 1103   7.809   6.431   9.507  0.4089  0.0392  0.0425
   69loPI   C4B 1104   7.816   6.458   9.080 -0.1563  0.1328 -0.0759
   70loPI    C1 1105  11.429   6.596  11.139 -0.1355 -0.1571 -0.0845
   70loPI    C2 1106  11.482   6.276  11.374 -0.0220  0.0942  0.2391
   70loPI    C3 1107  11.488   6.644  11.532 -0.0530  0.2638 -0.1440
   70loPI   PO4 1108  11.580   6.647  10.890  0.1383 -0.0432 -0.0434
   70loPI   GL1 1109  11.434   6.909  10.602  0.2095  0.1049 -0.1463
   70loPI   GL2 1110  11.699   7.106  10.694 -0.0685  0.1601 -0.1257
   70loPI   C1A 1111  11.221   6.922  10.274  0.1981  0.0249 -0.0496
   70loPI   C2A 1112  11.076   6.931   9.857 -0.1704 -0.0219  0.1726
   70loPI   C3A 1113  11.110   6.717   9.516  0.3025 -0.0488  0.2564
   70loPI   C4A 1114  11.249   6.718   9.112  0.2941 -0.1019  0.1424
   70loPI   C5A 1115  11.211   6.504   8.683  0.0143  0.2038  0.0890
   70loPI   C6A 1116  11.189   6.149   8.475  0.2527 -0.0924  0.1853
   70loPI   C1B 1117  11.727   7.067  10.219  0.0875  0.0497  0.1178
   70loPI   C2B 1118  11.671   7.127   9.780  0.0904 -0.2417 -0.1134
   70loPI   C3B 1119  11.475   7.103   9.399  0.2285  0.2620 -0.1641
   70loPI   C4B 1120  11.601   7.251   8.972 -0.1457 -0.0230 -0.0128
   71loPI    C1 1121  15.183  14.704  11.463  0.0846 -0.3148  0.1926
   71loPI    C2 1122  14.818  14.830  11.569  0.1079  0.1042 -0.1888
   71loPI    C3 1123  14.960  14.483  11.709 -0.3863 -0.0072  0.0566
   71loPI   PO4 1124  15.139  14.729  11.214  0.0313  0.2109  0.1688
   71loPI   GL1 1125  15.170  14.702  10.853 -0.0091  0.1037  0.2987
   71loPI   GL2 1126  15.115  14.345  10.848 -0.2440 -0.0640  0.1466
   71loPI   C1A 1127  15.227  14.824  10.390  0.2249 -0.0564  0.1369
   71loPI   C2A 1128  15.206  14.901   9.895 -0.3754  0.0736 -0.0258
   71loPI   C3A 1129  15.126  14.819   9.446 -0.0472  0.1148 -0.1201
   71loPI   C4A 1130  15.020  14.768   8.974 -0.0847 -0.3170  0.0287
   71loPI   C5A 1131  14.894  14.864   8.565  0.2578  0.0432  0.1817
   71loPI   C6A 1132  14.473  14.969   8.237  0.0717 -0.0557 -0.0023
   71loPI   C1B 1133  15.035  14.284  10.442  0.0116 -0.1715  0.1987
   71loPI   C2B 1134  15.053  14.310   9.975  0.0923 -0.0519 -0.0351
   71loPI   C3B 1135  15.025  14.345   9.583  0.0893  0.1542 -0.2436
   71loPI   C4B 1136  15.142  14.393   9.230 -0.0203  0.1813 -0.0533
   72loPI    C1 1137  16.592  13.831  11.640 -0.0877 -0.1992  0.0277
   72loPI    C2 1138  16.407  14.100  11.871 -0.1127 -0.3306  0.1622
   72loPI    C3 1139  16.545  13.761  12.031 -0.0052 -0.3598  0.0094
   72loPI   PO4 1140  16.386  13.953  11.398  0.0337 -0.2360 -0.0573
   72loPI   GL1 1141  16.246  13.839  10.971  0.1250  0.0623  0.0664
   72loPI   GL2 1142  15.982  14.093  10.885  0.0060 -0.0917 -0.2583
   72loPI   C1A 1143  16.292  13.743  10.553  0.0252 -0.0577 -0.1631
   72loPI   C2A 1144  16.292  13.834  10.135 -0.0733 -0.3208  0.2075
   72loPI   C3A 1145  16.272  13.825   9.733 -0.0825 -0.1121 -0.1802
   72loPI   C4A 1146  16.321  13.720   9.367  0.1108 -0.0146 -0.1070
   72loPI   C5A 1147  16.226  13.839   8.955 -0.0099  0.0008 -0.0313
   72loPI   C6A 1148  16.238  14.333   8.910  0.0351  0.3430 -0.1695
   72loPI   C1B 1149  15.949  14.124  10.345  0.2392 -0.2542  0.3230
   72loPI   C2B 1150  15.897  14.136   9.853  0.0242  0.1474  0.1216
   72loPI   C3B 1151  15.953  13.994   9.449  0.0549 -0.1546  0.1862
   72loPI   C4B 1152  15.805  14.131   9.110  0.1161  0.4255 -0.2035
   73loPI    C1 1153  13.911  15.435  11.934 -0.3022  0.2146 -0.0215
   73loPI    C2 1154  14.071  15.219  12.229  0.2186  0.2753 -0.2494
   73loPI    C3 1155  14.037  15.616  12.267  0.1995  0.2722 -0.2339
   73loPI   PO4 1156  14.053  15.331  11.668  0.2698 -0.0018  0.1982
   73loPI   GL1 1157  14.082  15.272  11.276  0.1593 -0.1493  0.1278
   73loPI   GL2 1158  13.955  15.319  10.979  0.2812  0.2586 -0.3421
   73loPI   C1A 1159  14.365  15.397  10.861  0.0454 -0.0259 -0.1101
   73loPI   C2A 1160  14.436  15.523  10.461 -0.1022  0.0620 -0.0293
   73loPI   C3A 1161  14.430  15.557   9.993  0.1079 -0.2152  0.0052
   73loPI   C4A 1162  14.524  15.576   9.573 -0.0709  0.2080  0.0495
   73loPI   C5A 1163  14.419  15.501   9.126  0.0475 -0.2212 -0.2601
   73loPI   C6A 1164  14.512  15.238   8.736  0.3334  0.0743 -0.1786
   73loPI   C1B 1165  13.998  15.229  10.608  0.2917 -0.1369 -0.1251
   73loPI   C2B 1166  13.989  15.359  10.162  0.2477 -0.0437 -0.1197
   73loPI   C3B 1167  14.005  15.417   9.716  0.1729  0.2757 -0.1793
   73loPI   C4B 1168  13.924  15.404   9.238  0.4296 -0.1607 -0.2054
   74loPI    C1 1169   2.940  10.044  11.393 -0.1400  0.0520 -0.1586
   74loPI    C2 1170   2.636   9.976  11.644  0.0110 -0.2076 -0.0418
   74loPI    C3 1171   3.007  10.024  11.787  0.0312  0.0838 -0.1851
   74loPI   PO4 1172   2.850  10.199  11.243  0.1324 -0.0199 -0.1758
   74loPI   GL1 1173   2.929  10.254  10.857  0.1607  0.0902 -0.0855
   74loPI   GL2 1174   2.815  10.518  10.764 -0.1877 -0.0926  0.0840
   74loPI   C1A 1175   2.779   9.984  10.551  0.1388  0.0575  0.1161
   74loPI   C2A 1176   2.754   9.924  10.185  0.1119  0.0909 -0.0821
   74loPI   C3A 1177   2.676   9.910   9.753  0.4919  0.1871 -0.3309
   74loPI   C4A 1178   2.643   9.912   9.219  0.4130  0.0171 -0.0333
   74loPI   C5A 1179   2.693   9.901   8.825 -0.0660 -0.1505  0.0656
   74loPI   C6A 1180   2.885  10.138   8.514  0.1343 -0.2426 -0.0241
   74loPI   C1B 1181   2.879  10.435  10.300  0.2118 -0.0292  0.0762
   74loPI   C2B 1182   2.844  10.436   9.833  0.0210  0.1121 -0.1389
   74loPI   C3B 1183   2.733  10.365   9.465  0.1915 -0.0299  0.0451
   74loPI   C4B 1184   2.858  10.472   9.052 -0.2215 -0.0339  0.1642
   75loPI    C1 1185   8.350   1.683  11.564 -0.0214  0.0858 -0.2249
   75loPI    C2 1186   8.095   1.805  11.847  0.1901  0.2456 -0.1004
   75loPI    C3 1187   8.437   2.004  11.786  0.3176 -0.0052 -0.2207
   75loPI   PO4 1188   8.388   1.415  11.492  0.2174  0.1248  0.3058
   75loPI   GL1 1189   8.232   1.375  11.011  0.0038  0.1108 -0.0682
   75loPI   GL2 1190   7.896   1.388  10.932 -0.0975 -0.1489  0.1636
   75loPI   C1A 1191   8.396   1.147  10.666  0.1651  0.2818  0.0789
   75loPI   C2A 1192   8.424   0.998  10.270  0.1264  0.0778  0.0923
   75loPI   C3A 1193   8.252   0.924   9.858  0.0188 -0.0214 -0.0175
   75loPI   C4A 1194   8.289   0.968   9.476  0.1526  0.1011 -0.3249
   75loPI   C5A 1195   8.283   1.042   8.982  0.0883 -0.2300 -0.2537
   75loPI   C6A 1196   8.120   1.315   8.590  0.3270  0.0093  0.0793
   75loPI   C1B 1197   7.955   1.255  10.414 -0.0378  0.0952  0.0193
   75loPI   C2B 1198   7.879   1.249   9.941 -0.1090 -0.4038  0.0051
   75loPI   C3B 1199   7.856   1.372   9.464  0.2265 -0.2003 -0.2313
   75loPI   C4B 1200   7.883   1.400   9.077  0.1262  0.0886 -0.0642
   76loPI    C1 1201  12.455  14.130  11.705  0.1411 -0.0022 -0.1742
   76loPI    C2 1202  12.648  14.341  11.985  0.1572 -0.1098 -0.1037
   76loPI    C3 1203  12.355  14.090  12.090 -0.0656  0.0986 -0.2161
   76loPI   PO4 1204  12.674  14.075  11.555  0.0026 -0.0107 -0.3734
   76loPI   GL1 1205  12.685  14.082  11.165 -0.0291 -0.2217 -0.3064
   76loPI   GL2 1206  12.342  14.007  11.181 -0.3720 -0.0804 -0.1715
   76loPI   C1A 1207  12.788  14.049  10.693 -0.0531 -0.0374 -0.1230
   76loPI   C2A 1208  12.686  14.028  10.312  0.0154  0.4236 -0.0891
   76loPI   C3A 1209  12.684  14.042   9.861  0.0945  0.0395  0.0689
   76loPI   C4A 1210  12.755  13.975   9.460 -0.1459  0.3491  0.1535
   76loPI   C5A 1211  12.791  14.078   9.089 -0.3828 -0.1295  0.2120
   76loPI   C6A 1212  12.844  14.544   8.880  0.0873 -0.0027 -0.0222
   76loPI   C1B 1213  12.357  13.843  10.818  0.0547  0.4131  0.1825
   76loPI   C2B 1214  12.232  13.852  10.430  0.2123  0.1228 -0.0366
   76loPI   C3B 1215  12.201  13.911  10.006  0.4372 -0.0855 -0.2184
   76loPI   C4B 1216  12.251  13.851   9.520 -0.0295 -0.0791 -0.0675
   77loPI    C1 1217   4.632  14.111  11.679  0.0152  0.0678 -0.1161
   77loPI    C2 1218   4.666  13.866  11.993  0.0587  0.0180 -0.1594
   77loPI    C3 1219   4.653  14.261  12.049 -0.3831 -0.0053 -0.0593
   77loPI   PO4 1220   4.561  13.902  11.490  0.3246 -0.0485  0.2732
   77loPI   GL1 1221   4.752  13.806  11.146 -0.2317  0.0747 -0.3266
   77loPI   GL2 1222   4.877  13.429  11.128 -0.0124  0.0227  0.0574
   77loPI   C1A 1223   4.488  13.736  10.844  0.0669 -0.3353 -0.2685
   77loPI   C2A 1224   4.486  13.771  10.450 -0.0319 -0.1498 -0.2339
   77loPI   C3A 1225   4.514  13.783  10.077  0.0932 -0.1106 -0.0966
   77loPI   C4A 1226   4.372  13.712   9.658  0.0412 -0.0029 -0.1226
   77loPI   C5A 1227   4.494  13.825   9.221 -0.0250 -0.0988  0.2162
   77loPI   C6A 1228   4.589  13.871   8.754  0.2288  0.0478  0.1251
   77loPI   C1B 1229   4.882  13.265  10.783 -0.2531  0.0941 -0.0500
   77loPI   C2B 1230   4.883  13.342  10.386 -0.0306  0.0635 -0.0348
   77loPI   C3B 1231   4.863  13.418   9.901  0.1726  0.0211 -0.3042
   77loPI   C4B 1232   4.823  13.355   9.482 -0.2165  0.0720 -0.0685
   78loPI    C1 1233  14.112  12.116  11.739  0.0223  0.1634 -0.0325
   78loPI    C2 1234  14.063  12.352  12.058 -0.1301 -0.0334  0.0922
   78loPI    C3 1235  14.105  11.957  12.106  0.1060 -0.0365 -0.1158
   78loPI   PO4 1236  13.882  12.253  11.487 -0.1194 -0.0362  0.1865
   78loPI   GL1 1237  14.070  12.169  11.119 -0.2115 -0.1588  0.0276
   78loPI   GL2 1238  14.078  12.490  11.079  0.1630 -0.1232  0.0255
   78loPI   C1A 1239  14.090  12.050  10.679  0.0490 -0.0468 -0.5378
   78loPI   C2A 1240  14.173  12.167  10.289  0.1931  0.0692  0.1272
   78loPI   C3A 1241  14.098  12.177   9.779  0.2688  0.2412  0.2003
   78loPI   C4A 1242  14.123  12.147   9.359  0.1678 -0.0958 -0.0708
   78loPI   C5A 1243  14.188  12.340   8.983 -0.1461 -0.2638 -0.0561
   78loPI   C6A 1244  14.129  12.709   8.762  0.1421  0.0108 -0.2729
   78loPI   C1B 1245  14.234  12.610  10.683  0.1830  0.1045 -0.0845
   78loPI   C2B 1246  14.211  12.621  10.298  0.5479 -0.2388  0.1964
   78loPI   C3B 1247  14.254  12.621   9.818  0.0609  0.0695  0.1253
   78loPI   C4B 1248  14.264  12.670   9.298  0.2103 -0.1671 -0.1498
   79loPI    C1 1249   5.430   6.245  11.175  0.1599 -0.0201  0.1429
   79loPI    C2 1250   5.392   6.591  11.372  0.3318  0.1292 -0.0822
   79loPI    C3 1251   5.411   6.247  11.574  0.0973  0.2445  0.1405
   79loPI   PO4 1252   5.566   6.299  10.987  0.1510 -0.5911  0.0353
   79loPI   GL1 1253   5.857   6.402  10.648  0.0797 -0.0753  0.2225
   79loPI   GL2 1254   5.667   6.604  10.494 -0.4417 -0.1645  0.1874
   79loPI   C1A 1255   5.984   6.277  10.261 -0.0528  0.0052 -0.2964
   79loPI   C2A 1256   5.911   6.240   9.879  0.2583  0.0999  0.0694
   79loPI   C3A 1257   5.958   6.366   9.406 -0.1838  0.1149 -0.1505
   79loPI   C4A 1258   5.942   6.399   8.976  0.0313  0.3758 -0.4158
   79loPI   C5A 1259   5.902   6.098   8.716 -0.1355 -0.4337 -0.0787
   79loPI   C6A 1260   5.927   5.760   8.516  0.0556  0.2650  0.1254
   79loPI   C1B 1261   5.628   6.689  10.062 -0.1076 -0.0776 -0.4056
   79loPI   C2B 1262   5.622   6.619   9.668  0.0396 -0.4559 -0.0634
   79loPI   C3B 1263   5.613   6.709   9.220  0.2152 -0.1156 -0.0275
   79loPI   C4B 1264   5.538   6.665   8.815 -0.0562  0.0303  0.2289
   80loPI    C1 1265   4.688   8.348  11.177 -0.0553 -0.3370 -0.1079
   80loPI    C2 1266   4.601   8.140  11.507 -0.0246 -0.0046  0.1143
   80loPI    C3 1267   4.961   8.311  11.467 -0.0790  0.0786 -0.0255
   80loPI   PO4 1268   4.591   8.188  10.991  0.1059  0.2180 -0.3345
   80loPI   GL1 1269   4.407   8.342  10.610 -0.0798  0.0105 -0.0037
   80loPI   GL2 1270   4.137   8.495  10.564  0.0164 -0.0745  0.1018
   80loPI   C1A 1271   4.611   8.212  10.312 -0.2964 -0.2870 -0.1026
   80loPI   C2A 1272   4.608   8.217   9.850  0.0089  0.1045  0.1201
   80loPI   C3A 1273   4.608   8.234   9.409 -0.5484  0.3062  0.2112
   80loPI   C4A 1274   4.532   8.269   9.039 -0.1942  0.0985 -0.1944
   80loPI   C5A 1275   4.638   8.286   8.658  0.4024  0.0334  0.2174
   80loPI   C6A 1276   4.715   8.258   8.269 -0.1527 -0.1718 -0.2082
   80loPI   C1B 1277   4.246   8.521  10.083  0.0212  0.0637 -0.1258
   80loPI   C2B 1278   4.150   8.493   9.755 -0.2936 -0.0092  0.0933
   80loPI   C3B 1279   4.186   8.547   9.318 -0.4444 -0.1358 -0.1534
   80loPI   C4B 1280   4.177   8.599   8.832 -0.0898  0.0781  0.1037
   81loPI    C1 1281   4.751  17.264  11.587  0.0317  0.1009  0.1665
   81loPI    C2 1282   5.058  17.409  11.798 -0.0006  0.1542  0.1771
   81loPI    C3 1283   4.720  17.303  11.984 -0.0028  0.1328  0.1608
   81loPI   PO4 1284   4.769  17.409  11.404  0.0745  0.1567 -0.0336
   81loPI   GL1 1285   4.811  17.527  11.017 -0.0127  0.0085 -0.1033
   81loPI   GL2 1286   5.083  17.699  10.899  0.3921  0.1265  0.1497
   81loPI   C1A 1287   4.760  17.536  10.597  0.1177 -0.3620  0.0629
   81loPI   C2A 1288   4.816  17.562  10.192  0.3363  0.2728 -0.4023
   81loPI   C3A 1289   4.818  17.619   9.772 -0.0794  0.0589  0.1346
   81loPI   C4A 1290   4.875  17.601   9.383 -0.0964 -0.0931  0.1370
   81loPI   C5A 1291   4.894  17.651   8.865 -0.1222  0.1270 -0.2340
   81loPI   C6A 1292   4.935  18.014   8.735 -0.2037  0.0543  0.5107
   81loPI   C1B 1293   5.223  17.651  10.521  0.0201  0.2776  0.0917
   81loPI   C2B 1294   5.369  17.729  10.036 -0.0895  0.1386 -0.0078
   81loPI   C3B 1295   5.383  17.780   9.618  0.0970  0.2951 -0.0452
   81loPI   C4B 1296   5.344  17.870   9.176 -0.2927  0.2211 -0.1129
   82loPI    C1 1297  16.919  14.678  11.779 -0.0674 -0.0665  0.0355
   82loPI    C2 1298  16.572  14.805  11.627  0.0663  0.1712 -0.0783
   82loPI    C3 1299  16.574  14.559  11.942 -0.2041  0.1787 -0.0679
   82loPI   PO4 1300  17.089  14.741  11.534  0.0251  0.0670  0.0202
   82loPI   GL1 1301  17.166  14.719  11.176  0.0167 -0.2288  0.0956
   82loPI   GL2 1302  16.930  14.497  11.076  0.2395 -0.0640 -0.1015
   82loPI   C1A 1303  17.071  14.958  10.863 -0.1624 -0.1812 -0.0078
   82loPI   C2A 1304  16.959  14.995  10.373 -0.1322  0.0005  0.2460
   82loPI   C3A 1305  17.013  14.956   9.957  0.0214  0.1537 -0.0315
   82loPI   C4A 1306  17.015  14.996   9.594  0.3253  0.0144  0.0397
   82loPI   C5A 1307  17.047  15.014   9.236 -0.2515 -0.1790  0.0701
   82loPI   C6A 1308  17.192  15.349   8.926  0.1622 -0.0433 -0.2820
   82loPI   C1B 1309  16.908  14.398  10.587  0.3758  0.0400 -0.0984
   82loPI   C2B 1310  16.912  14.419  10.107  0.1512 -0.3130  0.0576
   82loPI   C3B 1311  16.864  14.385   9.606  0.0671  0.0243 -0.0661
   82loPI   C4B 1312  16.818  14.497   9.124  0.0918  0.2193  0.0933
   83loPI    C1 1313  16.840   3.842  11.732  0.1234  0.0889 -0.1779
   83loPI    C2 1314  16.578   3.750  12.020  0.0024 -0.2689 -0.3954
   83loPI    C3 1315  16.717   4.124  11.987 -0.0012 -0.2165  0.1076
   83loPI   PO4 1316  16.890   3.605  11.573 -0.0467 -0.2311 -0.0838
   83loPI   GL1 1317  16.967   3.601  11.109  0.1606 -0.3595 -0.0678
   83loPI   GL2 1318  16.935   3.317  10.940  0.0105  0.2494 -0.2119
   83loPI   C1A 1319  17.175   3.741  10.703  0.1112  0.1851  0.0998
   83loPI   C2A 1320  17.179   3.725  10.263  0.3414  0.3097  0.0651
   83loPI   C3A 1321  17.219   3.773   9.865  0.2595 -0.1014  0.0209
   83loPI   C4A 1322  17.231   3.781   9.414  0.2904  0.2213  0.1226
   83loPI   C5A 1323  17.388   3.812   8.960 -0.0170 -0.0865 -0.0678
   83loPI   C6A 1324  17.285   3.703   8.544 -0.0219  0.0683  0.1141
   83loPI   C1B 1325  17.069   3.295  10.588  0.0814 -0.0868 -0.2120
   83loPI   C2B 1326  17.060   3.278  10.154  0.0787  0.3150 -0.0022
   83loPI   C3B 1327  17.151   3.283   9.790  0.1000 -0.0522  0.2067
   83loPI   C4B 1328  17.089   3.300   9.323 -0.2113 -0.2719 -0.3084
   84loPI    C1 1329   3.474   2.576  11.358 -0.1109  0.0358  0.0195
   84loPI    C2 1330   3.177   2.840  11.319 -0.1180  0.0427  0.1180
   84loPI    C3 1331   3.428   2.866  11.629  0.0320  0.0828 -0.0055
   84loPI   PO4 1332   3.520   2.514  11.087  0.3423  0.2508 -0.1361
   84loPI   GL1 1333   3.362   2.551  10.652 -0.0994  0.0714 -0.1128
   84loPI   GL2 1334   3.229   2.294  10.713 -0.6340  0.1694 -0.1199
   84loPI   C1A 1335   3.316   2.516  10.244 -0.0881  0.4075  0.2356
   84loPI   C2A 1336   3.255   2.710   9.941  0.0060  0.3026 -0.0676
   84loPI   C3A 1337   3.288   2.685   9.462  0.1016 -0.0519 -0.0785
   84loPI   C4A 1338   3.282   2.895   9.096 -0.1422  0.0797 -0.2577
   84loPI   C5A 1339   3.447   3.264   8.864  0.1288 -0.1210 -0.0837
   84loPI   C6A 1340   3.254   3.403   8.465 -0.0133 -0.1981  0.3835
   84loPI   C1B 1341   3.227   2.067  10.286  0.2562  0.2552 -0.0969
   84loPI   C2B 1342   3.130   2.199   9.860 -0.0607  0.1689 -0.2368
   84loPI   C3B 1343   3.133   2.211   9.424  0.0953  0.1598 -0.0279
   84loPI   C4B 1344   3.169   2.221   8.981 -0.0288 -0.0514 -0.5753
   85loPI    C1 1345  10.240  12.790  11.332 -0.2362 -0.0019  0.0589
   85loPI    C2 1346  10.197  12.686  11.716 -0.0888 -0.1803  0.0285
   85loPI    C3 1347  10.465  12.964  11.613 -0.3002  0.0467  0.0805
   85loPI   PO4 1348  10.113  12.839  11.175  0.2895 -0.1089  0.3479
   85loPI   GL1 1349  10.145  13.140  10.754 -0.0632 -0.0486 -0.0712
   85loPI   GL2 1350  10.481  13.195  10.814 -0.0930  0.2246  0.1989
   85loPI   C1A 1351   9.851  13.155  10.477  0.0702 -0.0359  0.1037
   85loPI   C2A 1352   9.820  13.079  10.028  0.0484  0.0639  0.0876
   85loPI   C3A 1353   9.790  13.098   9.593  0.0545  0.0474 -0.3055
   85loPI   C4A 1354   9.797  13.104   9.158  0.0246 -0.2228 -0.0209
   85loPI   C5A 1355   9.812  13.164   8.732 -0.1803 -0.2158 -0.1391
   85loPI   C6A 1356  10.220  13.177   8.482 -0.0159  0.1784 -0.1448
   85loPI   C1B 1357  10.362  13.207  10.297 -0.3220 -0.1947  0.0976
   85loPI   C2B 1358  10.279  13.207   9.864  0.1954  0.0209 -0.3191
   85loPI   C3B 1359  10.267  13.211   9.447  0.1906  0.4220  0.3628
   85loPI   C4B 1360  10.238  13.238   8.993  0.1762 -0.2259  0.1937
   86loPI    C1 1361   2.342  13.069  11.715 -0.2871 -0.0436 -0.1223
   86loPI    C2 1362   2.703  13.231  11.653 -0.2797  0.0794  0.2250
   86loPI    C3 1363   2.665  12.913  11.893 -0.3570 -0.1584 -0.0956
   86loPI   PO4 1364   2.255  13.066  11.470 -0.1738  0.2308 -0.1163
   86loPI   GL1 1365   2.363  12.973  11.069  0.1649  0.1024  0.0635
   86loPI   GL2 1366   2.236  12.810  10.891  0.1890 -0.1834 -0.0045
   86loPI   C1A 1367   2.573  13.087  10.667 -0.1742  0.2015  0.1689
   86loPI   C2A 1368   2.469  13.045  10.278 -0.1301 -0.1432 -0.0276
   86loPI   C3A 1369   2.541  13.163   9.886  0.1538  0.3571  0.0194
   86loPI   C4A 1370   2.511  13.098   9.464 -0.0005 -0.1118  0.2666
   86loPI   C5A 1371   2.547  13.213   9.044 -0.1180 -0.3481  0.3198
   86loPI   C6A 1372   2.249  13.102   8.793  0.0765  0.1684 -0.2509
   86loPI   C1B 1373   2.042  12.943  10.544 -0.5991  0.0668  0.0863
   86loPI   C2B 1374   2.011  12.968  10.160  0.0118 -0.3502 -0.2678
   86loPI   C3B 1375   2.045  12.993   9.767  0.0519  0.2696 -0.0114
   86loPI   C4B 1376   1.995  12.919   9.351 -0.0661  0.0100  0.2185
   87loPI    C1 1377   8.921   2.294  11.692 -0.0422 -0.0579  0.2147
   87loPI    C2 1378   9.319   2.308  11.729 -0.0545 -0.0811  0.3620
   87loPI    C3 1379   9.109   2.646  11.685  0.0210 -0.0948 -0.1672
   87loPI   PO4 1380   8.885   2.111  11.577 -0.0575  0.5164 -0.1175
   87loPI   GL1 1381   8.926   1.960  11.158  0.1548  0.0180 -0.1355
   87loPI   GL2 1382   8.667   1.784  11.183 -0.0811  0.0036 -0.2704
   87loPI   C1A 1383   8.649   2.085  10.706 -0.1088  0.0085  0.1928
   87loPI   C2A 1384   8.597   2.027  10.226 -0.0910  0.0829 -0.2328
   87loPI   C3A 1385   8.454   1.994   9.822 -0.0458 -0.0586 -0.0368
   87loPI   C4A 1386   8.469   2.035   9.365 -0.1532 -0.1000  0.0250
   87loPI   C5A 1387   8.611   2.138   8.904  0.1052  0.2653 -0.2993
   87loPI   C6A 1388   8.748   2.208   8.511 -0.1584  0.1837  0.1305
   87loPI   C1B 1389   8.574   1.615  10.672 -0.1097  0.0514  0.0473
   87loPI   C2B 1390   8.561   1.464  10.272 -0.0468 -0.0869  0.1711
   87loPI   C3B 1391   8.437   1.381   9.812 -0.1895 -0.4336  0.1873
   87loPI   C4B 1392   8.386   1.416   9.395  0.0410  0.0911  0.4740
   88loPI    C1 1393  14.320   4.007  11.628 -0.0825  0.1082 -0.0070
   88loPI    C2 1394  14.023   3.882  11.865  0.0394  0.2878  0.2455
   88loPI    C3 1395  14.323   4.098  12.018  0.2871  0.1329 -0.0118
   88loPI   PO4 1396  14.252   4.025  11.409 -0.1429  0.1717  0.0709
   88loPI   GL1 1397  14.219   4.094  11.032  0.1369  0.0472 -0.0047
   88loPI   GL2 1398  14.439   4.251  10.968 -0.4252  0.0700 -0.0174
   88loPI   C1A 1399  13.975   4.202  10.563  0.0358  0.3583 -0.3832
   88loPI   C2A 1400  14.096   4.209  10.160  0.0057 -0.1434 -0.2039
   88loPI   C3A 1401  14.111   4.210   9.611 -0.1832 -0.0918  0.0369
   88loPI   C4A 1402  14.196   4.179   9.114  0.0125  0.5018 -0.0437
   88loPI   C5A 1403  14.128   3.835   8.764 -0.1712 -0.4140 -0.1246
   88loPI   C6A 1404  13.985   3.773   8.386  0.0249 -0.0796  0.2360
   88loPI   C1B 1405  14.481   4.253  10.536  0.2082 -0.3632  0.1099
   88loPI   C2B 1406  14.590   4.269  10.014  0.2283 -0.0873  0.1505
   88loPI   C3B 1407  14.598   4.304   9.541  0.0763 -0.0398 -0.1057
   88loPI   C4B 1408  14.644   4.363   9.103 -0.0718 -0.2692 -0.3501
   89loPI    C1 1409  13.639   1.765  11.959  0.1030 -0.0058 -0.0819
   89loPI    C2 1410  13.335   1.957  12.134  0.1466 -0.1253  0.1287
   89loPI    C3 1411  13.421   1.581  12.240  0.0639 -0.2635 -0.2764
   89loPI   PO4 1412  13.714   1.743  11.733  0.1480  0.1176 -0.1363
   89loPI   GL1 1413  13.903   1.666  11.369  0.1348 -0.0639  0.2956
   89loPI   GL2 1414  13.950   2.010  11.403 -0.1255  0.0040 -0.1345
   89loPI   C1A 1415  13.999   1.785  10.926  0.0026 -0.1596  0.1388
   89loPI   C2A 1416  13.979   1.844  10.514  0.1447  0.3064  0.2258
   89loPI   C3A 1417  13.966   1.769  10.102 -0.0827  0.0797  0.1455
   89loPI   C4A 1418  14.008   1.809   9.668 -0.0379  0.0073 -0.4076
   89loPI   C5A 1419  14.042   1.697   9.314  0.0958  0.1767  0.1078
   89loPI   C6A 1420  13.827   1.578   8.880  0.0334  0.0672 -0.0434
   89loPI   C1B 1421  13.938   2.274  10.931 -0.0274 -0.2048 -0.2862
   89loPI   C2B 1422  14.089   2.325  10.580  0.0558  0.0350  0.1969
   89loPI   C3B 1423  14.088   2.349  10.143  0.0111 -0.0952 -0.0899
   89loPI   C4B 1424  14.116   2.351   9.671 -0.2523 -0.1640 -0.0228
   90loPI    C1 1425   8.135   7.707  11.416  0.0724 -0.1368 -0.0091
   90loPI    C2 1426   8.391   7.401  11.387  0.1065 -0.1004 -0.0972
   90loPI    C3 1427   8.257   7.517  11.746  0.0790 -0.2304 -0.0649
   90loPI   PO4 1428   8.098   7.740  11.190 -0.1800  0.2087  0.1139
   90loPI   GL1 1429   8.124   7.717  10.803 -0.1919  0.2444 -0.0653
   90loPI   GL2 1430   7.748   7.815  10.571  0.0083 -0.0805  0.3187
   90loPI   C1A 1431   8.140   7.760  10.347 -0.1571  0.0225  0.2008
   90loPI   C2A 1432   8.138   7.831   9.843  0.1228 -0.2300 -0.0603
   90loPI   C3A 1433   8.145   7.942   9.451 -0.0173  0.2495 -0.0845
   90loPI   C4A 1434   8.173   7.875   8.990  0.1065 -0.1591 -0.1549
   90loPI   C5A 1435   8.016   7.881   8.579  0.0013  0.1672  0.1501
   90loPI   C6A 1436   8.140   7.867   8.127  0.0790 -0.2800  0.0685
   90loPI   C1B 1437   7.629   7.650  10.235  0.2311 -0.0516 -0.0348
   90loPI   C2B 1438   7.653   7.753   9.753 -0.0346 -0.0475 -0.3137
   90loPI   C3B 1439   7.675   7.860   9.354 -0.3063 -0.1244  0.1509
   90loPI   C4B 1440   7.743   7.695   8.925 -0.4704  0.0940  0.0752
   91loPI    C1 1441  12.226   9.054  11.464  0.1144 -0.1116 -0.2706
   91loPI    C2 1442  12.455   9.248  11.729 -0.0172 -0.0573 -0.1950
   91loPI    C3 1443  12.241   8.931  11.844  0.0151 -0.1048 -0.2643
   91loPI   PO4 1444  12.374   9.010  11.286  0.4037  0.0849  0.0091
   91loPI   GL1 1445  12.178   8.850  10.993 -0.0763  0.0687 -0.1330
   91loPI   GL2 1446  12.383   8.703  10.849 -0.2386  0.0189  0.2144
   91loPI   C1A 1447  12.198   9.133  10.644 -0.1788 -0.1524  0.1813
   91loPI   C2A 1448  12.187   9.131  10.215  0.1873 -0.2426 -0.0622
   91loPI   C3A 1449  12.051   9.088   9.749 -0.1520  0.0300 -0.0988
   91loPI   C4A 1450  12.090   9.126   9.346 -0.3113 -0.0097  0.1637
   91loPI   C5A 1451  12.075   9.117   8.841 -0.1071  0.2328 -0.1740
   91loPI   C6A 1452  11.826   9.206   8.383  0.1026  0.1055 -0.0041
   91loPI   C1B 1453  12.471   8.749  10.441  0.1561 -0.0969 -0.5116
   91loPI   C2B 1454  12.495   8.759  10.048 -0.2956 -0.1017 -0.1261
   91loPI   C3B 1455  12.452   8.784   9.645 -0.0143  0.2377  0.0743
   91loPI   C4B 1456  12.513   8.800   9.290 -0.3413 -0.2307  0.0450
   92loPI    C1 1457   2.325  12.582  11.426 -0.0750 -0.0988 -0.2128
   92loPI    C2 1458   2.336  12.269  11.675 -0.1588 -0.0488 -0.1458
   92loPI    C3 1459   2.177  12.616  11.796  0.3765  0.1724 -0.0495
   92loPI   PO4 1460   2.337  12.420  11.199  0.1001  0.1503 -0.0159
   92loPI   GL1 1461   2.466  12.200  10.929  0.2555 -0.0748  0.2153
   92loPI   GL2 1462   2.788  12.043  10.767  0.2374  0.0148 -0.2387
   92loPI   C1A 1463   2.351  12.053  10.490  0.1251 -0.0852  0.1527
   92loPI   C2A 1464   2.255  12.150  10.059 -0.1205  0.0346  0.2717
   92loPI   C3A 1465   2.255  12.143   9.637  0.0328 -0.2896  0.2979
   92loPI   C4A 1466   2.289  12.171   9.254 -0.2782 -0.1415 -0.0282
   92loPI   C5A 1467   2.276  12.152   8.802 -0.2505  0.0587  0.0933
   92loPI   C6A 1468   2.539  12.146   8.483  0.2410  0.0950 -0.1244
   92loPI   C1B 1469   2.856  12.231  10.315  0.1546  0.1134  0.0697
   92loPI   C2B 1470   2.756  12.234   9.843 -0.1477  0.1109 -0.2540
   92loPI   C3B 1471   2.709  12.324   9.462  0.2080 -0.2100  0.3157
   92loPI   C4B 1472   2.724  12.319   9.003  0.0122 -0.1111 -0.4504
   93loPI    C1 1473   6.654   0.925  11.470  0.0653 -0.3231 -0.1576
   93loPI    C2 1474   7.023   0.900  11.623 -0.0232  0.0032  0.1207
   93loPI    C3 1475   6.705   0.893  11.865 -0.1876  0.0408 -0.0913
   93loPI   PO4 1476   6.733   0.789  11.216  0.2043 -0.0042 -0.0256
   93loPI   GL1 1477   6.566   0.730  10.840 -0.1270  0.3076 -0.0949
   93loPI   GL2 1478   6.867   0.961  10.733 -0.2727 -0.1233  0.0260
   93loPI   C1A 1479   6.510   0.795  10.449  0.0354 -0.0201  0.0608
   93loPI   C2A 1480   6.442   0.822  10.004 -0.0290  0.1477 -0.1237
   93loPI   C3A 1481   6.506   0.918   9.508  0.1398  0.2189 -0.1257
   93loPI   C4A 1482   6.372   0.904   9.104 -0.0913 -0.1272 -0.2515
   93loPI   C5A 1483   6.283   0.863   8.654  0.0669  0.3496 -0.0949
   93loPI   C6A 1484   6.157   0.861   8.275 -0.0544  0.2435 -0.2665
   93loPI   C1B 1485   6.929   0.980  10.275  0.2461 -0.2930  0.0742
   93loPI   C2B 1486   6.963   0.950   9.806 -0.2054 -0.1467 -0.1068
   93loPI   C3B 1487   6.966   1.103   9.442 -0.1946  0.0240  0.1818
   93loPI   C4B 1488   6.820   1.042   8.934  0.1206  0.1777 -0.4208
   94loPI    C1 1489   3.206  13.226  11.592  0.0807 -0.0102  0.0628
   94loPI    C2 1490   3.153  12.855  11.733  0.1785  0.0337  0.2179
   94loPI    C3 1491   3.080  13.171  11.967  0.1493  0.1121  0.1043
   94loPI   PO4 1492   3.100  13.129  11.276 -0.0733 -0.0335 -0.0339
   94loPI   GL1 1493   2.978  13.015  10.869  0.2260 -0.3203 -0.0645
   94loPI   GL2 1494   3.323  12.920  10.824  0.1640 -0.1267  0.2966
   94loPI   C1A 1495   3.074  13.169  10.430 -0.3078  0.1204  0.2102
   94loPI   C2A 1496   3.014  13.215  10.072 -0.0600  0.1146  0.2475
   94loPI   C3A 1497   2.946  13.325   9.684 -0.2135  0.2053  0.2372
   94loPI   C4A 1498   2.975  13.370   9.240 -0.0296  0.0232  0.0486
   94loPI   C5A 1499   3.075  13.551   8.802 -0.0477  0.2145  0.5094
   94loPI   C6A 1500   2.846  13.696   8.403  0.2592  0.3645 -0.0800
   94loPI   C1B 1501   3.514  12.918  10.419 -0.1249  0.5334 -0.0237
   94loPI   C2B 1502   3.392  12.879  10.013 -0.0715 -0.0085  0.2870
   94loPI   C3B 1503   3.320  12.940   9.586 -0.0555  0.3186  0.1432
   94loPI   C4B 1504   3.325  13.026   9.116  0.0727 -0.1915  0.0473
   95loPI    C1 1505   8.689  17.021  11.747 -0.1333 -0.2877  0.0487
   95loPI    C2 1506   8.305  17.089  11.658 -0.0623  0.1627  0.0615
   95loPI    C3 1507   8.502  17.340  11.900  0.2686 -0.0091 -0.0235
   95loPI   PO4 1508   8.767  16.981  11.478 -0.0246  0.2213  0.1024
   95loPI   GL1 1509   8.589  16.843  11.084  0.0575 -0.1018  0.1153
   95loPI   GL2 1510   8.254  17.052  11.144  0.0442  0.0219 -0.3384
   95loPI   C1A 1511   8.381  16.848  10.720  0.2830 -0.1217 -0.2962
   95loPI   C2A 1512   8.380  16.850  10.334 -0.2103 -0.3642 -0.0799
   95loPI   C3A 1513   8.370  16.828   9.875 -0.2314 -0.0283  0.0864
   95loPI   C4A 1514   8.330  16.852   9.390  0.1221  0.0188 -0.3490
   95loPI   C5A 1515   8.269  17.014   8.986 -0.1946  0.2160  0.1272
   95loPI   C6A 1516   8.083  17.350   8.711  0.0441 -0.0242  0.1509
   95loPI   C1B 1517   8.014  17.205  10.674 -0.2193 -0.4895 -0.2667
   95loPI   C2B 1518   7.924  17.174  10.196 -0.1024 -0.0734 -0.0499
   95loPI   C3B 1519   7.967  17.236   9.809 -0.1947  0.1403  0.1291
   95loPI   C4B 1520   7.973  17.217   9.296  0.0121  0.1670 -0.2181
   96loPI    C1 1521  16.033   7.504  11.278  0.0520  0.0380  0.0180
   96loPI    C2 1522  15.924   7.785  11.540 -0.0057  0.2463 -0.2251
   96loPI    C3 1523  16.263   7.581  11.596  0.1007  0.4506 -0.1116
   96loPI   PO4 1524  16.016   7.596  11.084 -0.4858 -0.1704  0.0057
   96loPI   GL1 1525  15.664   7.560  10.739 -0.1844 -0.2985 -0.2153
   96loPI   GL2 1526  15.400   7.786  10.576  0.1341 -0.0232  0.1184
   96loPI   C1A 1527  15.871   7.544  10.361  0.0967  0.1305  0.0339
   96loPI   C2A 1528  15.900   7.575   9.957 -0.0713 -0.0111 -0.1381
   96loPI   C3A 1529  15.789   7.561   9.516  0.0342  0.0849 -0.2658
   96loPI   C4A 1530  15.702   7.570   9.119 -0.2427  0.2679 -0.1560
   96loPI   C5A 1531  15.880   7.483   8.667  0.3593 -0.0438  0.4343
   96loPI   C6A 1532  15.997   7.360   8.224  0.2059  0.1673 -0.0707
   96loPI   C1B 1533  15.486   7.910  10.160  0.3302  0.2840 -0.0708
   96loPI   C2B 1534  15.535   7.882   9.805 -0.1693 -0.0799  0.2539
   96loPI   C3B 1535  15.450   7.923   9.355  0.0777  0.0171  0.1270
   96loPI   C4B 1536  15.429   7.906   8.865  0.1373 -0.0560 -0.0624
   97loPI    C1 1537   9.520   5.196  10.923 -0.2233  0.0205 -0.1647
   97loPI    C2 1538   9.262   5.142  11.224 -0.0650 -0.1323 -0.0540
   97loPI    C3 1539   9.588   5.367  11.278 -0.0362 -0.1603 -0.1113
   97loPI   PO4 1540   9.430   5.320  10.751 -0.0886 -0.2640 -0.0756
   97loPI   GL1 1541   9.432   5.455  10.330  0.0988 -0.0361  0.0281
   97loPI   GL2 1542   9.523   5.759  10.400 -0.2628  0.0735 -0.0297
   97loPI   C1A 1543   9.347   5.368   9.968 -0.1260 -0.1599 -0.1490
   97loPI   C2A 1544   9.223   5.498   9.512  0.3330 -0.0713 -0.1395
   97loPI   C3A 1545   8.968   5.337   9.205 -0.2411  0.1621 -0.2172
   97loPI   C4A 1546   9.167   5.328   8.833 -0.1933 -0.4908  0.0210
   97loPI   C5A 1547   9.432   5.106   8.486  0.0686  0.0129 -0.0955
   97loPI   C6A 1548   9.666   4.798   8.204 -0.1237 -0.0972  0.2225
   97loPI   C1B 1549   9.573   5.809   9.999  0.2003 -0.1620 -0.3080
   97loPI   C2B 1550   9.556   5.981   9.603  0.1967  0.2656  0.0273
   97loPI   C3B 1551   9.624   6.114   9.281 -0.4113 -0.0421  0.4470
   97loPI   C4B 1552   9.621   6.181   8.797 -0.0678 -0.0099 -0.2091
   98loPI    C1 1553   2.082   5.171  11.618  0.0751  0.2832 -0.1275
   98loPI    C2 1554   1.970   5.008  11.965  0.0672  0.3397 -0.1033
   98loPI    C3 1555   2.069   5.395  11.949  0.3925  0.2591 -0.0956
   98loPI   PO4 1556   1.890   5.083  11.334  0.4754  0.0365  0.0452
   98loPI   GL1 1557   1.729   5.087  10.906  0.0291 -0.1578 -0.3280
   98loPI   GL2 1558   1.974   4.912  10.677 -0.2439  0.0160 -0.0336
   98loPI   C1A 1559   1.661   5.277  10.499  0.3284  0.1934  0.1051
   98loPI   C2A 1560   1.673   5.404  10.098 -0.1306  0.0837 -0.0526
   98loPI   C3A 1561   1.671   5.385   9.662 -0.1079 -0.1495  0.1873
   98loPI   C4A 1562   1.692   5.396   9.180 -0.0816  0.2119  0.1023
   98loPI   C5A 1563   1.794   5.507   8.681 -0.2309 -0.0528  0.1059
   98loPI   C6A 1564   2.084   5.673   8.477 -0.0562  0.1279  0.1722
   98loPI   C1B 1565   2.010   5.037  10.236 -0.1550 -0.1596 -0.1699
   98loPI   C2B 1566   2.027   5.095   9.757 -0.1525  0.2770 -0.0783
   98loPI   C3B 1567   2.031   5.013   9.332  0.1087  0.1118 -0.2482
   98loPI   C4B 1568   2.015   5.136   8.898  0.1027  0.1288 -0.0364
   99loPI    C1 1569   9.066  15.467  11.665  0.0502 -0.1792  0.0520
   99loPI    C2 1570   8.743  15.618  11.848  0.1403  0.1122 -0.0239
   99loPI    C3 1571   9.022  15.426  12.060 -0.2247 -0.4115  0.0008
   99loPI   PO4 1572   8.998  15.335  11.489  0.1550 -0.3183 -0.3204
   99loPI   GL1 1573   8.890  15.447  11.020  0.1183 -0.4481 -0.1193
   99loPI   GL2 1574   9.193  15.599  11.047 -0.0260  0.2081 -0.0875
   99loPI   C1A 1575   8.961  15.616  10.579  0.1447 -0.0597  0.0243
   99loPI   C2A 1576   8.998  15.602  10.131 -0.2615  0.3431 -0.1920
   99loPI   C3A 1577   9.042  15.655   9.757  0.0562  0.1546 -0.1744
   99loPI   C4A 1578   9.101  15.743   9.377  0.0783  0.0284 -0.2568
   99loPI   C5A 1579   9.530  15.874   9.045 -0.1694  0.0328  0.1798
   99loPI   C6A 1580   9.786  16.260   8.842  0.0273 -0.1151 -0.1335
   99loPI   C1B 1581   9.435  15.776  10.806  0.1749 -0.3033  0.0360
   99loPI   C2B 1582   9.442  15.771  10.403  0.0772 -0.1472  0.0919
   99loPI   C3B 1583   9.466  15.794   9.993 -0.1044  0.1610 -0.1554
   99loPI   C4B 1584   9.547  15.870   9.595 -0.3178 -0.2152  0.1056
  100loPI    C1 1585  17.252   6.079  11.333  0.1289  0.1197  0.0237
  100loPI    C2 1586  17.645   6.005  11.312  0.1009 -0.0540  0.0938
  100loPI    C3 1587  17.422   5.825  11.591  0.0257  0.2856  0.2579
  100loPI   PO4 1588  17.179   6.056  11.105  0.0926  0.0510 -0.0156
  100loPI   GL1 1589  17.494   6.135  10.808  0.1420 -0.1376  0.0297
  100loPI   GL2 1590  17.326   5.968  10.672  0.2368 -0.0863  0.1041
  100loPI   C1A 1591  17.760   6.324  10.476  0.4016 -0.1651 -0.0904
  100loPI   C2A 1592  17.902   6.292  10.147  0.0259 -0.2517  0.1874
  100loPI   C3A 1593  17.906   6.324   9.817 -0.0669 -0.0444  0.0087
  100loPI   C4A 1594  17.775   6.229   9.387 -0.2713  0.0470 -0.2097
  100loPI   C5A 1595  17.874   6.246   8.888  0.1775  0.1527 -0.2412
  100loPI   C6A 1596  17.530   6.163   8.586 -0.1066 -0.3355  0.0292
  100loPI   C1B 1597  17.312   6.090  10.304 -0.0323  0.1063 -0.0841
  100loPI   C2B 1598  17.379   6.157   9.878 -0.0345 -0.1395  0.0922
  100loPI   C3B 1599  17.273   6.086   9.454 -0.0064 -0.0076 -0.1269
  100loPI   C4B 1600  17.253   6.127   8.988 -0.1055  0.2651 -0.0721
  101loPI    C1 1601   8.532   4.106  11.109  0.0573 -0.1647  0.1335
  101loPI    C2 1602   8.780   4.377  11.266 -0.1033  0.0979 -0.0578
  101loPI    C3 1603   8.572   4.134  11.506 -0.0525  0.2289  0.1214
  101loPI   PO4 1604   8.418   4.287  10.973  0.1641 -0.0871 -0.1655
  101loPI   GL1 1605   8.453   4.468  10.667 -0.1716  0.1341  0.0836
  101loPI   GL2 1606   8.307   4.621  10.453  0.2040 -0.0816  0.2321
  101loPI   C1A 1607   8.618   4.267  10.240 -0.0142  0.0730  0.3384
  101loPI   C2A 1608   8.666   4.282   9.811 -0.1066 -0.1500 -0.0839
  101loPI   C3A 1609   8.653   4.400   9.340 -0.1717 -0.0854 -0.0030
  101loPI   C4A 1610   8.742   4.483   8.848  0.0287 -0.0398  0.1450
  101loPI   C5A 1611   8.611   4.589   8.449  0.1295  0.2457  0.2195
  101loPI   C6A 1612   8.838   4.547   7.994  0.0174  0.3071 -0.0559
  101loPI   C1B 1613   8.278   4.610   9.986 -0.3001  0.0373  0.0016
  101loPI   C2B 1614   8.262   4.689   9.541  0.1050  0.0168  0.3478
  101loPI   C3B 1615   8.275   4.718   9.129 -0.2992  0.1256 -0.1288
  101loPI   C4B 1616   8.192   4.799   8.705 -0.1130  0.2447  0.0141
  102loPI    C1 1617   8.470  13.705  11.151 -0.0942 -0.2503  0.1800
  102loPI    C2 1618   8.070  13.694  11.159 -0.0949 -0.2885  0.1024
  102loPI    C3 1619   8.277  13.698  11.501 -0.1749  0.2229  0.1526
  102loPI   PO4 1620   8.480  13.730  10.926 -0.0373  0.2952  0.2760
  102loPI   GL1 1621   8.460  13.574  10.538 -0.1924  0.1274 -0.1721
  102loPI   GL2 1622   8.512  13.295  10.592 -0.0086 -0.0520  0.0354
  102loPI   C1A 1623   8.610  13.567  10.170  0.0914 -0.2369 -0.0669
  102loPI   C2A 1624   8.530  13.665   9.765 -0.0216 -0.1079 -0.0281
  102loPI   C3A 1625   8.548  13.713   9.288 -0.0556 -0.0500 -0.0916
  102loPI   C4A 1626   8.612  13.775   8.838 -0.1047  0.0164 -0.2258
  102loPI   C5A 1627   8.474  13.550   8.601 -0.0999  0.0579  0.1550
  102loPI   C6A 1628   8.096  13.505   8.407 -0.2758 -0.0561  0.0766
  102loPI   C1B 1629   8.483  13.078  10.164 -0.0807  0.1100 -0.2596
  102loPI   C2B 1630   8.436  13.215   9.775  0.0067  0.0363 -0.0156
  102loPI   C3B 1631   8.469  13.151   9.415  0.0106  0.1803  0.0180
  102loPI   C4B 1632   8.487  13.287   9.023  0.0604  0.1258 -0.1363
  103loPI    C1 1633   3.304  11.540  11.352 -0.1575 -0.0675 -0.0492
  103loPI    C2 1634   3.176  11.871  11.537  0.1411  0.0283 -0.0091
  103loPI    C3 1635   3.518  11.698  11.651  0.0798 -0.1909 -0.1519
  103loPI   PO4 1636   3.297  11.544  11.121 -0.1502  0.0366  0.3730
  103loPI   GL1 1637   3.506  11.837  10.688 -0.1940  0.0606  0.4616
  103loPI   GL2 1638   3.579  11.597  10.706 -0.0870  0.0796 -0.1962
  103loPI   C1A 1639   3.219  11.940  10.500  0.3574 -0.2005 -0.0002
  103loPI   C2A 1640   3.109  11.849  10.084 -0.0580 -0.0295 -0.0846
  103loPI   C3A 1641   3.128  11.925   9.545  0.2158 -0.2127 -0.0238
  103loPI   C4A 1642   3.124  12.032   9.122  0.3389  0.0341  0.0368
  103loPI   C5A 1643   2.955  11.912   8.731  0.1488 -0.2462 -0.1343
  103loPI   C6A 1644   2.904  11.747   8.329 -0.1401 -0.1128  0.3020
  103loPI   C1B 1645   3.639  11.621  10.286 -0.1419 -0.1282 -0.3848
  103loPI   C2B 1646   3.502  11.658   9.841  0.1061  0.0842  0.2186
  103loPI   C3B 1647   3.460  11.600   9.420  0.0418 -0.0063  0.0708
  103loPI   C4B 1648   3.448  11.691   8.956 -0.0252 -0.4339 -0.2733
  104loPI    C1 1649   3.394  17.731  11.452  0.0540 -0.1157 -0.1998
  104loPI    C2 1650   3.058  17.535  11.545  0.0046  0.1015  0.0929
  104loPI    C3 1651   3.270  17.717  11.832  0.2811  0.1122 -0.1141
  104loPI   PO4 1652   3.365  17.848  11.206 -0.1622  0.1679  0.0148
  104loPI   GL1 1653   3.262  17.930  10.849  0.0050 -0.0377  0.0656
  104loPI   GL2 1654   3.529  17.679  10.758 -0.0704 -0.0342 -0.2435
  104loPI   C1A 1655   3.120  17.924  10.431  0.1629 -0.1662 -0.2627
  104loPI   C2A 1656   3.189  18.017  10.018 -0.2549 -0.0504  0.0538
  104loPI   C3A 1657   3.122  18.095   9.600 -0.0257 -0.1536  0.0505
  104loPI   C4A 1658   3.152  18.207   9.089 -0.1292 -0.0877 -0.0840
  104loPI   C5A 1659   3.053  18.422   8.652  0.0858  0.0814 -0.1817
  104loPI   C6A 1660   2.742  18.413   8.388 -0.0775 -0.3196  0.3924
  104loPI   C1B 1661   3.485  17.543  10.290 -0.1464  0.0143 -0.0424
  104loPI   C2B 1662   3.518  17.599   9.845 -0.3897 -0.1989 -0.4204
  104loPI   C3B 1663   3.536  17.717   9.468  0.0688  0.1129 -0.0628
  104loPI   C4B 1664   3.472  17.842   9.055  0.2710 -0.0519  0.2759
  105loPI    C1 1665  13.581  11.324  11.812  0.2406  0.2187 -0.3155
  105loPI    C2 1666  13.849  11.604  11.910  0.2136  0.0440  0.2994
  105loPI    C3 1667  13.517  11.559  12.129 -0.0696 -0.0882 -0.1435
  105loPI   PO4 1668  13.663  11.337  11.513 -0.3124 -0.2237 -0.0947
  105loPI   GL1 1669  13.569  11.534  11.056  0.0053  0.1393 -0.2270
  105loPI   GL2 1670  13.724  11.911  10.943 -0.0611 -0.0757 -0.3020
  105loPI   C1A 1671  13.619  11.389  10.681 -0.1281 -0.3331 -0.3785
  105loPI   C2A 1672  13.568  11.440  10.241  0.1625  0.2618  0.0512
  105loPI   C3A 1673  13.511  11.519   9.818 -0.1386  0.1970  0.2003
  105loPI   C4A 1674  13.624  11.521   9.330  0.3254 -0.0422  0.1069
  105loPI   C5A 1675  13.526  11.530   8.874 -0.2125 -0.0401 -0.1046
  105loPI   C6A 1676  13.628  11.747   8.494 -0.1179 -0.3175 -0.2285
  105loPI   C1B 1677  13.641  11.852  10.524 -0.3275  0.2413 -0.0087
  105loPI   C2B 1678  13.641  11.956  10.058  0.0165  0.3037  0.1089
  105loPI   C3B 1679  13.619  11.979   9.542  0.2172 -0.0076 -0.0026
  105loPI   C4B 1680  13.741  11.959   9.131 -0.0723 -0.1154  0.0562
  106loPI    C1 1681  15.349   2.037  11.478 -0.3063  0.0216  0.2918
  106loPI    C2 1682  15.641   2.234  11.667 -0.2201  0.0996  0.0808
  106loPI    C3 1683  15.443   1.941  11.855  0.0187  0.0197  0.2136
  106loPI   PO4 1684  15.422   2.217  11.244  0.1740 -0.3990  0.0850
  106loPI   GL1 1685  15.418   2.448  10.906  0.2589 -0.1960 -0.0443
  106loPI   GL2 1686  15.508   2.783  10.806 -0.1559  0.0676  0.0513
  106loPI   C1A 1687  15.407   2.239  10.447  0.0278 -0.0637 -0.1411
  106loPI   C2A 1688  15.492   2.331  10.049  0.0001 -0.1505  0.1799
  106loPI   C3A 1689  15.552   2.377   9.597  0.0400 -0.3209  0.1369
  106loPI   C4A 1690  15.632   2.370   9.214 -0.0405  0.2691  0.0408
  106loPI   C5A 1691  15.729   2.382   8.709  0.2278  0.2673 -0.0891
  106loPI   C6A 1692  15.983   2.659   8.451 -0.4404  0.0207 -0.1413
  106loPI   C1B 1693  15.577   2.753  10.441  0.1525  0.1618 -0.0378
  106loPI   C2B 1694  15.636   2.870  10.035 -0.0519 -0.1340  0.2327
  106loPI   C3B 1695  15.665   2.864   9.644  0.2365  0.0638  0.4033
  106loPI   C4B 1696  15.713   2.838   9.194 -0.1716 -0.0038 -0.1551
  107loPI    C1 1697  13.823   0.890  11.598 -0.1418 -0.2092  0.1044
  107loPI    C2 1698  13.651   0.776  11.940 -0.1242  0.0609  0.2060
  107loPI    C3 1699  14.047   0.824  11.923 -0.1300  0.0928  0.1605
  107loPI   PO4 1700  13.768   0.661  11.415  0.0405  0.0235 -0.0640
  107loPI   GL1 1701  13.505   0.845  11.111  0.2979  0.3767 -0.0294
  107loPI   GL2 1702  13.208   0.722  11.054  0.1119 -0.2324 -0.1189
  107loPI   C1A 1703  13.610   0.747  10.690 -0.1020  0.3199 -0.0297
  107loPI   C2A 1704  13.823   0.807  10.413  0.2410  0.0859 -0.1074
  107loPI   C3A 1705  13.758   0.908  10.042  0.1875  0.2654  0.1245
  107loPI   C4A 1706  13.652   0.845   9.626  0.0332  0.0682 -0.2210
  107loPI   C5A 1707  13.835   0.859   9.167  0.1494  0.0731  0.1782
  107loPI   C6A 1708  14.009   1.106   8.853 -0.3770  0.0191  0.1994
  107loPI   C1B 1709  13.134   0.616  10.642  0.0485  0.1789  0.1990
  107loPI   C2B 1710  13.376   0.592  10.285 -0.0899 -0.1215 -0.0591
  107loPI   C3B 1711  13.213   0.683   9.885 -0.0500 -0.3983 -0.3613
  107loPI   C4B 1712  13.236   0.663   9.508 -0.0344  0.2776 -0.1072
  108loPI    C1 1713   0.910   7.820  11.658 -0.0829  0.0035 -0.0547
  108loPI    C2 1714   1.286   7.916  11.755  0.0739 -0.4611 -0.1735
  108loPI    C3 1715   1.021   7.833  12.043  0.0779 -0.2014 -0.0921
  108loPI   PO4 1716   0.947   7.733  11.423 -0.3040 -0.0851  0.1465
  108loPI   GL1 1717   1.106   7.752  10.943  0.2307 -0.0652 -0.0746
  108loPI   GL2 1718   1.456   7.692  10.914  0.1940  0.0997 -0.0215
  108loPI   C1A 1719   1.206   7.604  10.531  0.1333  0.0752 -0.0505
  108loPI   C2A 1720   1.303   7.514  10.087 -0.2358  0.2596 -0.2552
  108loPI   C3A 1721   1.308   7.565   9.611  0.1139 -0.1183  0.0896
  108loPI   C4A 1722   1.302   7.629   9.175  0.3531 -0.0517 -0.1449
  108loPI   C5A 1723   1.346   7.554   8.683 -0.1580  0.3349  0.1089
  108loPI   C6A 1724   1.723   7.427   8.530  0.0922 -0.2162  0.3945
  108loPI   C1B 1725   1.669   7.794  10.634 -0.0588  0.0024 -0.0009
  108loPI   C2B 1726   1.798   7.736  10.240 -0.1950 -0.0247  0.0754
  108loPI   C3B 1727   1.753   7.706   9.773  0.1560 -0.2118  0.1305
  108loPI   C4B 1728   1.819   7.737   9.351 -0.2078  0.0650  0.1745
  109loPI    C1 1729   1.363   4.677  11.428 -0.0286 -0.0705  0.0543
  109loPI    C2 1730   1.444   4.931  11.726 -0.3032  0.1067 -0.0188
  109loPI    C3 1731   1.410   4.540  11.801 -0.1813  0.1269  0.1482
  109loPI   PO4 1732   1.539   4.698  11.264 -0.0077  0.1432  0.4012
  109loPI   GL1 1733   1.604   4.541  10.815 -0.2250  0.0391  0.0247
  109loPI   GL2 1734   1.414   4.297  10.627  0.1231 -0.1699 -0.1328
  109loPI   C1A 1735   1.522   4.805  10.447 -0.0983  0.0450 -0.0173
  109loPI   C2A 1736   1.527   4.889  10.040 -0.0053 -0.0679 -0.1859
  109loPI   C3A 1737   1.580   4.870   9.543  0.1577  0.1216  0.3133
  109loPI   C4A 1738   1.600   4.910   9.114  0.0568 -0.1340 -0.0506
  109loPI   C5A 1739   1.672   4.944   8.571  0.3808 -0.1668  0.0577
  109loPI   C6A 1740   2.069   5.179   8.361 -0.1202 -0.1529 -0.0312
  109loPI   C1B 1741   1.405   4.361  10.228  0.3051 -0.0144 -0.1015
  109loPI   C2B 1742   1.404   4.318   9.759 -0.3414  0.0995  0.0571
  109loPI   C3B 1743   1.456   4.434   9.276  0.0530  0.1143 -0.2255
  109loPI   C4B 1744   1.454   4.493   8.788  0.2202 -0.2152  0.2995
  110loPI    C1 1745  10.833   4.873  11.123 -0.0862 -0.2045 -0.1163
  110loPI    C2 1746  11.207   4.957  11.237 -0.0843 -0.2021 -0.1242
  110loPI    C3 1747  10.902   5.176  11.375 -0.0848 -0.2173 -0.1013
  110loPI   PO4 1748  10.951   4.819  10.838 -0.0693  0.0626  0.1053
  110loPI   GL1 1749  10.945   4.956  10.325 -0.2607  0.2345 -0.0475
  110loPI   GL2 1750  11.110   5.331  10.358  0.4507  0.1672 -0.2311
  110loPI   C1A 1751  10.757   5.166   9.996  0.3961  0.0567 -0.1204
  110loPI   C2A 1752  10.564   5.532   9.741  0.0802  0.1477 -0.2183
  110loPI   C3A 1753  10.708   5.768   9.396  0.2434  0.0412 -0.0080
  110loPI   C4A 1754  10.732   5.884   8.998  0.4783  0.1576 -0.1110
  110loPI   C5A 1755  10.523   5.840   8.657  0.1893 -0.4004  0.3813
  110loPI   C6A 1756  10.453   5.933   8.332  0.0127 -0.2582 -0.0196
  110loPI   C1B 1757  11.383   5.155  10.055  0.4767 -0.3207 -0.1891
  110loPI   C2B 1758  11.663   4.854  10.098  0.1265 -0.0681 -0.1248
  110loPI   C3B 1759  11.856   4.472   9.959 -0.1436 -0.0417 -0.0169
  110loPI   C4B 1760  11.872   4.363   9.520 -0.0039 -0.0881 -0.0009
  111loPI    C1 1761   7.168   6.529  11.462 -0.1383  0.0190 -0.1614
  111loPI    C2 1762   6.845   6.519  11.698 -0.0474 -0.0027 -0.0369
  111loPI    C3 1763   7.186   6.680  11.832 -0.0500  0.1621 -0.2232
  111loPI   PO4 1764   7.182   6.692  11.307 -0.1545  0.1012 -0.2274
  111loPI   GL1 1765   7.052   6.816  10.965  0.0215 -0.0972 -0.0144
  111loPI   GL2 1766   7.057   7.055  10.740 -0.1390  0.0875  0.0590
  111loPI   C1A 1767   6.924   6.579  10.608 -0.0924  0.0482 -0.1177
  111loPI   C2A 1768   6.918   6.512  10.155 -0.2356  0.0172  0.2199
  111loPI   C3A 1769   6.987   6.633   9.697 -0.0514  0.1594 -0.1441
  111loPI   C4A 1770   6.959   6.684   9.193  0.0374  0.0092 -0.0192
  111loPI   C5A 1771   6.973   6.711   8.787  0.0616 -0.1693 -0.0176
  111loPI   C6A 1772   7.429   6.670   8.793 -0.0395 -0.0798 -0.2391
  111loPI   C1B 1773   7.091   6.970  10.293 -0.1919 -0.0944 -0.0487
  111loPI   C2B 1774   7.008   7.069   9.883 -0.0077 -0.0843  0.1245
  111loPI   C3B 1775   7.067   7.151   9.485  0.4796  0.1468 -0.0933
  111loPI   C4B 1776   7.084   7.153   9.105  0.0928  0.2923  0.0173
  112loPI    C1 1777   9.264   5.775  10.888 -0.1784  0.0107 -0.1744
  112loPI    C2 1778   9.094   5.990  11.180  0.1109  0.2190 -0.1549
  112loPI    C3 1779   9.175   5.602  11.237 -0.0100  0.2117 -0.0288
  112loPI   PO4 1780   9.263   6.017  10.716 -0.0764 -0.0593 -0.0619
  112loPI   GL1 1781   9.045   6.169  10.351  0.0816  0.2736  0.0013
  112loPI   GL2 1782   8.732   6.240  10.353 -0.0200  0.4515 -0.1735
  112loPI   C1A 1783   9.235   6.332  10.033  0.2032  0.3002 -0.0235
  112loPI   C2A 1784   9.242   6.388   9.582  0.1109 -0.1910 -0.2217
  112loPI   C3A 1785   9.148   6.524   9.098  0.0031  0.0105  0.0686
  112loPI   C4A 1786   9.253   6.400   8.613 -0.0955 -0.0623  0.2438
  112loPI   C5A 1787   9.026   6.391   8.240  0.0733 -0.0488  0.0857
  112loPI   C6A 1788   8.711   6.401   7.949  0.1171 -0.1631 -0.1102
  112loPI   C1B 1789   8.725   6.101   9.968  0.3166  0.0724  0.2569
  112loPI   C2B 1790   8.662   6.230   9.531  0.0754 -0.1202  0.1665
  112loPI   C3B 1791   8.685   6.234   9.117  0.1254 -0.1007  0.0258
  112loPI   C4B 1792   8.798   6.380   8.779  0.2428  0.1540 -0.0207
  113loPI    C1 1793  17.685   5.014  11.273  0.2114  0.3114 -0.1518
  113loPI    C2 1794  17.489   5.274  11.505  0.3314  0.2858 -0.0204
  113loPI    C3 1795  17.801   5.072  11.651 -0.0148 -0.2450  0.0130
  113loPI   PO4 1796  17.716   5.186  11.078  0.1191 -0.1606 -0.2846
  113loPI   GL1 1797  17.727   5.372  10.754  0.2353  0.1567 -0.0912
  113loPI   GL2 1798  18.072   5.358  10.751  0.3732  0.1405 -0.2520
  113loPI   C1A 1799  17.584   5.277  10.283  0.2095  0.3850  0.0815
  113loPI   C2A 1800  17.565   5.196   9.882  0.5139  0.2681 -0.0558
  113loPI   C3A 1801  17.595   5.234   9.419  0.3671  0.0126 -0.1141
  113loPI   C4A 1802  17.621   5.283   8.995 -0.2482  0.3488  0.2984
  113loPI   C5A 1803  17.892   5.328   8.698 -0.0293  0.1252  0.1343
  113loPI   C6A 1804  18.185   5.512   8.327 -0.0268  0.0327 -0.0035
  113loPI   C1B 1805  18.132   5.444  10.352  0.0918  0.3947  0.0728
  113loPI   C2B 1806  18.074   5.345   9.888  0.4253  0.3609 -0.0127
  113loPI   C3B 1807  18.047   5.431   9.552  0.0457 -0.0734 -0.0227
  113loPI   C4B 1808  18.114   5.406   9.085  0.0110  0.0080 -0.2068
  114loPI    C1 1809   7.579   2.813  11.227 -0.0029 -0.0221 -0.0545
  114loPI    C2 1810   7.299   3.080  11.333 -0.1226 -0.1467 -0.0538
  114loPI    C3 1811   7.569   2.956  11.601 -0.1950 -0.1817  0.0033
  114loPI   PO4 1812   7.651   2.839  11.070 -0.0347  0.0396  0.0896
  114loPI   GL1 1813   7.867   2.672  10.786  0.2194  0.0651  0.2556
  114loPI   GL2 1814   7.903   2.991  10.690 -0.0101  0.1739  0.1637
  114loPI   C1A 1815   7.835   2.562  10.389  0.0775  0.1260 -0.1809
  114loPI   C2A 1816   7.801   2.643   9.891 -0.2326  0.0555 -0.1295
  114loPI   C3A 1817   7.773   2.728   9.440 -0.0886 -0.1536 -0.0297
  114loPI   C4A 1818   7.857   2.772   9.003  0.1951  0.1661  0.0326
  114loPI   C5A 1819   7.700   2.756   8.594  0.1380  0.1326 -0.1485
  114loPI   C6A 1820   7.803   2.656   8.135 -0.1919 -0.1325 -0.2113
  114loPI   C1B 1821   7.952   3.068  10.217  0.1389 -0.1522  0.2250
  114loPI   C2B 1822   7.988   3.151   9.816 -0.1410 -0.0264  0.2194
  114loPI   C3B 1823   8.000   3.196   9.422  0.1595 -0.0155 -0.1827
  114loPI   C4B 1824   7.915   3.289   8.946  0.0881 -0.1967  0.0405
  115loPI    C1 1825   6.596  17.324  11.449  0.1252  0.1972  0.2143
  115loPI    C2 1826   6.269  17.355  11.678  0.0762  0.2611  0.1362
  115loPI    C3 1827   6.630  17.428  11.833  0.0627  0.0945  0.2483
  115loPI   PO4 1828   6.516  17.407  11.231 -0.3128 -0.0103 -0.0306
  115loPI   GL1 1829   6.516  17.578  10.898 -0.0794 -0.2183  0.1246
  115loPI   GL2 1830   6.709  17.285  10.704  0.0093 -0.1612  0.0758
  115loPI   C1A 1831   6.276  17.534  10.540  0.1815  0.1131 -0.0137
  115loPI   C2A 1832   6.226  17.560  10.097 -0.0831 -0.1520 -0.0162
  115loPI   C3A 1833   6.275  17.588   9.701 -0.1557  0.1792  0.1999
  115loPI   C4A 1834   6.212  17.652   9.357 -0.2043  0.0555 -0.0588
  115loPI   C5A 1835   6.172  17.689   8.896 -0.1572  0.3035  0.0002
  115loPI   C6A 1836   6.201  17.506   8.543  0.1459  0.0878 -0.0090
  115loPI   C1B 1837   6.524  17.185  10.261 -0.0289 -0.2039 -0.1737
  115loPI   C2B 1838   6.560  17.179   9.873  0.1431  0.0025  0.2496
  115loPI   C3B 1839   6.579  17.258   9.442  0.2187  0.1346  0.0570
  115loPI   C4B 1840   6.519  17.258   8.997 -0.2589  0.0505  0.0850
  116loPI    C1 1841  17.559   3.484  11.605  0.0061 -0.3301 -0.0188
  116loPI    C2 1842  17.271   3.484  11.882 -0.0107 -0.0124 -0.0327
  116loPI    C3 1843  17.632   3.631  11.969  0.0572 -0.1328 -0.1076
  116loPI   PO4 1844  17.455   3.584  11.392  0.2486 -0.5530  0.2329
  116loPI   GL1 1845  17.423   3.438  10.986 -0.0497  0.1737 -0.1292
  116loPI   GL2 1846  17.752   3.499  10.926 -0.1322  0.2880  0.0529
  116loPI   C1A 1847  17.550   3.414  10.490 -0.0792  0.1853  0.2720
  116loPI   C2A 1848  17.542   3.390  10.015 -0.1178 -0.0128 -0.0292
  116loPI   C3A 1849  17.630   3.428   9.649  0.0479 -0.2489  0.0423
  116loPI   C4A 1850  17.622   3.459   9.239 -0.0032 -0.0587 -0.2248
  116loPI   C5A 1851  17.342   3.323   8.880  0.5366  0.0471  0.1184
  116loPI   C6A 1852  17.110   2.972   8.779 -0.0952  0.1345  0.2128
  116loPI   C1B 1853  18.033   3.574  10.515 -0.3029 -0.1888  0.4264
  116loPI   C2B 1854  17.990   3.590  10.163  0.1673 -0.0339 -0.1411
  116loPI   C3B 1855  18.107   3.584   9.747 -0.1180  0.0737  0.0467
  116loPI   C4B 1856  18.109   3.558   9.323  0.3331 -0.1918 -0.1635
  117loPI    C1 1857  12.241  17.516  11.895  0.1674  0.0041  0.0657
  117loPI    C2 1858  12.153  17.699  12.239 -0.2402 -0.1526  0.0504
  117loPI    C3 1859  12.455  17.438  12.223 -0.0780  0.0205  0.2323
  117loPI   PO4 1860  12.128  17.510  11.632  0.0719 -0.0681 -0.0493
  117loPI   GL1 1861  12.103  17.294  11.242 -0.2512 -0.0567 -0.1694
  117loPI   GL2 1862  12.260  17.461  11.048  0.0971 -0.0572  0.0991
  117loPI   C1A 1863  11.989  17.034  10.837 -0.0351  0.0862  0.0077
  117loPI   C2A 1864  11.992  17.022  10.422 -0.4090 -0.1506 -0.1612
  117loPI   C3A 1865  12.009  17.108   9.947 -0.0206 -0.1818 -0.0019
  117loPI   C4A 1866  12.067  17.172   9.513 -0.0149 -0.0732  0.0292
  117loPI   C5A 1867  12.035  17.135   9.083 -0.1199 -0.0976  0.3264
  117loPI   C6A 1868  12.097  16.864   8.779  0.0932  0.0554  0.1458
  117loPI   C1B 1869  12.150  17.527  10.656  0.0688 -0.1922 -0.0854
  117loPI   C2B 1870  12.119  17.608  10.194 -0.0798 -0.0248 -0.1777
  117loPI   C3B 1871  12.171  17.652   9.781 -0.0284  0.0252  0.3809
  117loPI   C4B 1872  12.210  17.687   9.315  0.0547  0.2309 -0.3682
  118loPI    C1 1873  12.229  14.706  11.863 -0.0114  0.1962 -0.1935
  118loPI    C2 1874  11.914  14.486  11.974  0.0396  0.1095 -0.2191
  118loPI    C3 1875  12.203  14.569  12.238 -0.0470  0.2641 -0.1710
  118loPI   PO4 1876  12.283  14.610  11.686 -0.2327  0.0547  0.1603
  118loPI   GL1 1877  12.276  14.562  11.267  0.0130  0.0914 -0.1560
  118loPI   GL2 1878  12.334  14.818  11.239 -0.0280 -0.0394  0.0398
  118loPI   C1A 1879  12.370  14.377  10.886  0.2397 -0.0944 -0.1318
  118loPI   C2A 1880  12.399  14.404  10.487 -0.2662  0.0264  0.3301
  118loPI   C3A 1881  12.359  14.374  10.114  0.0772  0.1945  0.0093
  118loPI   C4A 1882  12.309  14.304   9.623 -0.0201 -0.1910  0.0645
  118loPI   C5A 1883  12.464  14.415   9.180  0.0276 -0.0565 -0.1361
  118loPI   C6A 1884  12.346  14.563   8.864 -0.0645 -0.0429 -0.3426
  118loPI   C1B 1885  12.379  14.858  10.773  0.1921  0.0082 -0.0880
  118loPI   C2B 1886  12.468  14.901  10.355  0.0299  0.1012 -0.0989
  118loPI   C3B 1887  12.494  14.913   9.962 -0.0162 -0.2366  0.0647
  118loPI   C4B 1888  12.510  14.935   9.553 -0.2825  0.2094  0.0241
  119loPI    C1 1889   5.216   7.928  11.432 -0.1908  0.2250  0.0079
  119loPI    C2 1890   5.351   7.813  11.790  0.0863 -0.0955 -0.1938
  119loPI    C3 1891   4.957   7.829  11.721  0.0228  0.2384  0.2066
  119loPI   PO4 1892   5.446   8.123  11.329 -0.3134 -0.5185 -0.2404
  119loPI   GL1 1893   5.479   8.124  10.910  0.4728 -0.2302 -0.1704
  119loPI   GL2 1894   5.464   8.402  10.780  0.3626  0.0498  0.1906
  119loPI   C1A 1895   5.403   7.971  10.497 -0.2156 -0.0737 -0.1936
  119loPI   C2A 1896   5.498   8.039  10.145  0.3149 -0.0466 -0.1520
  119loPI   C3A 1897   5.475   7.950   9.691  0.1699 -0.1232  0.0408
  119loPI   C4A 1898   5.427   8.019   9.220  0.1412 -0.1414 -0.0410
  119loPI   C5A 1899   5.530   8.106   8.746  0.0882  0.2287 -0.1311
  119loPI   C6A 1900   5.620   8.358   8.433  0.0311 -0.0580 -0.0864
  119loPI   C1B 1901   5.567   8.485  10.264 -0.0316  0.0204  0.3073
  119loPI   C2B 1902   5.623   8.496   9.810  0.1751  0.3000  0.1495
  119loPI   C3B 1903   5.598   8.553   9.431 -0.0860 -0.1487 -0.0237
  119loPI   C4B 1904   5.598   8.593   8.928  0.1909 -0.1579 -0.0011
  120loPI    C1 1905   4.520  12.576  11.235 -0.0246  0.0191  0.1070
  120loPI    C2 1906   4.500  12.490  11.626  0.0512  0.2205  0.1563
  120loPI    C3 1907   4.481  12.870  11.503  0.0815  0.1622 -0.0331
  120loPI   PO4 1908   4.622  12.348  11.139  0.3766 -0.0500  0.1245
  120loPI   GL1 1909   4.630  12.344  10.730  0.1135 -0.2797 -0.1501
  120loPI   GL2 1910   4.614  12.092  10.720  0.0389  0.0721  0.1416
  120loPI   C1A 1911   4.691  12.417  10.223 -0.1959 -0.1302 -0.3023
  120loPI   C2A 1912   4.734  12.391   9.825 -0.4223  0.0760 -0.1010
  120loPI   C3A 1913   4.561  12.322   9.483 -0.0318 -0.1185  0.2522
  120loPI   C4A 1914   4.635  12.399   9.175 -0.1325 -0.0548 -0.2395
  120loPI   C5A 1915   4.587  12.398   8.782  0.1383 -0.2279 -0.0094
  120loPI   C6A 1916   4.615  12.513   8.265  0.2201 -0.1117  0.1884
  120loPI   C1B 1917   4.585  11.956  10.301 -0.0413  0.2686  0.0373
  120loPI   C2B 1918   4.532  11.901   9.818 -0.2046 -0.0194 -0.0945
  120loPI   C3B 1919   4.528  11.789   9.333  0.0671  0.2805  0.4464
  120loPI   C4B 1920   4.358  11.967   8.915 -0.2353  0.1105  0.0013
  121loPI    C1 1921  16.180  12.662  11.244 -0.1542 -0.0243  0.3335
  121loPI    C2 1922  16.399  12.994  11.287 -0.0004 -0.0725 -0.0415
  121loPI    C3 1923  16.206  12.841  11.601 -0.0984  0.3863  0.1302
  121loPI   PO4 1924  16.089  12.738  10.938 -0.0127  0.1632  0.1996
  121loPI   GL1 1925  16.260  13.097  10.772 -0.0919 -0.1096 -0.0197
  121loPI   GL2 1926  16.034  13.342  10.890 -0.0734 -0.1331 -0.2551
  121loPI   C1A 1927  16.141  13.320  10.281 -0.2430  0.2304  0.0795
  121loPI   C2A 1928  16.173  13.360   9.847  0.0650  0.2300  0.1783
  121loPI   C3A 1929  16.119  13.271   9.431  0.1616  0.1100 -0.0375
  121loPI   C4A 1930  16.277  13.279   9.084  0.1525  0.2590 -0.0346
  121loPI   C5A 1931  15.939  13.324   8.813  0.0172 -0.0574 -0.1813
  121loPI   C6A 1932  15.656  13.139   8.655 -0.0310  0.0589  0.0606
  121loPI   C1B 1933  15.795  13.676  10.593  0.1935  0.2036  0.0416
  121loPI   C2B 1934  15.787  13.637  10.152  0.0461 -0.0562  0.2071
  121loPI   C3B 1935  15.759  13.596   9.767  0.0250  0.0194  0.2753
  121loPI   C4B 1936  15.794  13.554   9.214 -0.2117  0.0316 -0.2469
  122loPI    C1 1937   7.260  10.297  11.464  0.0010  0.0780  0.0455
  122loPI    C2 1938   6.952  10.196  11.697 -0.1013 -0.4027 -0.2828
  122loPI    C3 1939   7.280   9.967  11.688  0.2083  0.0163 -0.0610
  122loPI   PO4 1940   7.144  10.336  11.251  0.2016  0.0112  0.1356
  122loPI   GL1 1941   7.255  10.402  10.865 -0.1285 -0.0693 -0.1425
  122loPI   GL2 1942   7.521  10.516  10.643  0.1596  0.1073 -0.2204
  122loPI   C1A 1943   7.044  10.353  10.568  0.1472 -0.1228  0.2523
  122loPI   C2A 1944   6.892  10.250  10.170 -0.1783  0.0787  0.0927
  122loPI   C3A 1945   6.881  10.345   9.696 -0.2169  0.0138  0.0726
  122loPI   C4A 1946   6.874  10.344   9.214 -0.1164 -0.1890  0.1554
  122loPI   C5A 1947   6.784  10.401   8.786 -0.0091  0.0257 -0.0522
  122loPI   C6A 1948   6.765  10.607   8.348  0.3127 -0.0621 -0.1271
  122loPI   C1B 1949   7.451  10.382  10.185  0.0650 -0.1082 -0.2267
  122loPI   C2B 1950   7.415  10.488   9.739 -0.0707 -0.0619 -0.1623
  122loPI   C3B 1951   7.360  10.477   9.287 -0.1679 -0.0089 -0.2840
  122loPI   C4B 1952   7.266  10.502   8.859 -0.1593  0.2664 -0.0969
  123loPI    C1 1953  16.337   6.163  11.546 -0.0578 -0.0718 -0.1132
  123loPI    C2 1954  16.267   6.404  11.858 -0.2494 -0.1741 -0.0754
  123loPI    C3 1955  16.467   6.061  11.910 -0.1233 -0.1048 -0.0989
  123loPI   PO4 1956  16.103   6.172  11.440  0.2238  0.0141 -0.0614
  123loPI   GL1 1957  16.134   6.010  11.050  0.0652  0.0875  0.0241
  123loPI   GL2 1958  16.449   6.048  10.999 -0.2682  0.0658 -0.1821
  123loPI   C1A 1959  15.886   6.046  10.717 -0.1091  0.0319  0.2301
  123loPI   C2A 1960  15.877   6.098  10.298  0.0823  0.0538 -0.2266
  123loPI   C3A 1961  15.962   6.080   9.864  0.2410 -0.2963  0.2409
  123loPI   C4A 1962  15.894   6.171   9.520  0.0490  0.1329 -0.0549
  123loPI   C5A 1963  15.877   6.158   9.050 -0.0229  0.4655  0.1478
  123loPI   C6A 1964  15.974   6.030   8.732 -0.2065  0.0972  0.3026
  123loPI   C1B 1965  16.385   6.237  10.676  0.2695 -0.3239  0.2522
  123loPI   C2B 1966  16.428   6.239  10.124 -0.0917  0.2188  0.0345
  123loPI   C3B 1967  16.395   6.290   9.612 -0.3770 -0.0623 -0.0605
  123loPI   C4B 1968  16.345   6.366   9.080 -0.1492 -0.2785 -0.2599
  124loPI    C1 1969   1.192   6.126  11.279  0.2050 -0.0687  0.0735
  124loPI    C2 1970   1.172   5.750  11.143  0.3988 -0.0614  0.0216
  124loPI    C3 1971   1.332   5.824  11.502  0.0179 -0.0658  0.1971
  124loPI   PO4 1972   1.166   6.240  10.999  0.3075  0.0988 -0.0317
  124loPI   GL1 1973   0.964   5.993  10.655  0.2465 -0.1200  0.0851
  124loPI   GL2 1974   1.295   5.869  10.644  0.2986 -0.2043 -0.4044
  124loPI   C1A 1975   0.907   6.044  10.192 -0.4887 -0.0751  0.0925
  124loPI   C2A 1976   0.840   6.071   9.782 -0.1211 -0.1009  0.2353
  124loPI   C3A 1977   0.892   6.006   9.297 -0.0788 -0.3958 -0.2674
  124loPI   C4A 1978   0.926   6.209   8.881 -0.0601 -0.0210 -0.1654
  124loPI   C5A 1979   0.982   6.405   8.494  0.1547  0.2548 -0.1424
  124loPI   C6A 1980   0.979   6.387   8.093  0.1326  0.1492  0.0724
  124loPI   C1B 1981   1.339   5.792  10.228 -0.1017  0.1320 -0.0777
  124loPI   C2B 1982   1.244   5.686   9.768  0.0910  0.0093 -0.2374
  124loPI   C3B 1983   1.322   5.757   9.375 -0.2544 -0.0865  0.1456
  124loPI   C4B 1984   1.357   5.788   8.984  0.2600  0.0732 -0.1144
  125loPI    C1 1985  10.182   8.754  11.498  0.0003  0.0805  0.1669
  125loPI    C2 1986  10.305   8.535  11.809  0.0538 -0.1095  0.0137
  125loPI    C3 1987  10.059   8.845  11.867  0.1007 -0.1150  0.2498
  125loPI   PO4 1988  10.151   8.607  11.280 -0.0258  0.0377 -0.0843
  125loPI   GL1 1989  10.216   8.530  10.883  0.4411  0.2734 -0.1392
  125loPI   GL2 1990  10.393   8.389  10.862  0.1783  0.0383 -0.0590
  125loPI   C1A 1991  10.370   8.788  10.542 -0.0138 -0.1557  0.0406
  125loPI   C2A 1992  10.325   8.991  10.191  0.1938 -0.1691  0.0473
  125loPI   C3A 1993  10.283   8.986   9.769  0.0986  0.1592 -0.2345
  125loPI   C4A 1994  10.234   9.047   9.355 -0.0634 -0.2270 -0.3212
  125loPI   C5A 1995  10.300   9.009   8.858 -0.2267 -0.1982  0.1597
  125loPI   C6A 1996  10.281   9.115   8.401 -0.1699  0.1595  0.3710
  125loPI   C1B 1997  10.503   8.290  10.487  0.2042  0.1276  0.1731
  125loPI   C2B 1998  10.539   8.191  10.050 -0.3255 -0.0428  0.1959
  125loPI   C3B 1999  10.552   8.191   9.642 -0.1112  0.2764 -0.0059
  125loPI   C4B 2000  10.487   8.130   9.203  0.3252  0.1106 -0.1473
  126loPI    C1 2001   4.328   1.438  11.645  0.0405 -0.1079 -0.0856
  126loPI    C2 2002   4.720   1.390  11.708  0.0459 -0.1254 -0.1323
  126loPI    C3 2003   4.510   1.642  11.937  0.0849 -0.1142 -0.1089
  126loPI   PO4 2004   4.348   1.573  11.387 -0.0410 -0.1194 -0.0684
  126loPI   GL1 2005   4.163   1.226  11.037 -0.1363  0.0211 -0.1205
  126loPI   GL2 2006   4.367   1.042  10.838  0.0941  0.1766  0.1044
  126loPI   C1A 2007   3.953   1.294  10.672 -0.1760 -0.3698 -0.2197
  126loPI   C2A 2008   3.943   1.374  10.251  0.2654  0.0438 -0.2973
  126loPI   C3A 2009   3.917   1.451   9.873 -0.1858 -0.0554 -0.0950
  126loPI   C4A 2010   3.972   1.547   9.498 -0.0937 -0.2124 -0.3341
  126loPI   C5A 2011   3.906   1.486   9.019  0.0824 -0.1280  0.1087
  126loPI   C6A 2012   3.712   1.452   8.668 -0.0677  0.1383  0.2004
  126loPI   C1B 2013   4.307   1.003  10.413  0.0285  0.0815  0.1639
  126loPI   C2B 2014   4.271   0.987   9.966 -0.0446 -0.0154  0.2855
  126loPI   C3B 2015   4.273   1.153   9.580 -0.2160  0.0166  0.1904
  126loPI   C4B 2016   4.161   1.090   9.170 -0.1008  0.1064 -0.0261
  127loPI    C1 2017   4.762   3.959  11.567  0.2393  0.0670  0.0854
  127loPI    C2 2018   4.793   4.350  11.642 -0.1189  0.1240 -0.0461
  127loPI    C3 2019   4.702   4.097  11.938 -0.1014  0.1674 -0.0033
  127loPI   PO4 2020   4.599   4.047  11.242 -0.1095  0.0416 -0.3491
  127loPI   GL1 2021   4.579   3.926  10.826  0.1643  0.0414  0.1246
  127loPI   GL2 2022   4.597   4.306  10.748 -0.0314  0.0347 -0.0136
  127loPI   C1A 2023   4.508   3.931  10.346 -0.2806  0.0502  0.1336
  127loPI   C2A 2024   4.445   4.001   9.975 -0.3559 -0.1687 -0.0588
  127loPI   C3A 2025   4.528   4.022   9.606 -0.0048  0.0857 -0.0988
  127loPI   C4A 2026   4.569   4.054   9.209  0.0934  0.0309  0.1642
  127loPI   C5A 2027   4.588   4.022   8.772  0.1715 -0.0284  0.0271
  127loPI   C6A 2028   4.621   3.981   8.300  0.1016  0.0551  0.0965
  127loPI   C1B 2029   4.645   4.403  10.326 -0.2050 -0.2741 -0.2283
  127loPI   C2B 2030   4.552   4.497   9.947  0.0846 -0.1586 -0.2662
  127loPI   C3B 2031   4.685   4.453   9.581 -0.1009  0.0101 -0.0997
  127loPI   C4B 2032   4.623   4.522   9.085  0.1244 -0.1662  0.1682
  128loPI    C1 2033   7.407   4.103  11.239 -0.0111  0.0899 -0.1435
  128loPI    C2 2034   7.602   4.374  11.458  0.2021 -0.0542 -0.1523
  128loPI    C3 2035   7.220   4.287  11.541  0.2378 -0.0048  0.0716
  128loPI   PO4 2036   7.392   4.226  11.007 -0.3549  0.0727 -0.2242
  128loPI   GL1 2037   7.360   4.221  10.583 -0.1240 -0.3501 -0.1087
  128loPI   GL2 2038   7.614   4.023  10.571 -0.0521 -0.1240  0.1887
  128loPI   C1A 2039   7.330   4.287  10.155  0.2687  0.0530  0.2919
  128loPI   C2A 2040   7.261   4.355   9.690 -0.1899  0.2180  0.1679
  128loPI   C3A 2041   7.284   4.426   9.275 -0.2187 -0.1842 -0.2465
  128loPI   C4A 2042   7.272   4.535   8.895 -0.1487 -0.0993  0.1139
  128loPI   C5A 2043   6.965   4.705   8.585 -0.2473  0.0965  0.0825
  128loPI   C6A 2044   6.845   5.100   8.646  0.0763  0.1093  0.0506
  128loPI   C1B 2045   7.678   3.961  10.040  0.2102 -0.3744 -0.0227
  128loPI   C2B 2046   7.694   4.045   9.607 -0.1127  0.2223  0.0463
  128loPI   C3B 2047   7.682   4.108   9.161 -0.2268  0.0280 -0.1282
  128loPI   C4B 2048   7.631   4.205   8.733 -0.0143  0.1483 -0.1888
  129loPI    C1 2049  15.641  13.514  11.876  0.1418 -0.2011  0.0602
  129loPI    C2 2050  15.795  13.158  11.977  0.0935 -0.2180  0.0740
  129loPI    C3 2051  15.775  13.452  12.248  0.1056 -0.2144  0.0710
  129loPI   PO4 2052  15.640  13.475  11.560 -0.1247 -0.0964  0.0042
  129loPI   GL1 2053  15.682  13.564  11.133 -0.1019 -0.0559 -0.2697
  129loPI   GL2 2054  15.405  13.725  11.190  0.1864 -0.3184  0.1059
  129loPI   C1A 2055  15.386  13.482  10.720  0.1285  0.0325  0.4353
  129loPI   C2A 2056  15.351  13.397  10.272  0.4737  0.1432 -0.2027
  129loPI   C3A 2057  15.299  13.475   9.870 -0.1288  0.4214 -0.2685
  129loPI   C4A 2058  15.352  13.495   9.433  0.0899  0.2157 -0.1261
  129loPI   C5A 2059  15.324  13.452   8.999  0.0088 -0.0156 -0.1730
  129loPI   C6A 2060  15.292  13.512   8.520 -0.0329 -0.1084 -0.0122
  129loPI   C1B 2061  15.441  13.967  10.841 -0.4266 -0.0177 -0.0483
  129loPI   C2B 2062  15.378  13.944  10.335 -0.1742  0.1076  0.0621
  129loPI   C3B 2063  15.417  13.922   9.843 -0.1076  0.1060  0.1982
  129loPI   C4B 2064  15.462  13.964   9.420  0.0862 -0.0838  0.1171
  130loPI    C1 2065  13.231   1.709  11.447 -0.2126  0.1231 -0.1549
  130loPI    C2 2066  13.022   1.862  11.752 -0.1859  0.0816 -0.1156
  130loPI    C3 2067  13.203   1.507  11.792 -0.0959  0.1241 -0.1443
  130loPI   PO4 2068  13.073   1.711  11.216  0.1506  0.0531 -0.2272
  130loPI   GL1 2069  13.084   1.775  10.896 -0.1165 -0.0607  0.0140
  130loPI   GL2 2070  13.050   2.048  10.745 -0.0653  0.3999 -0.0295
  130loPI   C1A 2071  12.929   1.494  10.622 -0.0661 -0.1621 -0.2032
  130loPI   C2A 2072  12.985   1.457  10.122 -0.3596  0.0602  0.1052
  130loPI   C3A 2073  13.011   1.583   9.690 -0.0476 -0.0883 -0.2785
  130loPI   C4A 2074  12.974   1.550   9.205 -0.2606  0.2360 -0.0587
  130loPI   C5A 2075  13.020   1.510   8.842 -0.0062 -0.0645 -0.0893
  130loPI   C6A 2076  12.886   1.238   8.598  0.0078  0.0466  0.0397
  130loPI   C1B 2077  13.064   1.999  10.360 -0.0893 -0.0361 -0.1496
  130loPI   C2B 2078  13.174   1.996   9.881 -0.0370  0.3153  0.0580
  130loPI   C3B 2079  13.092   1.984   9.381 -0.0222 -0.0038  0.0637
  130loPI   C4B 2080  13.075   1.983   8.959  0.2381  0.1891 -0.3743
  131loPI    C1 2081  14.628  15.233  11.678 -0.0093 -0.0404 -0.0034
  131loPI    C2 2082  14.396  14.963  11.859  0.2039 -0.3871 -0.2341
  131loPI    C3 2083  14.665  15.171  12.071 -0.0651 -0.2407 -0.0291
  131loPI   PO4 2084  14.623  15.289  11.400  0.1837  0.0863 -0.0935
  131loPI   GL1 2085  14.753  15.179  11.045 -0.3290 -0.2207 -0.2988
  131loPI   GL2 2086  14.702  14.823  11.019 -0.1954 -0.2749 -0.1664
  131loPI   C1A 2087  14.861  15.128  10.604  0.0987 -0.0655  0.1697
  131loPI   C2A 2088  14.840  15.234  10.086 -0.0894  0.2098  0.0140
  131loPI   C3A 2089  14.924  15.227   9.656  0.2011  0.0655 -0.0714
  131loPI   C4A 2090  14.821  15.205   9.273  0.1634 -0.0196  0.4079
  131loPI   C5A 2091  14.913  15.454   8.956  0.1185 -0.1124  0.0694
  131loPI   C6A 2092  14.805  15.862   9.037 -0.0443 -0.3472  0.0596
  131loPI   C1B 2093  14.714  14.663  10.632 -0.2443  0.2223  0.0968
  131loPI   C2B 2094  14.723  14.682  10.171 -0.0219  0.0632 -0.0262
  131loPI   C3B 2095  14.733  14.774   9.774  0.0917  0.1346 -0.0856
  131loPI   C4B 2096  14.657  14.681   9.353 -0.0228  0.2119  0.0740
  132loPI    C1 2097  15.375   5.749  11.709  0.0451 -0.0427  0.0940
  132loPI    C2 2098  15.113   5.681  12.004 -0.3330  0.1060 -0.1994
  132loPI    C3 2099  15.200   6.056  11.897 -0.1461  0.0536 -0.2348
  132loPI   PO4 2100  15.347   5.575  11.523 -0.1438 -0.0057  0.0606
  132loPI   GL1 2101  15.442   5.563  11.021 -0.1059 -0.0689  0.0971
  132loPI   GL2 2102  15.674   5.585  10.881 -0.3828 -0.1689 -0.3515
  132loPI   C1A 2103  15.279   5.401  10.699  0.2829  0.2003  0.0990
  132loPI   C2A 2104  15.333   5.421  10.257 -0.1830 -0.5011 -0.0365
  132loPI   C3A 2105  15.369   5.500   9.787  0.1373  0.0261 -0.3587
  132loPI   C4A 2106  15.340   5.494   9.324  0.1611 -0.2014 -0.3090
  132loPI   C5A 2107  15.173   5.518   9.017  0.0878 -0.1913 -0.1643
  132loPI   C6A 2108  15.071   5.318   8.683  0.0941 -0.0178 -0.1165
  132loPI   C1B 2109  15.755   5.613  10.515 -0.0934  0.1167  0.1021
  132loPI   C2B 2110  15.894   5.611  10.067  0.0955  0.1540  0.2698
  132loPI   C3B 2111  15.872   5.662   9.589 -0.4747  0.0196 -0.2832
  132loPI   C4B 2112  15.732   5.659   9.092 -0.1281 -0.3093  0.1969
  133loPI    C1 2113  11.523  13.618  11.576 -0.1624  0.0791  0.1093
  133loPI    C2 2114  11.805  13.458  11.811 -0.1095 -0.1874 -0.1299
  133loPI    C3 2115  11.467  13.601  11.972 -0.0169 -0.2429  0.1192
  133loPI   PO4 2116  11.621  13.810  11.505  0.0262 -0.1260  0.0445
  133loPI   GL1 2117  11.790  13.954  11.151  0.1586 -0.0461 -0.1086
  133loPI   GL2 2118  11.909  13.764  10.951  0.0931 -0.0554  0.0587
  133loPI   C1A 2119  11.883  14.232  10.799  0.0224 -0.0514 -0.0694
  133loPI   C2A 2120  11.868  14.170  10.379 -0.0270 -0.1926  0.0070
  133loPI   C3A 2121  11.831  14.307   9.953 -0.2502 -0.1500 -0.1539
  133loPI   C4A 2122  11.858  14.170   9.544 -0.2149  0.0152  0.0936
  133loPI   C5A 2123  11.980  14.410   9.199  0.1668  0.0886 -0.0610
  133loPI   C6A 2124  11.711  14.745   8.877 -0.1793 -0.0610 -0.3831
  133loPI   C1B 2125  11.785  13.711  10.585 -0.0127 -0.1458  0.2463
  133loPI   C2B 2126  11.698  13.645  10.195  0.1036  0.0986  0.2963
  133loPI   C3B 2127  11.685  13.734   9.778  0.0806  0.0163 -0.1260
  133loPI   C4B 2128  11.834  13.722   9.267  0.1996  0.0638  0.1516
  134loPI    C1 2129   5.528  17.566  11.720 -0.2207  0.0787  0.0783
  134loPI    C2 2130   5.795  17.745  11.959 -0.3438 -0.0751  0.3357
  134loPI    C3 2131   5.787  17.346  11.931 -0.2140 -0.0536 -0.0666
  134loPI   PO4 2132   5.565  17.645  11.451  0.1102  0.0091 -0.0305
  134loPI   GL1 2133   5.548  17.905  11.084 -0.0572  0.2724 -0.0252
  134loPI   GL2 2134   5.570  17.591  10.973 -0.0115 -0.2233  0.2099
  134loPI   C1A 2135   5.500  18.011  10.685  0.0882  0.2011 -0.1287
  134loPI   C2A 2136   5.592  18.259  10.397  0.1015 -0.1478 -0.1394
  134loPI   C3A 2137   5.536  18.336   9.934  0.5962  0.2993  0.1546
  134loPI   C4A 2138   5.476  18.330   9.471  0.0801  0.2656 -0.1847
  134loPI   C5A 2139   5.465  18.316   9.000 -0.4146 -0.1500 -0.1336
  134loPI   C6A 2140   5.454  18.059   8.638  0.2171 -0.4184 -0.0759
  134loPI   C1B 2141   5.699  17.374  10.597  0.3427 -0.2129 -0.0359
  134loPI   C2B 2142   5.743  17.382  10.202  0.2354 -0.1207  0.1929
  134loPI   C3B 2143   5.798  17.445   9.802 -0.0207 -0.1520 -0.0620
  134loPI   C4B 2144   5.703  17.502   9.326 -0.0399 -0.3181 -0.1740
  135loPI    C1 2145   4.542  15.571  11.816  0.1080  0.0025  0.1127
  135loPI    C2 2146   4.932  15.615  11.889  0.1508 -0.0512 -0.0775
  135loPI    C3 2147   4.740  15.288  12.015  0.2251 -0.1462 -0.2080
  135loPI   PO4 2148   4.545  15.615  11.592  0.2826 -0.2578 -0.1500
  135loPI   GL1 2149   4.548  15.611  11.106 -0.1760  0.0352 -0.1552
  135loPI   GL2 2150   4.854  15.635  10.920  0.0241  0.1494 -0.3038
  135loPI   C1A 2151   4.456  15.457  10.686  0.0780 -0.0286  0.3601
  135loPI   C2A 2152   4.447  15.532  10.248  0.0428  0.2196  0.1885
  135loPI   C3A 2153   4.389  15.589   9.793  0.0445 -0.1184 -0.0952
  135loPI   C4A 2154   4.383  15.659   9.355 -0.4695  0.2122  0.0012
  135loPI   C5A 2155   4.496  15.716   8.986 -0.0113 -0.0509  0.2021
  135loPI   C6A 2156   4.581  15.690   8.543  0.1223  0.2450 -0.1116
  135loPI   C1B 2157   4.953  15.732  10.575  0.2816 -0.0918  0.1422
  135loPI   C2B 2158   4.893  15.771  10.134 -0.1775 -0.1084  0.3073
  135loPI   C3B 2159   4.933  15.767   9.705 -0.3554 -0.2990  0.2720
  135loPI   C4B 2160   4.901  15.844   9.293 -0.3991 -0.1755  0.0684
  136loPI    C1 2161   2.473   6.809  11.514  0.2771 -0.0536  0.0346
  136loPI    C2 2162   2.552   6.757  11.903  0.1035  0.0923  0.0906
  136loPI    C3 2163   2.198   6.906  11.788  0.1979  0.1600 -0.1175
  136loPI   PO4 2164   2.583   6.527  11.250 -0.1329  0.1000  0.3180
  136loPI   GL1 2165   2.328   6.326  10.900 -0.0446 -0.1790 -0.0665
  136loPI   GL2 2166   1.976   6.283  10.857 -0.0008  0.0167  0.0334
  136loPI   C1A 2167   2.360   6.544  10.606  0.1479 -0.0321 -0.0643
  136loPI   C2A 2168   2.428   6.624  10.277  0.3114  0.0543  0.0271
  136loPI   C3A 2169   2.436   6.621   9.876  0.0208 -0.3573 -0.0750
  136loPI   C4A 2170   2.400   6.499   9.426  0.2560 -0.1015 -0.1303
  136loPI   C5A 2171   2.380   6.682   8.991  0.0133  0.3090  0.0102
  136loPI   C6A 2172   2.608   6.585   8.613 -0.1265 -0.4003  0.1696
  136loPI   C1B 2173   1.915   6.421  10.412  0.1284 -0.0588 -0.3273
  136loPI   C2B 2174   1.822   6.385   9.939 -0.0151  0.0128  0.4526
  136loPI   C3B 2175   1.884   6.444   9.481 -0.2706  0.5330  0.0766
  136loPI   C4B 2176   1.994   6.365   9.047 -0.3725  0.0143  0.1866
  137loPI    C1 2177   4.648   6.690  11.515  0.1702  0.0743  0.0079
  137loPI    C2 2178   4.610   6.440  11.825  0.1426 -0.0007 -0.0556
  137loPI    C3 2179   4.959   6.468  11.632  0.1402 -0.0039 -0.0604
  137loPI   PO4 2180   4.508   6.705  11.286  0.3538 -0.0880  0.1513
  137loPI   GL1 2181   4.461   6.842  10.876  0.0422  0.0600  0.0390
  137loPI   GL2 2182   4.812   6.790  10.756 -0.0722 -0.0215 -0.0627
  137loPI   C1A 2183   4.344   7.067  10.522  0.0053  0.0055 -0.0444
  137loPI   C2A 2184   4.394   7.148  10.034 -0.1458  0.1279  0.1139
  137loPI   C3A 2185   4.390   7.261   9.617 -0.1294  0.4217  0.0788
  137loPI   C4A 2186   4.359   7.234   9.108  0.2757 -0.0724  0.0038
  137loPI   C5A 2187   4.452   7.115   8.666  0.2706  0.1148 -0.1118
  137loPI   C6A 2188   4.796   6.998   8.439  0.0185  0.0315 -0.0418
  137loPI   C1B 2189   4.768   6.831  10.268 -0.0100 -0.1138  0.1850
  137loPI   C2B 2190   4.714   6.873   9.802  0.1173 -0.0439  0.0957
  137loPI   C3B 2191   4.745   6.852   9.414  0.1716 -0.2209 -0.0280
  137loPI   C4B 2192   4.750   6.913   8.958  0.0256  0.1872  0.2714
  138loPI    C1 2193   5.348   3.332  11.400  0.0243 -0.0391 -0.0057
  138loPI    C2 2194   5.617   3.561  11.588 -0.0056 -0.0604  0.0632
  138loPI    C3 2195   5.651   3.163  11.600  0.1056 -0.0586 -0.1437
  138loPI   PO4 2196   5.329   3.355  11.131  0.1925 -0.0703  0.1688
  138loPI   GL1 2197   5.167   3.345  10.772  0.2183 -0.4259 -0.1651
  138loPI   GL2 2198   4.848   3.469  10.671  0.1879 -0.1926 -0.0060
  138loPI   C1A 2199   5.271   3.304  10.436  0.1944  0.2998  0.3135
  138loPI   C2A 2200   5.230   3.321  10.020  0.0037 -0.1139 -0.0842
  138loPI   C3A 2201   5.237   3.300   9.629 -0.0185  0.1327 -0.1912
  138loPI   C4A 2202   5.181   3.326   9.235  0.0165  0.0639  0.0937
  138loPI   C5A 2203   5.206   3.347   8.818  0.0879  0.1379  0.1995
  138loPI   C6A 2204   4.918   3.548   8.443 -0.2582 -0.1512  0.0877
  138loPI   C1B 2205   4.911   3.623  10.251 -0.1226  0.0318 -0.1848
  138loPI   C2B 2206   4.900   3.616   9.751  0.0365  0.1045 -0.2745
  138loPI   C3B 2207   4.807   3.619   9.378  0.0363 -0.0835  0.0166
  138loPI   C4B 2208   4.896   3.702   9.008 -0.1449  0.0658  0.0183
  139loPI    C1 2209  10.569  16.344  11.475 -0.0636 -0.1245  0.0758
  139loPI    C2 2210  10.747  16.268  11.826  0.0661 -0.1150  0.0127
  139loPI    C3 2211  10.377  16.421  11.818  0.1261  0.0401  0.1470
  139loPI   PO4 2212  10.711  16.456  11.300  0.1556 -0.0110 -0.2154
  139loPI   GL1 2213  10.957  16.663  11.058 -0.1268  0.0974 -0.0117
  139loPI   GL2 2214  10.588  16.791  10.906 -0.0435 -0.0598 -0.0814
  139loPI   C1A 2215  11.089  16.815  10.690 -0.2032  0.0053 -0.3848
  139loPI   C2A 2216  11.023  16.720  10.240  0.4293 -0.1403  0.0690
  139loPI   C3A 2217  11.041  16.754   9.770  0.1397 -0.3647  0.1414
  139loPI   C4A 2218  11.097  16.770   9.294 -0.1549  0.0243  0.0732
  139loPI   C5A 2219  11.123  16.880   8.883  0.1490  0.3959  0.1673
  139loPI   C6A 2220  10.789  17.007   8.629 -0.0821 -0.1004  0.1030
  139loPI   C1B 2221  10.509  16.655  10.459  0.0749  0.0159 -0.1116
  139loPI   C2B 2222  10.538  16.642   9.956 -0.0476 -0.0206 -0.0090
  139loPI   C3B 2223  10.598  16.687   9.480  0.1034 -0.1255 -0.1517
  139loPI   C4B 2224  10.564  16.773   9.087  0.1661  0.0755  0.2487
  140loPI    C1 2225  13.920   9.831  11.652  0.0915  0.1987 -0.2821
  140loPI    C2 2226  13.568   9.958  11.510 -0.1399 -0.0182  0.0820
  140loPI    C3 2227  13.581   9.736  11.842  0.3379 -0.0821  0.0269
  140loPI   PO4 2228  14.062   9.724  11.472 -0.0981 -0.1659  0.0581
  140loPI   GL1 2229  14.189   9.694  11.070 -0.2234 -0.0326  0.0313
  140loPI   GL2 2230  14.537   9.706  10.909 -0.0790  0.2472 -0.0497
  140loPI   C1A 2231  14.087   9.641  10.614 -0.2572 -0.1905  0.3208
  140loPI   C2A 2232  14.039   9.776  10.164 -0.0916  0.1834  0.1651
  140loPI   C3A 2233  14.101   9.788   9.700  0.2958 -0.1367 -0.2119
  140loPI   C4A 2234  14.017   9.860   9.279  0.2552 -0.1406 -0.2140
  140loPI   C5A 2235  13.798  10.140   8.968  0.1755 -0.0500  0.1430
  140loPI   C6A 2236  13.974  10.455   8.781 -0.1934  0.1524 -0.0726
  140loPI   C1B 2237  14.550   9.828  10.443 -0.1219  0.0873 -0.2985
  140loPI   C2B 2238  14.578   9.882   9.960  0.2768  0.3569  0.2201
  140loPI   C3B 2239  14.529  10.004   9.662 -0.1467 -0.0055  0.1869
  140loPI   C4B 2240  14.548  10.015   9.267 -0.2024 -0.2418  0.1513
  141loPI    C1 2241   2.789   8.396  11.509  0.1267 -0.0058  0.0277
  141loPI    C2 2242   3.035   8.221  11.772  0.0596 -0.0934  0.0323
  141loPI    C3 2243   2.879   8.580  11.853  0.2733  0.0125 -0.0199
  141loPI   PO4 2244   2.955   8.354  11.228  0.1148 -0.0248  0.2068
  141loPI   GL1 2245   2.961   8.100  10.946 -0.2147 -0.0236 -0.1002
  141loPI   GL2 2246   2.649   8.120  10.913 -0.1696 -0.3090  0.3239
  141loPI   C1A 2247   3.199   8.174  10.528 -0.0083  0.0401 -0.0126
  141loPI   C2A 2248   3.227   8.135  10.194  0.2904 -0.1369  0.2687
  141loPI   C3A 2249   3.175   8.302   9.779 -0.0497 -0.1118 -0.4186
  141loPI   C4A 2250   3.203   8.246   9.361  0.1665  0.0097 -0.2227
  141loPI   C5A 2251   3.170   8.232   9.013  0.3999 -0.1795  0.3064
  141loPI   C6A 2252   3.274   8.288   8.649 -0.0007  0.1636 -0.3247
  141loPI   C1B 2253   2.701   8.042  10.485  0.0681  0.2401 -0.1306
  141loPI   C2B 2254   2.744   8.005  10.133  0.3051  0.3009 -0.2759
  141loPI   C3B 2255   2.758   8.146   9.632 -0.3638 -0.0602 -0.1894
  141loPI   C4B 2256   2.717   8.172   9.285 -0.1663  0.0841  0.1373
  142loPI    C1 2257  11.569   7.966  11.644 -0.0396 -0.0923 -0.2041
  142loPI    C2 2258  11.609   8.074  12.027  0.0137 -0.1711 -0.1872
  142loPI    C3 2259  11.344   7.792  11.926  0.0402 -0.1911 -0.2006
  142loPI   PO4 2260  11.541   8.071  11.446 -0.2487 -0.1063 -0.0635
  142loPI   GL1 2261  11.423   8.113  11.056 -0.1178  0.0849  0.1400
  142loPI   GL2 2262  11.409   7.838  10.908 -0.0438  0.1050  0.1572
  142loPI   C1A 2263  11.466   8.353  10.688  0.0383 -0.0119  0.0340
  142loPI   C2A 2264  11.526   8.489  10.267 -0.2010 -0.2400  0.2682
  142loPI   C3A 2265  11.562   8.476   9.826  0.0195  0.1100 -0.1262
  142loPI   C4A 2266  11.441   8.534   9.328 -0.2872 -0.3263 -0.1385
  142loPI   C5A 2267  11.622   8.415   8.949  0.0778 -0.1538  0.1153
  142loPI   C6A 2268  11.948   8.168   8.875 -0.1233  0.4560 -0.1141
  142loPI   C1B 2269  11.362   7.879  10.426 -0.1423 -0.1829 -0.2986
  142loPI   C2B 2270  11.386   7.941  10.114 -0.2231  0.1590 -0.0918
  142loPI   C3B 2271  11.471   8.042   9.624 -0.1696 -0.1945  0.2083
  142loPI   C4B 2272  11.397   8.053   9.164 -0.1702  0.0194  0.0491
  143loPI    C1 2273  14.236   0.194  11.621 -0.1309  0.2926 -0.0994
  143loPI    C2 2274  13.921   0.352  11.811 -0.2004 -0.1954  0.2098
  143loPI    C3 2275  14.292   0.418  11.947 -0.1754  0.2196 -0.0414
  143loPI   PO4 2276  14.119   0.208  11.347 -0.2205  0.1064 -0.0198
  143loPI   GL1 2277  13.922   0.344  11.011 -0.1162 -0.1566 -0.0566
  143loPI   GL2 2278  14.082   0.672  11.039 -0.1199  0.1398 -0.0732
  143loPI   C1A 2279  14.105   0.392  10.659  0.0223 -0.2583 -0.3688
  143loPI   C2A 2280  14.189   0.400  10.297 -0.0805  0.3826  0.0015
  143loPI   C3A 2281  14.177   0.554  10.089 -0.0738 -0.0698  0.0584
  143loPI   C4A 2282  14.102   0.482   9.745 -0.2786  0.3822 -0.5648
  143loPI   C5A 2283  14.128   0.596   9.425 -0.2899 -0.1981  0.0442
  143loPI   C6A 2284  14.194   0.552   9.018  0.1187  0.1263  0.2023
  143loPI   C1B 2285  14.244   0.902  10.696  0.1908  0.0412 -0.1258
  143loPI   C2B 2286  14.244   1.011  10.209 -0.3725  0.1390 -0.0171
  143loPI   C3B 2287  14.233   1.004   9.811 -0.0613  0.1120 -0.2440
  143loPI   C4B 2288  14.256   1.096   9.460  0.1739 -0.2033  0.1986
  144loPI    C1 2289   7.968  13.264  11.517  0.0672  0.1334 -0.0678
  144loPI    C2 2290   7.680  13.237  11.793  0.1423  0.0074 -0.0007
  144loPI    C3 2291   8.061  13.283  11.905  0.1651  0.0276 -0.0853
  144loPI   PO4 2292   7.778  13.296  11.217  0.2251  0.1563  0.2211
  144loPI   GL1 2293   7.756  13.518  10.772  0.2265  0.0822 -0.2479
  144loPI   GL2 2294   7.995  13.377  10.761 -0.1434 -0.1238  0.0377
  144loPI   C1A 2295   7.720  13.775  10.425  0.0550  0.0449 -0.0181
  144loPI   C2A 2296   7.711  13.906  10.019 -0.0867  0.2467  0.2647
  144loPI   C3A 2297   7.644  13.839   9.561 -0.0046 -0.1083 -0.1527
  144loPI   C4A 2298   7.636  13.857   9.187  0.0053  0.0504 -0.0837
  144loPI   C5A 2299   7.760  13.991   8.838 -0.0726  0.1785  0.1233
  144loPI   C6A 2300   7.858  13.968   8.411  0.0660  0.0215 -0.1759
  144loPI   C1B 2301   8.055  13.417  10.215 -0.0747 -0.0486 -0.1248
  144loPI   C2B 2302   8.018  13.537   9.844 -0.0642 -0.0403  0.2575
  144loPI   C3B 2303   8.093  13.500   9.493 -0.0761 -0.1614  0.0514
  144loPI   C4B 2304   8.057  13.556   9.019 -0.1455  0.0097 -0.0474
  145loPI    C1 2305  10.630   1.813  11.449 -0.1206 -0.3986  0.1059
  145loPI    C2 2306  10.835   1.757  11.788  0.0861 -0.1405  0.0267
  145loPI    C3 2307  10.615   2.087  11.740  0.1332 -0.1306 -0.1278
  145loPI   PO4 2308  10.793   1.754  11.226  0.1688  0.2631 -0.0785
  145loPI   GL1 2309  10.922   2.023  10.857 -0.2887  0.0486 -0.2815
  145loPI   GL2 2310  10.760   2.354  10.772  0.2182 -0.1456 -0.1385
  145loPI   C1A 2311  10.858   1.723  10.539 -0.1870 -0.1431 -0.0616
  145loPI   C2A 2312  10.824   1.729  10.063  0.1233 -0.0979 -0.4398
  145loPI   C3A 2313  10.761   1.833   9.656 -0.2149 -0.1141 -0.1649
  145loPI   C4A 2314  10.760   1.796   9.183 -0.1726  0.0452 -0.0215
  145loPI   C5A 2315  10.872   1.841   8.779 -0.0902  0.0662 -0.1996
  145loPI   C6A 2316  11.145   2.088   8.562  0.0483 -0.1024  0.2286
  145loPI   C1B 2317  10.927   2.244  10.393 -0.0764 -0.2431  0.0409
  145loPI   C2B 2318  10.928   2.242   9.945 -0.1269 -0.2660 -0.0570
  145loPI   C3B 2319  10.916   2.296   9.432  0.1653 -0.0929  0.0611
  145loPI   C4B 2320  10.930   2.270   9.003  0.1725  0.0871  0.0321
  146loPI    C1 2321   5.794   1.499  11.683 -0.3046 -0.0784  0.1078
  146loPI    C2 2322   5.648   1.725  11.979 -0.0628  0.1732  0.0397
  146loPI    C3 2323   6.042   1.662  11.952 -0.0763  0.2054 -0.2647
  146loPI   PO4 2324   5.623   1.558  11.515  0.6115 -0.2153 -0.0197
  146loPI   GL1 2325   5.666   1.641  11.069 -0.0190  0.1578  0.0902
  146loPI   GL2 2326   5.429   1.749  10.810  0.0467  0.1770  0.1563
  146loPI   C1A 2327   5.806   1.480  10.685 -0.1718 -0.0907 -0.1172
  146loPI   C2A 2328   5.810   1.562  10.244  0.4821 -0.0115  0.0464
  146loPI   C3A 2329   5.703   1.551   9.768  0.0149  0.1428  0.0452
  146loPI   C4A 2330   5.659   1.616   9.253 -0.0970 -0.2523 -0.0019
  146loPI   C5A 2331   5.658   1.675   8.775  0.1855 -0.0399  0.0942
  146loPI   C6A 2332   5.709   1.741   8.394 -0.0991  0.4466  0.1492
  146loPI   C1B 2333   5.527   1.904  10.443  0.0239 -0.3389  0.2098
  146loPI   C2B 2334   5.400   1.894  10.037  0.0632 -0.3032 -0.1638
  146loPI   C3B 2335   5.345   1.929   9.598 -0.2272  0.1333 -0.1568
  146loPI   C4B 2336   5.316   1.968   9.135  0.1716 -0.0247 -0.4803
  147loPI    C1 2337   5.866  10.355  11.378 -0.0398 -0.0359 -0.0448
  147loPI    C2 2338   6.212  10.224  11.528 -0.0489 -0.0336 -0.0217
  147loPI    C3 2339   5.917  10.334  11.774  0.0263  0.2112 -0.0384
  147loPI   PO4 2340   5.874  10.394  11.150 -0.1860  0.0416 -0.0537
  147loPI   GL1 2341   5.720  10.307  10.764 -0.1110  0.0465  0.2178
  147loPI   GL2 2342   6.101  10.344  10.682  0.0569  0.4263  0.1881
  147loPI   C1A 2343   5.470  10.302  10.330  0.1624 -0.0007  0.4172
  147loPI   C2A 2344   5.487  10.318   9.836 -0.1588 -0.0588 -0.0244
  147loPI   C3A 2345   5.550  10.361   9.398  0.0500  0.0342  0.0244
  147loPI   C4A 2346   5.531  10.387   8.965  0.1268 -0.1236  0.2301
  147loPI   C5A 2347   5.537  10.447   8.643  0.4545  0.0260 -0.4185
  147loPI   C6A 2348   5.234  10.389   8.251 -0.3376  0.3492 -0.2332
  147loPI   C1B 2349   6.048  10.460  10.283 -0.0741 -0.3671 -0.0544
  147loPI   C2B 2350   6.037  10.501   9.817  0.0764  0.0377  0.3992
  147loPI   C3B 2351   6.018  10.517   9.394  0.0104  0.1994 -0.0702
  147loPI   C4B 2352   6.006  10.513   8.919 -0.1816  0.0578  0.1736
  148loPI    C1 2353   3.402   4.927  11.258  0.0423  0.4171  0.3672
  148loPI    C2 2354   3.073   4.836  11.466  0.0526 -0.0513  0.1924
  148loPI    C3 2355   3.433   4.794  11.634  0.0348  0.2843  0.3217
  148loPI   PO4 2356   3.378   4.849  11.008  0.0532 -0.0106 -0.1387
  148loPI   GL1 2357   3.151   4.589  10.717  0.2209  0.1731  0.0302
  148loPI   GL2 2358   2.903   4.776  10.578  0.0111 -0.2882  0.1594
  148loPI   C1A 2359   3.174   4.464  10.348  0.0082 -0.2490 -0.0882
  148loPI   C2A 2360   3.131   4.490   9.941 -0.2502  0.2208 -0.0075
  148loPI   C3A 2361   3.251   4.577   9.487 -0.3773 -0.0753 -0.0417
  148loPI   C4A 2362   3.335   4.643   9.058 -0.0827  0.1642 -0.0062
  148loPI   C5A 2363   3.583   4.599   8.656  0.3048 -0.0642  0.1734
  148loPI   C6A 2364   3.467   4.673   8.181  0.0942 -0.1876 -0.0300
  148loPI   C1B 2365   2.796   4.797  10.169  0.0688 -0.1045  0.0739
  148loPI   C2B 2366   2.879   4.865   9.740 -0.2983  0.3076  0.2335
  148loPI   C3B 2367   2.886   4.951   9.330 -0.1507  0.1411 -0.3083
  148loPI   C4B 2368   2.896   4.928   8.887 -0.0777 -0.0601 -0.0712
  149loPI    C1 2369   1.572   7.494  11.469  0.2242  0.0226  0.0686
  149loPI    C2 2370   1.233   7.349  11.314  0.2138 -0.1033  0.2071
  149loPI    C3 2371   1.254   7.433  11.704  0.2323  0.2344  0.1360
  149loPI   PO4 2372   1.825   7.484  11.272  0.1924  0.1485  0.1310
  149loPI   GL1 2373   1.897   7.388  10.936 -0.0739  0.2478 -0.2775
  149loPI   GL2 2374   2.185   7.317  10.828  0.0567  0.1545 -0.3574
  149loPI   C1A 2375   1.651   7.310  10.556 -0.1313 -0.1217 -0.1469
  149loPI   C2A 2376   1.685   7.225  10.177  0.1981  0.0004 -0.0014
  149loPI   C3A 2377   1.615   7.198   9.838  0.1039 -0.1710 -0.1103
  149loPI   C4A 2378   1.648   7.227   9.435 -0.0140 -0.0079 -0.1975
  149loPI   C5A 2379   1.736   7.408   9.023  0.4897  0.1358  0.0908
  149loPI   C6A 2380   1.762   7.812   8.813  0.3189  0.0769 -0.0105
  149loPI   C1B 2381   2.120   7.397  10.354  0.0378 -0.2953 -0.0701
  149loPI   C2B 2382   2.221   7.439   9.985  0.2155 -0.0156  0.1695
  149loPI   C3B 2383   2.083   7.390   9.587 -0.1672  0.2474  0.1252
  149loPI   C4B 2384   2.199   7.441   9.222  0.1502 -0.3380  0.0392
  150loPI    C1 2385  17.494   8.064  11.664  0.1492  0.1123 -0.1623
  150loPI    C2 2386  17.546   8.458  11.709  0.2675  0.0730  0.0589
  150loPI    C3 2387  17.373   8.244  12.000 -0.0296  0.0010 -0.1656
  150loPI   PO4 2388  17.375   8.045  11.366 -0.1350  0.1259 -0.2023
  150loPI   GL1 2389  17.487   8.062  10.988 -0.0164  0.1332  0.1055
  150loPI   GL2 2390  17.274   7.954  10.767 -0.2075 -0.0749 -0.0963
  150loPI   C1A 2391  17.669   8.170  10.561  0.2321  0.2770  0.2788
  150loPI   C2A 2392  17.740   8.138  10.223  0.0021  0.1787 -0.2695
  150loPI   C3A 2393  17.815   8.167   9.795 -0.1540 -0.0145 -0.1577
  150loPI   C4A 2394  17.866   8.242   9.443  0.0687  0.0946 -0.0764
  150loPI   C5A 2395  17.839   8.222   8.990 -0.2204  0.1603  0.2249
  150loPI   C6A 2396  17.850   8.140   8.454 -0.1716  0.0891  0.2221
  150loPI   C1B 2397  17.269   7.984  10.319  0.1844  0.2047  0.4351
  150loPI   C2B 2398  17.269   8.047   9.813 -0.0119 -0.4123  0.2078
  150loPI   C3B 2399  17.291   8.015   9.380  0.2326  0.1438  0.0165
  150loPI   C4B 2400  17.361   8.010   8.988  0.0879 -0.0417 -0.0197
  151loPI    C1 2401   8.156   8.994  11.385 -0.0042  0.1169  0.1557
  151loPI    C2 2402   8.345   9.255  11.622  0.0155  0.1524  0.1014
  151loPI    C3 2403   8.077   9.001  11.777  0.0048  0.1967  0.1563
  151loPI   PO4 2404   8.154   9.192  11.175  0.2345 -0.4129 -0.1988
  151loPI   GL1 2405   8.320   9.309  10.784  0.1994  0.0602 -0.0946
  151loPI   GL2 2406   8.432   8.979  10.663  0.4681  0.1640  0.3728
  151loPI   C1A 2407   8.592   9.362  10.408  0.1433 -0.0348  0.1489
  151loPI   C2A 2408   8.534   9.387   9.959  0.2298 -0.0164 -0.1663
  151loPI   C3A 2409   8.532   9.464   9.458 -0.1586  0.0775  0.1724
  151loPI   C4A 2410   8.595   9.475   9.040 -0.0172  0.0674  0.0977
  151loPI   C5A 2411   8.707   9.481   8.637  0.2608 -0.1680  0.2914
  151loPI   C6A 2412   8.765   9.116   8.447  0.0110 -0.1153  0.0078
  151loPI   C1B 2413   8.479   8.905  10.182 -0.0135 -0.1200  0.2916
  151loPI   C2B 2414   8.421   8.879   9.718 -0.2419  0.4408 -0.1674
  151loPI   C3B 2415   8.402   8.921   9.304 -0.2066 -0.0616 -0.1103
  151loPI   C4B 2416   8.398   8.961   8.858  0.2386  0.0456 -0.2584
  152loPI    C1 2417  16.095  13.525  11.471 -0.1676  0.3318 -0.1888
  152loPI    C2 2418  16.210  13.367  11.820 -0.3541  0.0450 -0.2532
  152loPI    C3 2419  16.062  13.739  11.808  0.0694  0.2261 -0.0962
  152loPI   PO4 2420  16.272  13.464  11.307 -0.2024  0.1981  0.3664
  152loPI   GL1 2421  16.598  13.534  11.100 -0.2554  0.0245 -0.0520
  152loPI   GL2 2422  16.615  13.430  10.902  0.1402 -0.1074 -0.0298
  152loPI   C1A 2423  16.770  13.846  10.769  0.1066 -0.1818  0.3273
  152loPI   C2A 2424  16.815  13.957  10.333 -0.0329  0.0897  0.2342
  152loPI   C3A 2425  16.715  13.955   9.888 -0.2282  0.1459  0.0672
  152loPI   C4A 2426  16.862  13.919   9.503 -0.0386  0.3294 -0.2306
  152loPI   C5A 2427  16.736  13.926   9.109  0.1178  0.3226  0.1135
  152loPI   C6A 2428  16.635  14.132   8.758  0.3052  0.1219 -0.0820
  152loPI   C1B 2429  16.775  13.441  10.451  0.1859 -0.1668 -0.1064
  152loPI   C2B 2430  16.652  13.498  10.057  0.2425 -0.0264 -0.4341
  152loPI   C3B 2431  16.650  13.458   9.644  0.0475 -0.2378  0.2178
  152loPI   C4B 2432  16.769  13.436   9.253 -0.3062 -0.0401  0.0087
  153loPI    C1 2433  15.129  13.693  11.712  0.0059 -0.2027  0.0222
  153loPI    C2 2434  15.426  13.950  11.636 -0.2094  0.0265 -0.0566
  153loPI    C3 2435  15.110  14.068  11.850 -0.2658 -0.2031 -0.0106
  153loPI   PO4 2436  15.051  13.581  11.514  0.0734  0.1417  0.0067
  153loPI   GL1 2437  14.922  13.566  11.091  0.2436  0.0248  0.0099
  153loPI   GL2 2438  14.990  13.822  10.982  0.0744 -0.0149 -0.1052
  153loPI   C1A 2439  14.826  13.227  10.727 -0.2841 -0.1068  0.0271
  153loPI   C2A 2440  14.821  13.297  10.344  0.2229 -0.2606  0.1917
  153loPI   C3A 2441  14.866  13.278   9.915  0.0722 -0.3494 -0.2396
  153loPI   C4A 2442  14.896  13.354   9.506  0.2063  0.0569  0.1178
  153loPI   C5A 2443  14.820  13.344   9.002  0.1873 -0.0253  0.0051
  153loPI   C6A 2444  14.864  13.749   8.715 -0.2060 -0.0754  0.3233
  153loPI   C1B 2445  14.978  13.771  10.609 -0.1053 -0.0588  0.0453
  153loPI   C2B 2446  14.919  13.765  10.176  0.0917 -0.0715  0.0470
  153loPI   C3B 2447  15.003  13.839   9.631  0.1025  0.0322 -0.3247
  153loPI   C4B 2448  14.882  13.848   9.248  0.0326  0.2897  0.0986
  154loPI    C1 2449  14.608   7.240  11.624  0.1187 -0.1542 -0.1671
  154loPI    C2 2450  14.287   7.120  11.830  0.1180  0.0117 -0.0702
  154loPI    C3 2451  14.621   7.224  12.023  0.1554  0.0568 -0.1588
  154loPI   PO4 2452  14.578   7.160  11.428  0.5941 -0.1620 -0.0187
  154loPI   GL1 2453  14.687   7.167  11.007  0.0175  0.0307  0.0499
  154loPI   GL2 2454  14.424   7.050  11.007  0.0459 -0.0467  0.0077
  154loPI   C1A 2455  14.788   7.122  10.621  0.0231 -0.2348 -0.0066
  154loPI   C2A 2456  14.858   7.177  10.263 -0.0797 -0.1383  0.1141
  154loPI   C3A 2457  14.812   7.285   9.788 -0.2395 -0.1033  0.0138
  154loPI   C4A 2458  14.815   7.243   9.339  0.5100 -0.0999  0.0444
  154loPI   C5A 2459  14.618   7.363   8.912 -0.2270 -0.2024  0.2111
  154loPI   C6A 2460  14.780   7.587   8.485 -0.0495 -0.1791  0.2452
  154loPI   C1B 2461  14.328   7.004  10.557 -0.4539  0.0259 -0.0769
  154loPI   C2B 2462  14.370   7.091  10.168  0.0444 -0.0288 -0.1736
  154loPI   C3B 2463  14.316   7.129   9.760  0.2451  0.1828 -0.4981
  154loPI   C4B 2464  14.338   7.098   9.316  0.1901  0.0509  0.0685
  155loPI    C1 2465   3.863   1.186  11.459 -0.1848 -0.1187  0.1038
  155loPI    C2 2466   3.650   1.298  11.778 -0.2037 -0.1575  0.1049
  155loPI    C3 2467   3.995   1.101  11.827 -0.0464  0.1134  0.1100
  155loPI   PO4 2468   3.720   1.000  11.315 -0.0521 -0.1350  0.1890
  155loPI   GL1 2469   3.583   1.083  10.959  0.2839 -0.0478 -0.1480
  155loPI   GL2 2470   3.498   1.454  11.024 -0.0052  0.0317 -0.1240
  155loPI   C1A 2471   3.483   1.225  10.424  0.2279 -0.0222  0.1105
  155loPI   C2A 2472   3.454   1.234  10.031 -0.1571  0.1578  0.0765
  155loPI   C3A 2473   3.466   1.339   9.631 -0.1566 -0.0684 -0.2819
  155loPI   C4A 2474   3.454   1.394   9.180 -0.1383  0.0474  0.1629
  155loPI   C5A 2475   3.300   1.152   8.771 -0.3064  0.4386 -0.1863
  155loPI   C6A 2476   3.133   1.238   8.416 -0.1401  0.0493 -0.1579
  155loPI   C1B 2477   3.648   1.673  10.600  0.3006 -0.0493 -0.0448
  155loPI   C2B 2478   3.558   1.723  10.191 -0.0419 -0.0978 -0.1679
  155loPI   C3B 2479   3.560   1.863   9.727  0.0521 -0.1065 -0.3931
  155loPI   C4B 2480   3.498   1.926   9.285  0.0333 -0.1117  0.0200
  156loPI    C1 2481  12.649  10.361  11.546  0.0821 -0.0012 -0.0452
  156loPI    C2 2482  12.338  10.610  11.513  0.1063  0.0554  0.1392
  156loPI    C3 2483  12.603  10.660  11.808 -0.0064 -0.3191  0.3097
  156loPI   PO4 2484  12.739  10.355  11.344 -0.1320 -0.1165  0.0307
  156loPI   GL1 2485  12.794  10.222  10.907 -0.0749  0.1792  0.0613
  156loPI   GL2 2486  13.036  10.516  10.967  0.2222 -0.2530 -0.3543
  156loPI   C1A 2487  12.887  10.292  10.557 -0.2567 -0.1719  0.2952
  156loPI   C2A 2488  12.822  10.283  10.138  0.1308 -0.1024  0.2138
  156loPI   C3A 2489  12.780  10.346   9.649 -0.0044  0.0521 -0.1436
  156loPI   C4A 2490  12.831  10.412   9.188 -0.0326  0.1296  0.2914
  156loPI   C5A 2491  13.084  10.746   8.830 -0.0759 -0.0099  0.0005
  156loPI   C6A 2492  12.952  10.767   8.348  0.0739  0.0067 -0.1350
  156loPI   C1B 2493  13.011  10.765  10.610 -0.1225  0.1403 -0.1969
  156loPI   C2B 2494  12.954  10.749  10.179  0.2142 -0.0125 -0.3495
  156loPI   C3B 2495  12.937  10.852   9.785  0.1720 -0.1371 -0.2587
  156loPI   C4B 2496  12.965  10.874   9.319 -0.0017 -0.0706  0.1149
  157loPI    C1 2497  11.100  12.839  11.514 -0.1303 -0.0608  0.1031
  157loPI    C2 2498  11.177  12.484  11.347 -0.3089 -0.0212 -0.0665
  157loPI    C3 2499  11.184  12.524  11.745 -0.0628 -0.1601 -0.0552
  157loPI   PO4 2500  10.872  12.954  11.322  0.2209 -0.0036 -0.2372
  157loPI   GL1 2501  10.781  12.735  10.974 -0.1431  0.2077  0.1415
  157loPI   GL2 2502  10.969  12.595  10.871 -0.2780  0.2225  0.1486
  157loPI   C1A 2503  10.670  12.846  10.520  0.1100 -0.1223  0.3896
  157loPI   C2A 2504  10.722  12.877  10.047  0.0276 -0.1170  0.2478
  157loPI   C3A 2505  10.760  12.880   9.634 -0.3222  0.1058 -0.0174
  157loPI   C4A 2506  10.630  12.914   9.298  0.1163 -0.1925  0.1552
  157loPI   C5A 2507  10.562  12.895   8.951  0.0357  0.0328 -0.1036
  157loPI   C6A 2508  10.854  13.077   8.634  0.3066  0.0299 -0.1022
  157loPI   C1B 2509  11.103  12.527  10.417  0.1547 -0.2640 -0.0887
  157loPI   C2B 2510  11.077  12.515   9.928  0.1304  0.2462 -0.0654
  157loPI   C3B 2511  11.095  12.509   9.519  0.1046 -0.1770 -0.2859
  157loPI   C4B 2512  11.054  12.612   9.124  0.1323  0.1506 -0.2486
  158loPI    C1 2513  13.429  11.780  11.618  0.0120  0.0859  0.0766
  158loPI    C2 2514  13.546  12.055  11.883 -0.1413  0.0325  0.2015
  158loPI    C3 2515  13.179  11.898  11.907 -0.1053 -0.0778  0.0439
  158loPI   PO4 2516  13.429  11.893  11.414 -0.0158 -0.2478 -0.0463
  158loPI   GL1 2517  13.186  11.977  11.138 -0.0205  0.2122 -0.0652
  158loPI   GL2 2518  13.091  11.721  10.980  0.0082 -0.1892  0.2370
  158loPI   C1A 2519  13.247  12.197  10.713  0.1904 -0.1152  0.0603
  158loPI   C2A 2520  13.277  12.334  10.239 -0.1095 -0.0110 -0.0130
  158loPI   C3A 2521  13.296  12.308   9.752  0.0291 -0.4004  0.1592
  158loPI   C4A 2522  13.273  12.325   9.264  0.0892 -0.1673 -0.0670
  158loPI   C5A 2523  13.314  12.101   8.859  0.1481  0.2415  0.4217
  158loPI   C6A 2524  13.356  12.143   8.445  0.0296 -0.0089  0.2877
  158loPI   C1B 2525  13.160  11.729  10.587 -0.0652 -0.2296  0.2646
  158loPI   C2B 2526  13.150  11.833  10.189 -0.3544  0.1678  0.0791
  158loPI   C3B 2527  13.150  11.867   9.712  0.0022 -0.1997  0.0417
  158loPI   C4B 2528  13.174  11.827   9.281 -0.0262  0.2155 -0.1592
  159loPI    C1 2529   0.324   2.135  11.778 -0.0719  0.1267  0.1321
  159loPI    C2 2530   0.082   2.120  12.097 -0.1891 -0.1655  0.0334
  159loPI    C3 2531   0.476   2.166  12.147 -0.2405  0.1214  0.2034
  159loPI   PO4 2532   0.137   2.139  11.525 -0.2598 -0.2078  0.2060
  159loPI   GL1 2533   0.092   2.069  11.024  0.1506 -0.0267  0.0792
  159loPI   GL2 2534  -0.167   1.970  10.922  0.0885  0.1744  0.0430
  159loPI   C1A 2535   0.279   2.205  10.688 -0.0013 -0.0428  0.0467
  159loPI   C2A 2536   0.369   2.213  10.262 -0.0909 -0.0969 -0.0389
  159loPI   C3A 2537   0.403   2.231   9.871 -0.0829 -0.1579 -0.2602
  159loPI   C4A 2538   0.474   2.258   9.422  0.2748 -0.0027 -0.1951
  159loPI   C5A 2539   0.421   2.110   9.018 -0.0462 -0.1437  0.1411
  159loPI   C6A 2540   0.608   1.702   8.916  0.2104  0.0155  0.3474
  159loPI   C1B 2541  -0.090   2.087  10.429 -0.0359 -0.4756 -0.0085
  159loPI   C2B 2542  -0.026   2.036  10.007  0.1745 -0.0571 -0.2120
  159loPI   C3B 2543  -0.027   2.111   9.576  0.2246 -0.0736  0.1790
  159loPI   C4B 2544  -0.047   2.163   9.172 -0.2205 -0.1767  0.1728
  160loPI    C1 2545   2.003  15.983  11.539  0.2666  0.0665 -0.0001
  160loPI    C2 2546   2.306  16.149  11.741  0.1050  0.0284  0.2786
  160loPI    C3 2547   1.963  16.064  11.928 -0.0018 -0.1323  0.0164
  160loPI   PO4 2548   2.069  15.873  11.306  0.3790 -0.1761  0.0079
  160loPI   GL1 2549   2.153  15.942  10.960  0.1720  0.2024 -0.2317
  160loPI   GL2 2550   2.287  16.173  10.741 -0.1459 -0.1607  0.1184
  160loPI   C1A 2551   2.250  15.757  10.546 -0.0887 -0.1038  0.2352
  160loPI   C2A 2552   2.202  15.854  10.136  0.2400  0.2217 -0.2057
  160loPI   C3A 2553   2.252  15.860   9.718 -0.0395  0.2557 -0.0348
  160loPI   C4A 2554   2.249  15.838   9.296 -0.0858  0.1984 -0.0444
  160loPI   C5A 2555   2.325  15.849   8.831  0.2040 -0.0063 -0.1493
  160loPI   C6A 2556   2.123  16.038   8.453  0.0432 -0.0784 -0.0971
  160loPI   C1B 2557   2.235  16.346  10.350 -0.0943  0.1255  0.2141
  160loPI   C2B 2558   2.264  16.332   9.891  0.0385 -0.2396  0.1182
  160loPI   C3B 2559   2.322  16.353   9.422  0.0684  0.2026  0.1022
  160loPI   C4B 2560   2.358  16.363   9.024 -0.0557 -0.2319 -0.1352
  161loPI    C1 2561  14.637  14.024  11.630  0.2125  0.0758  0.1194
  161loPI    C2 2562  14.575  13.690  11.841 -0.1304 -0.1766 -0.3603
  161loPI    C3 2563  14.294  13.974  11.829 -0.0179 -0.0618 -0.2981
  161loPI   PO4 2564  14.724  13.946  11.444 -0.1424 -0.2306  0.0574
  161loPI   GL1 2565  14.491  13.890  11.120  0.4370  0.3026  0.1729
  161loPI   GL2 2566  14.189  13.925  10.971  0.2508  0.0040  0.2366
  161loPI   C1A 2567  14.659  14.134  10.723 -0.0009 -0.0426  0.0446
  161loPI   C2A 2568  14.551  14.173  10.240  0.2506 -0.1818  0.2164
  161loPI   C3A 2569  14.580  14.171   9.823  0.2326  0.1962 -0.1056
  161loPI   C4A 2570  14.566  14.194   9.441 -0.1741 -0.0701 -0.3259
  161loPI   C5A 2571  14.633  14.257   8.980  0.1163 -0.2838  0.0081
  161loPI   C6A 2572  14.533  14.685   8.839 -0.0702  0.0696 -0.0867
  161loPI   C1B 2573  14.095  13.904  10.559 -0.1309  0.0412 -0.1564
  161loPI   C2B 2574  14.114  13.998  10.129 -0.2310  0.0084  0.0184
  161loPI   C3B 2575  14.063  13.990   9.681 -0.4140  0.0476  0.1220
  161loPI   C4B 2576  14.131  14.055   9.234  0.0860  0.0707 -0.0411
  162loPI    C1 2577   0.403   9.417  11.738 -0.0753 -0.1858  0.1663
  162loPI    C2 2578   0.320   9.769  11.907 -0.0127 -0.0307 -0.1193
  162loPI    C3 2579   0.104   9.446  12.003 -0.2750  0.1501 -0.0874
  162loPI   PO4 2580   0.430   9.441  11.534  0.0639  0.1043 -0.1628
  162loPI   GL1 2581   0.569   9.497  11.110 -0.1401  0.1920 -0.0995
  162loPI   GL2 2582   0.729   9.190  11.155  0.1533 -0.1626 -0.0643
  162loPI   C1A 2583   0.348   9.601  10.745  0.0895  0.1102  0.1740
  162loPI   C2A 2584   0.371   9.666  10.232  0.1228  0.0061 -0.0526
  162loPI   C3A 2585   0.355   9.762   9.778  0.0091 -0.1329 -0.2303
  162loPI   C4A 2586   0.404   9.668   9.354  0.3585  0.0801  0.0024
  162loPI   C5A 2587   0.490   9.643   8.971 -0.0391 -0.1042 -0.1419
  162loPI   C6A 2588   0.347   9.590   8.601  0.0732  0.2031  0.1344
  162loPI   C1B 2589   0.705   9.298  10.685  0.0814  0.0063  0.0506
  162loPI   C2B 2590   0.746   9.287  10.268 -0.0999  0.0146 -0.3214
  162loPI   C3B 2591   0.796   9.405   9.857  0.1928 -0.3018  0.0393
  162loPI   C4B 2592   0.812   9.350   9.361 -0.1236  0.3378  0.1974
  163loPI    C1 2593  12.095   2.331  11.538  0.0479 -0.0939 -0.1566
  163loPI    C2 2594  11.972   2.700  11.632  0.1316 -0.1361  0.1285
  163loPI    C3 2595  12.013   2.424  11.919  0.1141 -0.3550 -0.0764
  163loPI   PO4 2596  12.314   2.374  11.362 -0.0774  0.3619 -0.0375
  163loPI   GL1 2597  12.140   2.380  10.999  0.0810 -0.1634 -0.2904
  163loPI   GL2 2598  11.835   2.299  10.894 -0.1669  0.0147 -0.3793
  163loPI   C1A 2599  12.272   2.272  10.573 -0.2359  0.0031 -0.2102
  163loPI   C2A 2600  12.248   2.179  10.149 -0.2963  0.0059 -0.0988
  163loPI   C3A 2601  12.269   2.189   9.744 -0.2729  0.1354  0.0835
  163loPI   C4A 2602  12.220   2.247   9.267 -0.3361  0.3078  0.1411
  163loPI   C5A 2603  12.297   2.307   8.765 -0.2047  0.0289 -0.0853
  163loPI   C6A 2604  12.102   2.397   8.354  0.1016 -0.0580 -0.0273
  163loPI   C1B 2605  11.837   2.068  10.540 -0.2022 -0.1246  0.2905
  163loPI   C2B 2606  11.790   2.025  10.126 -0.0094  0.0366 -0.1749
  163loPI   C3B 2607  11.772   2.065   9.721  0.0995  0.0806  0.2920
  163loPI   C4B 2608  11.752   2.111   9.321 -0.1971 -0.0204 -0.1207
  164loPI    C1 2609   2.373   9.379  11.516 -0.0112 -0.2060 -0.0034
  164loPI    C2 2610   2.028   9.489  11.686 -0.0890 -0.2153 -0.1527
  164loPI    C3 2611   2.369   9.504  11.896 -0.1455  0.0117 -0.0748
  164loPI   PO4 2612   2.340   9.564  11.302  0.2443  0.4381 -0.1156
  164loPI   GL1 2613   2.273   9.483  10.811 -0.0051  0.3106 -0.2419
  164loPI   GL2 2614   2.327   9.693  10.649 -0.0517  0.0305 -0.3899
  164loPI   C1A 2615   1.990   9.271  10.568 -0.1947  0.1951 -0.1818
  164loPI   C2A 2616   2.020   9.238  10.094  0.0436  0.1952 -0.2694
  164loPI   C3A 2617   2.070   9.261   9.610  0.2535 -0.1434  0.3339
  164loPI   C4A 2618   2.081   9.231   9.234 -0.0642  0.1550  0.1901
  164loPI   C5A 2619   1.779   9.257   8.842  0.3226  0.2301 -0.0727
  164loPI   C6A 2620   1.645   9.137   8.429 -0.1384 -0.1856 -0.1587
  164loPI   C1B 2621   2.127   9.680  10.273 -0.0568  0.1164 -0.0068
  164loPI   C2B 2622   2.145   9.760   9.833 -0.1650  0.1750  0.2894
  164loPI   C3B 2623   2.181   9.722   9.390 -0.0864  0.2443  0.1368
  164loPI   C4B 2624   2.170   9.805   8.934 -0.2027  0.5045 -0.0435
  165loPI    C1 2625   9.930   1.889  11.453 -0.0032  0.4110 -0.1332
  165loPI    C2 2626  10.122   1.987  11.790  0.0049  0.2830 -0.1000
  165loPI    C3 2627   9.810   2.206  11.666  0.1747  0.4957 -0.1576
  165loPI   PO4 2628  10.115   1.827  11.286  0.1091  0.3879  0.3917
  165loPI   GL1 2629   9.994   1.786  10.876  0.0874 -0.0330  0.1563
  165loPI   GL2 2630  10.290   1.598  10.690  0.0586 -0.0648  0.0819
  165loPI   C1A 2631   9.993   2.016  10.523 -0.0558  0.1447 -0.0445
  165loPI   C2A 2632   9.948   1.979  10.126 -0.0540 -0.1301 -0.0497
  165loPI   C3A 2633   9.869   1.921   9.741 -0.0208  0.1294  0.0003
  165loPI   C4A 2634   9.885   1.956   9.285 -0.0938 -0.0499  0.1103
  165loPI   C5A 2635   9.929   1.964   8.836 -0.0076  0.0493 -0.0590
  165loPI   C6A 2636   9.885   1.873   8.378  0.1179 -0.2471  0.2126
  165loPI   C1B 2637  10.332   1.577  10.261 -0.0949 -0.0463 -0.0570
  165loPI   C2B 2638  10.341   1.636   9.927 -0.1913 -0.1609 -0.0232
  165loPI   C3B 2639  10.344   1.628   9.554  0.4401 -0.0039  0.0484
  165loPI   C4B 2640  10.303   1.623   9.115  0.1597 -0.0961 -0.1405
  166loPI    C1 2641   6.249   7.113  11.379  0.2455 -0.0009 -0.1254
  166loPI    C2 2642   6.396   6.891  11.677 -0.1973 -0.2484 -0.0817
  166loPI    C3 2643   6.105   7.156  11.750  0.0202  0.0336 -0.2151
  166loPI   PO4 2644   6.213   7.011  11.220 -0.2048  0.1723 -0.0937
  166loPI   GL1 2645   6.135   7.244  10.891 -0.1907 -0.1620  0.0123
  166loPI   GL2 2646   5.768   7.281  10.836  0.0126 -0.1913 -0.2439
  166loPI   C1A 2647   6.217   7.308  10.528  0.0380  0.2890 -0.0397
  166loPI   C2A 2648   6.138   7.356  10.123  0.1397  0.0152  0.2619
  166loPI   C3A 2649   6.211   7.310   9.723  0.0247  0.0714  0.1438
  166loPI   C4A 2650   6.144   7.368   9.251 -0.0598  0.0348 -0.3095
  166loPI   C5A 2651   6.307   7.428   8.856 -0.0764 -0.2844  0.2470
  166loPI   C6A 2652   6.114   7.614   8.401 -0.0388 -0.1843 -0.0569
  166loPI   C1B 2653   5.782   7.120  10.397 -0.0399 -0.2349 -0.1021
  166loPI   C2B 2654   5.764   7.150   9.887 -0.0317  0.0709 -0.2268
  166loPI   C3B 2655   5.671   7.128   9.469 -0.1721  0.2426 -0.1018
  166loPI   C4B 2656   5.687   7.181   8.995 -0.0672  0.2797 -0.3703
  167loPI    C1 2657  15.369   4.994  11.658  0.0723 -0.0860  0.0785
  167loPI    C2 2658  15.473   5.289  11.907 -0.0695 -0.0202  0.0611
  167loPI    C3 2659  15.212   5.011  12.026  0.1906 -0.2362  0.1369
  167loPI   PO4 2660  15.351   5.117  11.341 -0.1620 -0.0907 -0.3172
  167loPI   GL1 2661  15.508   5.026  10.924  0.2894  0.2441  0.1880
  167loPI   GL2 2662  15.115   4.935  10.861  0.3780 -0.1029  0.0049
  167loPI   C1A 2663  15.667   5.129  10.474  0.1458 -0.1847 -0.3045
  167loPI   C2A 2664  15.717   5.173  10.087 -0.1015  0.0944 -0.0121
  167loPI   C3A 2665  15.733   5.157   9.669 -0.1309 -0.0574  0.1356
  167loPI   C4A 2666  15.694   5.113   9.246  0.2091  0.0041 -0.0521
  167loPI   C5A 2667  15.592   5.238   8.771  0.1236  0.1169  0.2468
  167loPI   C6A 2668  15.655   5.331   8.398 -0.1111 -0.1378 -0.0424
  167loPI   C1B 2669  15.174   4.901  10.464  0.0295 -0.0707  0.1359
  167loPI   C2B 2670  15.238   4.948  10.028 -0.0076  0.1272  0.0874
  167loPI   C3B 2671  15.183   5.095   9.622 -0.2728 -0.1209  0.3797
  167loPI   C4B 2672  15.141   5.018   9.164 -0.3060  0.3152  0.0471
  168loPI    C1 2673  15.616  14.605  11.586  0.0083  0.2138  0.1605
  168loPI    C2 2674  15.459  14.469  11.928 -0.0197  0.1617  0.1269
  168loPI    C3 2675  15.723  14.769  11.935  0.0897  0.0643  0.2070
  168loPI   PO4 2676  15.599  14.392  11.480 -0.5692  0.2787 -0.0418
  168loPI   GL1 2677  15.651  14.394  11.111 -0.2711 -0.2738  0.0052
  168loPI   GL2 2678  15.949  14.610  11.127 -0.0154  0.2479 -0.0150
  168loPI   C1A 2679  15.541  14.398  10.581 -0.1087 -0.0707  0.0071
  168loPI   C2A 2680  15.551  14.495  10.135 -0.1248  0.2265 -0.1687
  168loPI   C3A 2681  15.570  14.422   9.651 -0.4398  0.3594 -0.0801
  168loPI   C4A 2682  15.559  14.578   9.209  0.0417 -0.0709 -0.0067
  168loPI   C5A 2683  15.547  14.940   8.978  0.0151  0.2331  0.0337
  168loPI   C6A 2684  15.699  15.004   8.537  0.0402  0.0004 -0.0220
  168loPI   C1B 2685  15.983  14.607  10.723 -0.0162  0.2927  0.0482
  168loPI   C2B 2686  16.031  14.654  10.356  0.0963  0.0333 -0.1755
  168loPI   C3B 2687  15.981  14.613   9.962 -0.1748 -0.2801  0.0591
  168loPI   C4B 2688  16.056  14.581   9.462  0.0808  0.1904  0.1476
  169loPI    C1 2689  11.383   5.493  11.046  0.1098 -0.1748  0.2181
  169loPI    C2 2690  11.496   5.804  11.272 -0.0027  0.0721 -0.0592
  169loPI    C3 2691  11.167   5.596  11.367 -0.1616  0.2987 -0.1035
  169loPI   PO4 2692  11.389   5.594  10.783 -0.0080  0.0212 -0.2034
  169loPI   GL1 2693  11.307   5.788  10.502  0.0854  0.4807 -0.0345
  169loPI   GL2 2694  11.158   6.079  10.401 -0.0414 -0.2282  0.0122
  169loPI   C1A 2695  11.471   5.663  10.100 -0.2402  0.0859  0.0279
  169loPI   C2A 2696  11.671   5.688   9.719  0.1098  0.2607 -0.3060
  169loPI   C3A 2697  11.947   5.533   9.478  0.0605  0.0049  0.0682
  169loPI   C4A 2698  12.096   5.145   9.321  0.0765  0.0451 -0.1268
  169loPI   C5A 2699  11.821   4.764   9.235 -0.2944  0.2420 -0.2139
  169loPI   C6A 2700  11.391   4.633   9.122  0.1503 -0.3901 -0.2128
  169loPI   C1B 2701  11.119   6.461  10.113 -0.0085  0.0566 -0.0151
  169loPI   C2B 2702  11.489   6.618   9.990  0.3304  0.0459  0.1111
  169loPI   C3B 2703  11.612   6.567   9.585  0.0987 -0.3167 -0.2016
  169loPI   C4B 2704  11.795   6.232   9.452 -0.2321  0.1497 -0.3649
  170loPI    C1 2705   8.452  10.701  11.276 -0.0792 -0.0265 -0.0826
  170loPI    C2 2706   8.493  10.784  11.665  0.0994  0.0358 -0.1137
  170loPI    C3 2707   8.569  10.415  11.530 -0.1039 -0.0240 -0.0684
  170loPI   PO4 2708   8.263  10.732  11.144 -0.0635 -0.1402  0.1491
  170loPI   GL1 2709   8.045  10.420  10.884 -0.1563  0.1247 -0.0362
  170loPI   GL2 2710   8.057  10.185  10.815 -0.0662 -0.0538 -0.3043
  170loPI   C1A 2711   7.954  10.619  10.409 -0.1295  0.1704 -0.3441
  170loPI   C2A 2712   7.933  10.580   9.895 -0.2751  0.4059  0.0603
  170loPI   C3A 2713   7.851  10.574   9.527  0.1134  0.1975 -0.1437
  170loPI   C4A 2714   7.791  10.706   9.107  0.0832  0.0918  0.1710
  170loPI   C5A 2715   7.630  10.870   8.733  0.0108 -0.0120 -0.1357
  170loPI   C6A 2716   7.470  11.152   8.499 -0.0952 -0.5087 -0.3327
  170loPI   C1B 2717   8.277  10.187  10.418 -0.1388  0.1109 -0.1140
  170loPI   C2B 2718   8.313  10.269   9.999 -0.3313  0.1021  0.3021
  170loPI   C3B 2719   8.314  10.265   9.640 -0.0158 -0.1967  0.1697
  170loPI   C4B 2720   8.202  10.323   9.152 -0.0655 -0.0210  0.0345
  171loPI    C1 2721   3.843   8.883  11.200  0.0316 -0.1264 -0.0943
  171loPI    C2 2722   3.781   8.709  11.554 -0.1393  0.1727  0.0267
  171loPI    C3 2723   3.521   8.981  11.417 -0.0314  0.1190 -0.2924
  171loPI   PO4 2724   3.895   8.658  11.027  0.0813  0.0631  0.2158
  171loPI   GL1 2725   3.686   8.691  10.637 -0.0689 -0.0616 -0.2969
  171loPI   GL2 2726   3.415   8.716  10.514 -0.1591  0.2906 -0.0446
  171loPI   C1A 2727   3.798   8.877  10.215 -0.2747  0.0523  0.1479
  171loPI   C2A 2728   3.820   8.988   9.770  0.0576  0.4751  0.1317
  171loPI   C3A 2729   3.801   8.912   9.334  0.1884 -0.0572  0.1014
  171loPI   C4A 2730   3.805   8.882   8.845 -0.0218  0.0366  0.0447
  171loPI   C5A 2731   3.715   8.489   8.587  0.0522 -0.0489 -0.1120
  171loPI   C6A 2732   3.625   8.473   8.148  0.1217 -0.1737  0.0238
  171loPI   C1B 2733   3.299   8.725  10.082  0.2551 -0.0747  0.2862
  171loPI   C2B 2734   3.331   8.805   9.704  0.2513  0.1404 -0.0064
  171loPI   C3B 2735   3.254   8.749   9.243 -0.1329 -0.1290 -0.0969
  171loPI   C4B 2736   3.323   8.772   8.778  0.1772  0.1629 -0.2183
  172loPI    C1 2737  10.637   0.495  11.370 -0.2619  0.2508 -0.0636
  172loPI    C2 2738  10.497   0.249  11.652 -0.0841 -0.0375 -0.2211
  172loPI    C3 2739  10.767   0.529  11.747  0.2084 -0.3353 -0.1571
  172loPI   PO4 2740  10.441   0.527  11.237 -0.2509  0.1263 -0.3008
  172loPI   GL1 2741  10.481   0.401  10.818 -0.3244  0.2341 -0.2391
  172loPI   GL2 2742  10.344   0.187  10.591 -0.0899  0.1604 -0.3650
  172loPI   C1A 2743  10.822   0.296  10.453  0.0214  0.0369  0.0816
  172loPI   C2A 2744  10.909   0.365  10.013 -0.0095 -0.0449 -0.1208
  172loPI   C3A 2745  10.932   0.397   9.555 -0.1201 -0.2443 -0.1531
  172loPI   C4A 2746  10.978   0.420   9.122  0.0951  0.1710  0.0119
  172loPI   C5A 2747  10.907   0.489   8.646  0.0033  0.1175  0.0874
  172loPI   C6A 2748  10.894   0.198   8.310  0.0291  0.1192 -0.0674
  172loPI   C1B 2749  10.442   0.194  10.212 -0.0111 -0.4059  0.0799
  172loPI   C2B 2750  10.454   0.317   9.782  0.1858  0.2451 -0.1545
  172loPI   C3B 2751  10.489   0.285   9.352  0.0375  0.1441 -0.1572
  172loPI   C4B 2752  10.429   0.394   8.929  0.3916 -0.0959  0.1001
  173loPI    C1 2753   1.054  10.237  11.224  0.0440  0.1952  0.1926
  173loPI    C2 2754   1.245  10.028  11.507 -0.0937 -0.1228  0.0561
  173loPI    C3 2755   1.105  10.394  11.588  0.2540 -0.0309  0.2635
  173loPI   PO4 2756   1.026  10.190  11.048  0.1495  0.2105 -0.0272
  173loPI   GL1 2757   0.761  10.253  10.747  0.1863  0.2233 -0.0249
  173loPI   GL2 2758   0.429  10.183  10.709  0.0980 -0.1507  0.2723
  173loPI   C1A 2759   0.955  10.313  10.374 -0.1969 -0.1085 -0.2208
  173loPI   C2A 2760   0.896  10.337   9.835 -0.0271 -0.0547 -0.0196
  173loPI   C3A 2761   0.953  10.382   9.372 -0.1435  0.1399 -0.1625
  173loPI   C4A 2762   0.933  10.441   8.927  0.0490 -0.0646  0.0422
  173loPI   C5A 2763   1.184  10.259   8.563  0.0095  0.1145  0.1869
  173loPI   C6A 2764   1.550  10.232   8.333 -0.0539  0.0097 -0.1469
  173loPI   C1B 2765   0.517  10.127  10.239 -0.0913 -0.2084 -0.1688
  173loPI   C2B 2766   0.408  10.227   9.898  0.1497  0.0610  0.0603
  173loPI   C3B 2767   0.457  10.180   9.450 -0.0053  0.3372  0.0103
  173loPI   C4B 2768   0.470  10.202   8.999  0.2069  0.1812 -0.0256
  174loPI    C1 2769  14.231   9.304  11.384  0.0569 -0.0152 -0.1388
  174loPI    C2 2770  14.235   8.986  11.627  0.0122  0.0054 -0.1112
  174loPI    C3 2771  14.256   9.355  11.780 -0.2688  0.0279 -0.1211
  174loPI   PO4 2772  14.028   9.227  11.246 -0.1907 -0.0776 -0.1696
  174loPI   GL1 2773  13.845   9.233  10.779 -0.2641  0.1695 -0.2132
  174loPI   GL2 2774  13.604   9.448  10.733 -0.1646 -0.1647  0.1482
  174loPI   C1A 2775  13.955   9.196  10.391  0.2576  0.3208  0.1413
  174loPI   C2A 2776  13.974   9.329   9.988 -0.2153 -0.0845 -0.2387
  174loPI   C3A 2777  13.910   9.293   9.646  0.1125 -0.0320  0.1863
  174loPI   C4A 2778  13.955   9.384   9.201  0.1830 -0.1332 -0.0433
  174loPI   C5A 2779  13.905   9.062   8.973  0.0051  0.1910 -0.2358
  174loPI   C6A 2780  14.030   8.803   8.807  0.3095  0.3278  0.0968
  174loPI   C1B 2781  13.662   9.555  10.362 -0.2375  0.0238 -0.2758
  174loPI   C2B 2782  13.550   9.601   9.916  0.1112  0.0404  0.2862
  174loPI   C3B 2783  13.592   9.681   9.521 -0.1067  0.1072 -0.0916
  174loPI   C4B 2784  13.559   9.721   9.107  0.1278  0.2244  0.1678
  175loPI    C1 2785  15.740  17.427  11.716 -0.0303  0.2040 -0.0183
  175loPI    C2 2786  15.663  17.576  12.079 -0.2949  0.1482 -0.0494
  175loPI    C3 2787  15.988  17.349  12.020 -0.2090  0.2217  0.1338
  175loPI   PO4 2788  15.719  17.620  11.573  0.1147  0.2069  0.1171
  175loPI   GL1 2789  15.735  17.721  11.100  0.0303  0.4202 -0.0296
  175loPI   GL2 2790  15.371  17.591  11.005  0.2792 -0.0324  0.0793
  175loPI   C1A 2791  15.849  17.852  10.713 -0.1682  0.0009  0.0959
  175loPI   C2A 2792  15.832  17.912  10.230  0.3849  0.2632 -0.0605
  175loPI   C3A 2793  15.886  17.812   9.899 -0.2602 -0.0607  0.1915
  175loPI   C4A 2794  15.805  17.857   9.416 -0.0745  0.0732  0.0497
  175loPI   C5A 2795  15.867  17.859   9.017  0.0042  0.1241 -0.0493
  175loPI   C6A 2796  15.964  17.779   8.580 -0.0256 -0.1094 -0.1117
  175loPI   C1B 2797  15.305  17.627  10.587 -0.2693  0.0535  0.0030
  175loPI   C2B 2798  15.332  17.696  10.152  0.0676  0.0339  0.0612
  175loPI   C3B 2799  15.350  17.699   9.710  0.2492 -0.0024 -0.0128
  175loPI   C4B 2800  15.358  17.772   9.237 -0.2179  0.1548 -0.2167
  176loPI    C1 2801   4.365  16.036  11.418 -0.1224  0.1176  0.2182
  176loPI    C2 2802   4.761  15.993  11.386 -0.1402  0.0341  0.1076
  176loPI    C3 2803   4.595  16.049  11.745 -0.0712 -0.3782  0.2091
  176loPI   PO4 2804   4.332  16.094  11.148  0.0558 -0.0237  0.1322
  176loPI   GL1 2805   4.110  16.129  10.881 -0.1175  0.0419  0.0577
  176loPI   GL2 2806   4.097  15.828  10.741 -0.1236  0.0255 -0.1471
  176loPI   C1A 2807   4.172  16.324  10.486  0.0076  0.3833 -0.0480
  176loPI   C2A 2808   4.194  16.442  10.068  0.0283  0.0009 -0.0002
  176loPI   C3A 2809   4.105  16.451   9.690 -0.1002  0.2977 -0.4589
  176loPI   C4A 2810   4.123  16.495   9.277 -0.2131  0.0003  0.0784
  176loPI   C5A 2811   4.247  16.509   8.862 -0.0609 -0.0449 -0.0396
  176loPI   C6A 2812   4.391  16.655   8.466  0.1127 -0.1540 -0.1430
  176loPI   C1B 2813   4.055  15.948  10.222  0.1180  0.2234  0.3279
  176loPI   C2B 2814   4.020  15.953   9.839 -0.1995 -0.1756 -0.1630
  176loPI   C3B 2815   3.990  16.008   9.432 -0.0271  0.4100  0.0843
  176loPI   C4B 2816   4.021  16.017   8.914 -0.1250  0.3194 -0.3231
  177loPI    C1 2817   8.220  15.637  11.665 -0.2337  0.0438 -0.1182
  177loPI    C2 2818   8.327  15.296  11.845 -0.2310  0.1169  0.0197
  177loPI    C3 2819   8.271  15.627  12.062  0.0965  0.2881 -0.1498
  177loPI   PO4 2820   8.361  15.630  11.474 -0.2245  0.2859  0.2352
  177loPI   GL1 2821   8.363  15.670  11.029  0.0884 -0.2109 -0.1239
  177loPI   GL2 2822   8.127  15.873  10.867  0.1721 -0.1287  0.2840
  177loPI   C1A 2823   8.504  15.463  10.618 -0.2063  0.0616  0.1350
  177loPI   C2A 2824   8.530  15.471  10.132 -0.0628 -0.1801 -0.4443
  177loPI   C3A 2825   8.424  15.475   9.783  0.3605 -0.0142  0.3461
  177loPI   C4A 2826   8.456  15.605   9.273 -0.0423 -0.3558  0.0919
  177loPI   C5A 2827   8.502  15.502   8.812 -0.2409  0.1518 -0.0307
  177loPI   C6A 2828   8.701  15.343   8.506  0.0286 -0.2837  0.0145
  177loPI   C1B 2829   8.031  15.872  10.413  0.0111 -0.4255  0.0625
  177loPI   C2B 2830   8.108  15.835   9.950 -0.0812  0.0910 -0.1461
  177loPI   C3B 2831   8.145  15.845   9.572  0.1223 -0.0761  0.0348
  177loPI   C4B 2832   8.094  15.877   9.110  0.2780 -0.1721 -0.0271
  178loPI    C1 2833  16.609   3.073  11.435 -0.0715  0.5224 -0.1962
  178loPI    C2 2834  16.789   3.093  11.792 -0.2160 -0.1430 -0.0729
  178loPI    C3 2835  16.472   3.324  11.715 -0.1419  0.0549  0.2025
  178loPI   PO4 2836  16.721   2.902  11.299  0.3499  0.1988  0.0367
  178loPI   GL1 2837  16.580   2.853  10.861 -0.0985  0.1555 -0.0667
  178loPI   GL2 2838  16.516   3.161  10.786  0.1876  0.1340  0.1955
  178loPI   C1A 2839  16.438   2.595  10.511  0.2532 -0.0827  0.0647
  178loPI   C2A 2840  16.445   2.573  10.032 -0.1655  0.1012 -0.4076
  178loPI   C3A 2841  16.528   2.651   9.648 -0.0311  0.0427 -0.3618
  178loPI   C4A 2842  16.564   2.635   9.233  0.1375 -0.0370 -0.0397
  178loPI   C5A 2843  16.583   2.637   8.826 -0.1630 -0.0211 -0.0513
  178loPI   C6A 2844  16.552   2.440   8.409 -0.0096 -0.0530 -0.0498
  178loPI   C1B 2845  16.523   3.060  10.298  0.2327 -0.0469 -0.1780
  178loPI   C2B 2846  16.645   3.118   9.827  0.0116  0.1660  0.0470
  178loPI   C3B 2847  16.654   3.102   9.367  0.0764 -0.0765 -0.2774
  178loPI   C4B 2848  16.724   3.180   8.940  0.4053 -0.0724 -0.0073
  179loPI    C1 2849   9.624   8.031  11.447 -0.3175 -0.0236 -0.0481
  179loPI    C2 2850   9.771   7.676  11.557  0.0035  0.0509 -0.2252
  179loPI    C3 2851   9.700   7.957  11.832 -0.3318 -0.1756 -0.0739
  179loPI   PO4 2852   9.463   7.945  11.197 -0.1000 -0.0453  0.2372
  179loPI   GL1 2853   9.560   7.892  10.794 -0.0294 -0.5167  0.0700
  179loPI   GL2 2854   9.442   8.268  10.762  0.0126 -0.0454  0.3119
  179loPI   C1A 2855   9.479   7.710  10.461  0.4333 -0.1059 -0.0167
  179loPI   C2A 2856   9.458   7.773   9.983 -0.1204 -0.1562 -0.0480
  179loPI   C3A 2857   9.510   7.829   9.564  0.4363  0.2790 -0.1101
  179loPI   C4A 2858   9.534   7.826   9.173 -0.1201 -0.0794 -0.1943
  179loPI   C5A 2859   9.568   7.945   8.751 -0.3018  0.0743 -0.0679
  179loPI   C6A 2860   9.450   8.315   8.415  0.0422  0.0519 -0.3478
  179loPI   C1B 2861   9.498   8.195  10.344  0.1195  0.1196 -0.1206
  179loPI   C2B 2862   9.636   8.225   9.974  0.0027 -0.0305 -0.0006
  179loPI   C3B 2863   9.602   8.353   9.554  0.0378  0.0786  0.1177
  179loPI   C4B 2864   9.646   8.369   9.130  0.1324 -0.1363  0.2104
  180loPI    C1 2865   8.353  10.012  11.229  0.0305 -0.0504  0.0134
  180loPI    C2 2866   8.121  10.316  11.346 -0.0455 -0.1119  0.0232
  180loPI    C3 2867   8.244  10.044  11.613 -0.0643 -0.1481 -0.0048
  180loPI   PO4 2868   8.475  10.182  11.054 -0.4483  0.0065  0.0741
  180loPI   GL1 2869   8.539  10.505  10.736 -0.2814 -0.2280 -0.2866
  180loPI   GL2 2870   8.392  10.816  10.701  0.0155  0.0168  0.1032
  180loPI   C1A 2871   8.735  10.350  10.335 -0.2592  0.1369  0.3285
  180loPI   C2A 2872   8.840  10.369   9.899  0.1330  0.3902 -0.1932
  180loPI   C3A 2873   8.736  10.507   9.532 -0.1565  0.3088  0.2751
  180loPI   C4A 2874   8.667  10.454   9.039 -0.1926  0.1620  0.1815
  180loPI   C5A 2875   8.445  10.340   8.700 -0.3322  0.3205  0.1193
  180loPI   C6A 2876   8.217  10.267   8.385  0.2812  0.1021 -0.2625
  180loPI   C1B 2877   8.398  10.723  10.256 -0.2549  0.2387  0.1727
  180loPI   C2B 2878   8.416  10.765   9.800  0.0021  0.0322 -0.0690
  180loPI   C3B 2879   8.283  10.805   9.347 -0.0818  0.3201 -0.2416
  180loPI   C4B 2880   8.275  10.772   8.954 -0.1616 -0.1666  0.0668
  181loPI    C1 2881  17.343   3.948  11.713  0.2638  0.1812  0.0571
  181loPI    C2 2882  17.189   4.293  11.845  0.0555  0.0984  0.0343
  181loPI    C3 2883  17.161   3.963  12.069 -0.0129  0.0296 -0.0742
  181loPI   PO4 2884  17.579   4.030  11.552  0.0331 -0.0358  0.1917
  181loPI   GL1 2885  17.620   3.921  11.058  0.0662 -0.0799 -0.3541
  181loPI   GL2 2886  17.468   4.171  10.899  0.3846 -0.0430 -0.0516
  181loPI   C1A 2887  17.692   3.895  10.569 -0.0421 -0.1570 -0.2343
  181loPI   C2A 2888  17.627   3.859  10.255  0.0246  0.0040 -0.0057
  181loPI   C3A 2889  17.689   3.911   9.833  0.0019 -0.0381 -0.0063
  181loPI   C4A 2890  17.715   3.922   9.410  0.0261 -0.2331 -0.2437
  181loPI   C5A 2891  17.869   3.923   9.068 -0.0365 -0.1539 -0.0142
  181loPI   C6A 2892  18.224   3.706   8.835 -0.1446  0.0054  0.0334
  181loPI   C1B 2893  17.296   4.179  10.463 -0.0436 -0.1023  0.0542
  181loPI   C2B 2894  17.314   4.276  10.102  0.1989  0.2307  0.1476
  181loPI   C3B 2895  17.360   4.275   9.669  0.0535  0.0187  0.2202
  181loPI   C4B 2896  17.323   4.321   9.279  0.0196 -0.1904  0.0327
  182loPI    C1 2897  10.535  17.450  11.727  0.3124 -0.0688 -0.1134
  182loPI    C2 2898  10.816  17.628  11.948  0.0929  0.0076  0.1096
  182loPI    C3 2899  10.431  17.659  12.052 -0.0208  0.0987 -0.3216
  182loPI   PO4 2900  10.612  17.582  11.406  0.1549 -0.0346 -0.1017
  182loPI   GL1 2901  10.520  17.329  10.955  0.2139  0.1136  0.1899
  182loPI   GL2 2902  10.906  17.233  10.905  0.1796 -0.2643 -0.2120
  182loPI   C1A 2903  10.604  17.140  10.542  0.0323  0.0959  0.1722
  182loPI   C2A 2904  10.637  17.082  10.179  0.1496 -0.1651 -0.1954
  182loPI   C3A 2905  10.581  17.138   9.771 -0.3517 -0.2415  0.1700
  182loPI   C4A 2906  10.732  17.171   9.364 -0.0855  0.5354  0.0149
  182loPI   C5A 2907  10.838  17.365   8.977  0.1912 -0.0016 -0.0827
  182loPI   C6A 2908  10.829  17.779   8.830 -0.2069 -0.0064  0.0494
  182loPI   C1B 2909  11.131  17.261  10.471  0.1253  0.1797  0.0513
  182loPI   C2B 2910  11.105  17.232  10.045  0.2035  0.0298 -0.2387
  182loPI   C3B 2911  11.159  17.353   9.657 -0.3196  0.2393 -0.1364
  182loPI   C4B 2912  11.256  17.303   9.236  0.1008 -0.0689 -0.0507
  183loPI    C1 2913  13.173  14.274  11.457 -0.0744 -0.0672  0.0195
  183loPI    C2 2914  13.463  14.041  11.605  0.0388  0.1007  0.0651
  183loPI    C3 2915  13.143  14.128  11.829 -0.1327 -0.2258 -0.0468
  183loPI   PO4 2916  13.192  14.167  11.215  0.2038 -0.1856 -0.0864
  183loPI   GL1 2917  13.338  14.151  10.787  0.1925 -0.0079 -0.0742
  183loPI   GL2 2918  13.356  14.564  10.890 -0.2564  0.2711 -0.0653
  183loPI   C1A 2919  13.204  14.218  10.313 -0.5199  0.0251  0.1104
  183loPI   C2A 2920  13.199  14.206   9.835  0.1320  0.1849 -0.0275
  183loPI   C3A 2921  13.216  14.234   9.391 -0.0601  0.1426  0.1132
  183loPI   C4A 2922  13.469  14.314   8.975 -0.0805  0.2975  0.1238
  183loPI   C5A 2923  13.243  14.508   8.599 -0.1838  0.2000  0.0685
  183loPI   C6A 2924  12.776  14.523   8.393 -0.1309  0.0827  0.0352
  183loPI   C1B 2925  13.358  14.664  10.449  0.2007 -0.0827  0.4504
  183loPI   C2B 2926  13.282  14.688  10.004 -0.2660  0.0523 -0.1287
  183loPI   C3B 2927  13.299  14.739   9.629  0.2582  0.1218 -0.0985
  183loPI   C4B 2928  13.359  14.756   9.246  0.2216 -0.0627  0.1026
  184loPI    C1 2929   8.464   5.261  11.000  0.0668  0.1902 -0.2260
  184loPI    C2 2930   8.426   5.430  11.361 -0.0578  0.0304 -0.1635
  184loPI    C3 2931   8.775   5.268  11.252  0.1044  0.4427 -0.2764
  184loPI   PO4 2932   8.393   5.360  10.850  0.0769 -0.1167  0.2480
  184loPI   GL1 2933   8.134   5.489  10.394  0.2826  0.1907  0.0575
  184loPI   GL2 2934   7.926   5.700  10.567 -0.0482 -0.1288 -0.0090
  184loPI   C1A 2935   8.016   5.520   9.931  0.2888  0.1239 -0.3379
  184loPI   C2A 2936   8.010   5.583   9.558 -0.0427  0.0392 -0.2310
  184loPI   C3A 2937   8.117   5.589   9.101  0.0929  0.1388  0.3564
  184loPI   C4A 2938   8.207   5.427   8.704  0.1730 -0.1145  0.2121
  184loPI   C5A 2939   8.214   5.091   8.341 -0.6727 -0.2082 -0.1251
  184loPI   C6A 2940   8.324   4.760   8.048  0.0662 -0.0612  0.0829
  184loPI   C1B 2941   7.702   5.803  10.262  0.1808 -0.0191 -0.0399
  184loPI   C2B 2942   7.665   5.817   9.880 -0.1961  0.1283 -0.0912
  184loPI   C3B 2943   7.714   5.914   9.425 -0.1246 -0.0754 -0.0318
  184loPI   C4B 2944   7.769   5.942   9.045  0.0171 -0.2786 -0.1003
  185loPI    C1 2945  13.723  16.616  11.678  0.0083  0.4325  0.5260
  185loPI    C2 2946  13.673  16.300  11.918  0.2382  0.0067  0.0335
  185loPI    C3 2947  13.971  16.559  11.986  0.2804 -0.0912  0.2256
  185loPI   PO4 2948  13.731  16.555  11.385  0.0243 -0.1210 -0.0906
  185loPI   GL1 2949  13.731  16.864  11.046 -0.1676  0.2007 -0.4403
  185loPI   GL2 2950  13.725  16.600  10.879 -0.0651  0.3272 -0.0205
  185loPI   C1A 2951  13.828  17.175  10.717 -0.0391  0.1552  0.1384
  185loPI   C2A 2952  13.887  17.270  10.267 -0.0722 -0.1418  0.0248
  185loPI   C3A 2953  13.913  17.283   9.880  0.1340  0.1225  0.0400
  185loPI   C4A 2954  13.895  17.307   9.442 -0.0896 -0.0096 -0.1564
  185loPI   C5A 2955  13.941  17.316   9.032  0.0114  0.2800 -0.0808
  185loPI   C6A 2956  14.177  17.264   8.713 -0.2310 -0.0366 -0.2747
  185loPI   C1B 2957  13.772  16.722  10.461  0.0415  0.2883  0.3356
  185loPI   C2B 2958  13.772  16.764  10.046 -0.0831 -0.2500  0.1421
  185loPI   C3B 2959  13.769  16.799   9.693 -0.2687 -0.0390  0.4405
  185loPI   C4B 2960  13.815  16.863   9.187  0.0648 -0.0903 -0.2272
  186loPI    C1 2961  16.402  15.777  11.735  0.0473  0.0785  0.2452
  186loPI    C2 2962  16.730  15.601  11.882 -0.0313 -0.0446  0.2742
  186loPI    C3 2963  16.385  15.582  12.084 -0.1653 -0.3021  0.0288
  186loPI   PO4 2964  16.447  15.723  11.422  0.0888 -0.3950  0.2972
  186loPI   GL1 2965  16.711  15.475  11.186 -0.1442  0.4072 -0.0752
  186loPI   GL2 2966  17.059  15.466  11.172 -0.0003  0.0269 -0.0370
  186loPI   C1A 2967  16.588  15.251  10.856 -0.4206  0.2359  0.0356
  186loPI   C2A 2968  16.592  15.333  10.411  0.2058  0.1508  0.1050
  186loPI   C3A 2969  16.654  15.267  10.007  0.1236  0.1021  0.0066
  186loPI   C4A 2970  16.634  15.331   9.546  0.1764 -0.0678  0.0558
  186loPI   C5A 2971  16.682  15.331   9.163  0.0802  0.0725  0.0499
  186loPI   C6A 2972  16.341  15.248   8.844  0.0056 -0.1234  0.1446
  186loPI   C1B 2973  17.110  15.475  10.785 -0.0219  0.0254 -0.1014
  186loPI   C2B 2974  17.110  15.466  10.335 -0.1133  0.1258 -0.1314
  186loPI   C3B 2975  17.119  15.450   9.849 -0.1343 -0.0481 -0.2720
  186loPI   C4B 2976  17.143  15.497   9.408 -0.0646  0.2927  0.0711
  187loPI    C1 2977  13.761   4.873  11.251 -0.1388  0.0706  0.1733
  187loPI    C2 2978  14.043   5.153  11.301 -0.1491  0.1023  0.0590
  187loPI    C3 2979  13.938   4.917  11.607  0.1583 -0.0568  0.0452
  187loPI   PO4 2980  13.542   5.003  11.176 -0.0180  0.1390 -0.1715
  187loPI   GL1 2981  13.736   5.074  10.768  0.0295  0.1163 -0.0700
  187loPI   GL2 2982  14.098   5.061  10.787 -0.1090 -0.1823 -0.1939
  187loPI   C1A 2983  13.879   5.065  10.262  0.0337 -0.2425  0.1016
  187loPI   C2A 2984  13.790   5.133   9.904 -0.1025 -0.1662 -0.1948
  187loPI   C3A 2985  13.854   5.144   9.471  0.0490  0.4894 -0.2142
  187loPI   C4A 2986  13.818   5.105   9.068 -0.0784 -0.1632 -0.3313
  187loPI   C5A 2987  13.739   4.892   8.729  0.0370  0.1293 -0.3206
  187loPI   C6A 2988  13.791   4.549   8.490 -0.0803 -0.0505 -0.0703
  187loPI   C1B 2989  14.345   5.149  10.477  0.0504  0.0716  0.0208
  187loPI   C2B 2990  14.329   5.256  10.103  0.1090  0.2185 -0.0939
  187loPI   C3B 2991  14.318   5.229   9.593 -0.1293 -0.0703 -0.1990
  187loPI   C4B 2992  14.244   5.320   9.161  0.0743  0.1855 -0.0485
  188loPI    C1 2993   5.805  15.302  11.802  0.0109 -0.0861 -0.0194
  188loPI    C2 2994   6.159  15.236  11.976 -0.0188 -0.0812  0.0435
  188loPI    C3 2995   5.827  15.255  12.199 -0.0731 -0.1917 -0.0263
  188loPI   PO4 2996   5.943  15.430  11.580  0.0640  0.1320 -0.1422
  188loPI   GL1 2997   6.050  15.404  11.092 -0.2091  0.0510 -0.1723
  188loPI   GL2 2998   5.880  15.196  10.976 -0.0215  0.1938  0.3026
  188loPI   C1A 2999   5.824  15.486  10.586  0.1299 -0.0668 -0.0748
  188loPI   C2A 3000   5.859  15.508  10.147 -0.1607  0.0921 -0.1332
  188loPI   C3A 3001   5.748  15.559   9.675 -0.1480  0.1629  0.1084
  188loPI   C4A 3002   5.709  15.600   9.209 -0.2216 -0.1503  0.1818
  188loPI   C5A 3003   5.829  15.626   8.792  0.2988  0.1047 -0.1495
  188loPI   C6A 3004   5.766  15.457   8.401  0.0750 -0.0913 -0.0492
  188loPI   C1B 3005   5.705  15.009  10.627  0.0931 -0.1604 -0.2262
  188loPI   C2B 3006   5.756  14.937  10.194  0.3047  0.1739 -0.0506
  188loPI   C3B 3007   5.729  15.055   9.813 -0.2780 -0.1048  0.0004
  188loPI   C4B 3008   5.665  15.038   9.273  0.0009 -0.1692 -0.1978
  189loPI    C1 3009  10.751   0.969  11.409 -0.2093  0.0057 -0.0736
  189loPI    C2 3010  10.414   0.891  11.610 -0.1863  0.1131  0.0074
  189loPI    C3 3011  10.742   1.008  11.807 -0.0814 -0.0575 -0.0643
  189loPI   PO4 3012  10.608   0.991  11.157  0.0717 -0.3393 -0.0351
  189loPI   GL1 3013  10.415   0.880  10.738 -0.1264  0.0900  0.2603
  189loPI   GL2 3014  10.355   1.130  10.785  0.0685 -0.1514 -0.0594
  189loPI   C1A 3015  10.555   0.707  10.377  0.0233  0.0230 -0.1357
  189loPI   C2A 3016  10.584   0.774   9.962  0.2564  0.0825 -0.0495
  189loPI   C3A 3017  10.503   0.755   9.554  0.0116  0.0195 -0.0479
  189loPI   C4A 3018  10.650   0.784   9.165  0.1053  0.1344 -0.0460
  189loPI   C5A 3019  10.679   0.943   8.764 -0.1813  0.1257 -0.0706
  189loPI   C6A 3020  10.935   1.165   8.515  0.0723 -0.1958 -0.0565
  189loPI   C1B 3021  10.190   1.093  10.329 -0.4030 -0.1030 -0.0338
  189loPI   C2B 3022  10.160   1.030   9.858  0.0190 -0.2132  0.1251
  189loPI   C3B 3023  10.229   1.153   9.423 -0.0199  0.1996 -0.1377
  189loPI   C4B 3024  10.232   1.059   8.988 -0.0311 -0.1934 -0.2217
  190loPI    C1 3025  11.648  17.608  11.560 -0.1316 -0.2315 -0.0523
  190loPI    C2 3026  11.348  17.435  11.760 -0.1474  0.1205  0.2391
  190loPI    C3 3027  11.713  17.450  11.922 -0.0500 -0.0030  0.0350
  190loPI   PO4 3028  11.616  17.583  11.362  0.0136  0.2241  0.1841
  190loPI   GL1 3029  11.764  17.589  10.932 -0.0169  0.2051 -0.3073
  190loPI   GL2 3030  11.725  17.880  10.923 -0.2597 -0.0305  0.0767
  190loPI   C1A 3031  11.709  17.377  10.565 -0.3197  0.1749  0.0174
  190loPI   C2A 3032  11.576  17.370  10.120 -0.2525  0.0774  0.3734
  190loPI   C3A 3033  11.637  17.467   9.706 -0.0371  0.0057  0.0848
  190loPI   C4A 3034  11.713  17.522   9.236  0.0933 -0.1999 -0.1953
  190loPI   C5A 3035  11.707  17.669   8.772 -0.0177 -0.0853  0.1401
  190loPI   C6A 3036  11.592  17.543   8.398 -0.1108  0.1051 -0.1276
  190loPI   C1B 3037  11.790  17.841  10.535  0.1054 -0.1033  0.2130
  190loPI   C2B 3038  11.736  17.867  10.021 -0.1729  0.1955 -0.0323
  190loPI   C3B 3039  11.784  17.918   9.531  0.2274  0.0911  0.1857
  190loPI   C4B 3040  11.806  18.032   9.067  0.0462  0.0755  0.0777
  191loPI    C1 3041  14.520  16.116  11.711  0.0957  0.2001  0.0760
  191loPI    C2 3042  14.388  16.258  12.061  0.1586  0.0171  0.1753
  191loPI    C3 3043  14.775  16.166  12.015  0.1682  0.1272  0.0277
  191loPI   PO4 3044  14.522  16.184  11.545  0.0024 -0.3184 -0.0533
  191loPI   GL1 3045  14.406  16.062  11.109 -0.2198  0.2784 -0.1352
  191loPI   GL2 3046  14.139  16.336  11.089 -0.1023 -0.1156 -0.0919
  191loPI   C1A 3047  14.524  16.002  10.646  0.0274  0.0159  0.2563
  191loPI   C2A 3048  14.489  15.996  10.222 -0.0462 -0.0443  0.0536
  191loPI   C3A 3049  14.535  16.066   9.731  0.1637  0.2347  0.0661
  191loPI   C4A 3050  14.532  16.138   9.366 -0.1697  0.0274  0.0261
  191loPI   C5A 3051  14.462  16.234   8.879 -0.2450  0.1850  0.1551
  191loPI   C6A 3052  14.140  16.451   8.800 -0.1619 -0.3010 -0.0600
  191loPI   C1B 3053  14.125  16.343  10.597  0.0655  0.1156 -0.3213
  191loPI   C2B 3054  14.153  16.344  10.153  0.2529  0.2076 -0.2313
  191loPI   C3B 3055  14.136  16.358   9.724 -0.2148  0.1095  0.0934
  191loPI   C4B 3056  14.196  16.539   9.308 -0.1509  0.0341 -0.1954
  192loPI    C1 3057   4.223  12.122  11.356  0.0858 -0.1060 -0.0889
  192loPI    C2 3058   4.021  11.880  11.602 -0.0895  0.0695 -0.0575
  192loPI    C3 3059   4.029  12.274  11.671  0.2935  0.0626 -0.0403
  192loPI   PO4 3060   4.202  12.099  11.181  0.2853 -0.2343 -0.0053
  192loPI   GL1 3061   4.107  12.324  10.820 -0.1115  0.0078 -0.0044
  192loPI   GL2 3062   3.887  12.180  10.773  0.1115 -0.3024  0.1187
  192loPI   C1A 3063   4.261  12.313  10.406 -0.0172 -0.0349  0.2914
  192loPI   C2A 3064   4.221  12.215  10.036 -0.2303  0.1572  0.0862
  192loPI   C3A 3065   4.090  12.169   9.625 -0.0646 -0.4198 -0.0639
  192loPI   C4A 3066   4.114  12.342   9.194  0.0212 -0.0008  0.3455
  192loPI   C5A 3067   4.295  12.762   8.938 -0.0937  0.2555  0.1255
  192loPI   C6A 3068   4.595  12.952   8.635 -0.0241 -0.0498 -0.0179
  192loPI   C1B 3069   3.791  12.095  10.402 -0.0103 -0.1270  0.1803
  192loPI   C2B 3070   3.706  12.117   9.999  0.2109 -0.1600 -0.2746
  192loPI   C3B 3071   3.590  12.124   9.569  0.0869 -0.0544  0.1098
  192loPI   C4B 3072   3.600  12.106   9.221 -0.1240  0.1569 -0.1256
  193loPI    C1 3073   7.898   5.994  11.451  0.0031 -0.0119  0.0660
  193loPI    C2 3074   8.241   5.868  11.614 -0.0549 -0.0590  0.1523
  193loPI    C3 3075   7.906   5.873  11.832 -0.0977  0.0408  0.0851
  193loPI   PO4 3076   8.101   6.209  11.248  0.1077  0.0676 -0.0549
  193loPI   GL1 3077   8.319   6.119  10.787  0.1128 -0.0975 -0.2658
  193loPI   GL2 3078   8.385   5.927  10.612  0.0866  0.1333  0.0780
  193loPI   C1A 3079   8.279   6.482  10.476 -0.0239 -0.1156  0.2557
  193loPI   C2A 3080   8.276   6.449  10.068  0.1323  0.0388  0.1011
  193loPI   C3A 3081   8.270   6.599   9.727 -0.0802  0.0503  0.1689
  193loPI   C4A 3082   8.266   6.521   9.271  0.0871  0.1501 -0.4370
  193loPI   C5A 3083   8.353   6.620   8.846 -0.0791  0.0422 -0.0716
  193loPI   C6A 3084   8.382   6.466   8.393 -0.1532  0.0298 -0.1823
  193loPI   C1B 3085   8.255   5.976  10.188  0.2672  0.0786 -0.2630
  193loPI   C2B 3086   8.112   6.023   9.769  0.1418 -0.0763  0.2156
  193loPI   C3B 3087   8.215   6.043   9.345 -0.0999 -0.0502  0.1500
  193loPI   C4B 3088   8.271   6.096   8.900 -0.0632  0.2180 -0.0209
  194loPI    C1 3089  12.782   8.855  11.899  0.2660 -0.0302 -0.1049
  194loPI    C2 3090  12.930   8.570  12.137  0.0359 -0.0941 -0.0354
  194loPI    C3 3091  13.009   8.955  12.213  0.0169 -0.1178  0.1065
  194loPI   PO4 3092  12.799   8.863  11.669  0.0664 -0.0089 -0.2240
  194loPI   GL1 3093  12.781   8.619  11.230  0.2728  0.4766 -0.0234
  194loPI   GL2 3094  12.787   8.913  11.041 -0.0004  0.2264 -0.2404
  194loPI   C1A 3095  12.811   8.433  10.800 -0.1854  0.1437 -0.2920
  194loPI   C2A 3096  12.886   8.436  10.360  0.0826 -0.0267 -0.0235
  194loPI   C3A 3097  12.914   8.497   9.932 -0.0857 -0.0495 -0.1401
  194loPI   C4A 3098  12.864   8.532   9.507  0.0115 -0.1349 -0.1377
  194loPI   C5A 3099  12.880   8.594   9.086 -0.0826  0.1839  0.0531
  194loPI   C6A 3100  12.626   8.912   8.786 -0.0589 -0.1600  0.1646
  194loPI   C1B 3101  12.918   8.875  10.619 -0.1268  0.1680  0.2130
  194loPI   C2B 3102  12.989   8.967  10.174  0.0623  0.1776 -0.0900
  194loPI   C3B 3103  12.932   8.980   9.731  0.1713  0.4946  0.0848
  194loPI   C4B 3104  12.962   9.080   9.264  0.1160 -0.0621  0.0072
  195loPI    C1 3105  10.014   4.960  11.035  0.0568 -0.0877 -0.1874
  195loPI    C2 3106   9.970   5.335  10.903 -0.3296 -0.0597  0.0076
  195loPI    C3 3107  10.087   5.268  11.279  0.0048 -0.1387 -0.1073
  195loPI   PO4 3108   9.998   4.832  10.792 -0.0997 -0.0935 -0.1534
  195loPI   GL1 3109  10.151   4.735  10.408 -0.0481 -0.0810 -0.1170
  195loPI   GL2 3110  10.578   4.647  10.443 -0.2150 -0.1415 -0.2627
  195loPI   C1A 3111  10.054   4.712  10.026  0.1348 -0.2031  0.5851
  195loPI   C2A 3112  10.197   4.642   9.604  0.0894  0.2977  0.1680
  195loPI   C3A 3113  10.272   4.842   9.271  0.0843  0.2520 -0.0489
  195loPI   C4A 3114  10.284   5.113   8.982 -0.0933 -0.1499 -0.3503
  195loPI   C5A 3115  10.307   5.409   8.650  0.1424 -0.3229  0.0203
  195loPI   C6A 3116  10.264   5.510   8.169 -0.0079  0.0581  0.0915
  195loPI   C1B 3117  10.517   4.564  10.020  0.0571  0.1556 -0.3566
  195loPI   C2B 3118  10.590   4.348   9.641 -0.0103 -0.0037 -0.2587
  195loPI   C3B 3119  10.601   4.373   9.263  0.2586  0.2256  0.3127
  195loPI   C4B 3120  10.851   4.719   9.037  0.1026  0.0392 -0.0299
  196loPI    C1 3121  14.790  15.638  11.948  0.0309  0.4289  0.0073
  196loPI    C2 3122  14.395  15.578  11.946  0.1080 -0.1412  0.0012
  196loPI    C3 3123  14.562  15.798  12.235 -0.2157  0.1630 -0.0353
  196loPI   PO4 3124  14.839  15.706  11.679  0.0939 -0.1281 -0.0493
  196loPI   GL1 3125  14.949  15.750  11.309 -0.1437  0.1388 -0.0678
  196loPI   GL2 3126  14.701  15.673  11.110  0.3400  0.1401 -0.1940
  196loPI   C1A 3127  14.948  16.123  10.994  0.2377  0.0074 -0.0905
  196loPI   C2A 3128  15.057  16.107  10.500 -0.0657 -0.0619  0.0565
  196loPI   C3A 3129  14.994  16.222  10.093 -0.2506  0.4761 -0.2319
  196loPI   C4A 3130  15.013  16.182   9.699  0.1391 -0.0355  0.0008
  196loPI   C5A 3131  15.021  16.256   9.246 -0.0580  0.0837 -0.3082
  196loPI   C6A 3132  14.963  16.289   8.826  0.2198  0.0175  0.0646
  196loPI   C1B 3133  14.924  15.628  10.789  0.1124  0.5325 -0.1846
  196loPI   C2B 3134  14.900  15.635  10.342  0.0686  0.1985  0.1494
  196loPI   C3B 3135  14.915  15.774   9.942  0.3120  0.0313 -0.1241
  196loPI   C4B 3136  15.002  15.708   9.472  0.0862  0.0786 -0.1376
  197loPI    C1 3137   3.779   7.101  11.625 -0.0527 -0.2349  0.0613
  197loPI    C2 3138   3.616   7.377  11.865  0.2653 -0.0558  0.0766
  197loPI    C3 3139   3.853   7.094  12.018  0.3173 -0.0544 -0.0007
  197loPI   PO4 3140   3.698   7.247  11.357 -0.1057  0.0168 -0.0102
  197loPI   GL1 3141   3.603   7.077  11.007  0.1130  0.0372  0.3708
  197loPI   GL2 3142   3.566   7.373  10.804 -0.2149 -0.0086 -0.1882
  197loPI   C1A 3143   3.807   6.987  10.662 -0.1497 -0.2661 -0.0223
  197loPI   C2A 3144   3.858   6.998  10.269 -0.1722  0.0803  0.0486
  197loPI   C3A 3145   3.883   7.006   9.849  0.1557 -0.3040 -0.1280
  197loPI   C4A 3146   3.845   7.012   9.383 -0.1573  0.0937  0.0351
  197loPI   C5A 3147   3.953   6.964   8.949 -0.0689  0.2472 -0.0890
  197loPI   C6A 3148   3.989   6.963   8.521  0.2606 -0.1685 -0.1925
  197loPI   C1B 3149   3.483   7.306  10.429  0.2401  0.1916  0.1261
  197loPI   C2B 3150   3.581   7.367   9.983 -0.2456  0.0800 -0.1111
  197loPI   C3B 3151   3.500   7.387   9.502 -0.0985  0.3963 -0.0343
  197loPI   C4B 3152   3.578   7.359   9.050  0.0163 -0.0342 -0.2179
  198loPI    C1 3153   5.034   7.384  11.542 -0.0319 -0.0484  0.1546
  198loPI    C2 3154   5.231   7.048  11.635  0.2000  0.0488  0.0231
  198loPI    C3 3155   5.202   7.343  11.903 -0.0941 -0.1151  0.1760
  198loPI   PO4 3156   5.141   7.432  11.249  0.1875 -0.1256 -0.1968
  198loPI   GL1 3157   5.080   7.404  10.908  0.3166 -0.0982 -0.0959
  198loPI   GL2 3158   5.242   7.516  10.743  0.0936  0.1589 -0.0104
  198loPI   C1A 3159   4.860   7.286  10.505  0.0401  0.0608  0.3587
  198loPI   C2A 3160   4.875   7.349  10.084 -0.0027  0.3478 -0.3716
  198loPI   C3A 3161   4.908   7.331   9.663  0.3142  0.0450 -0.0464
  198loPI   C4A 3162   4.845   7.412   9.247 -0.0036 -0.0274 -0.2597
  198loPI   C5A 3163   4.865   7.406   8.809 -0.0307 -0.1677 -0.1232
  198loPI   C6A 3164   4.999   7.466   8.403  0.0685  0.0539  0.0092
  198loPI   C1B 3165   5.388   7.500  10.326 -0.2075 -0.0103  0.4224
  198loPI   C2B 3166   5.366   7.458   9.844 -0.0366 -0.0068 -0.0971
  198loPI   C3B 3167   5.376   7.521   9.400  0.0731  0.0829 -0.2416
  198loPI   C4B 3168   5.299   7.550   8.937  0.1386  0.2043 -0.0970
  199loPI    C1 3169   2.745  14.940  11.473 -0.0583 -0.0041 -0.1193
  199loPI    C2 3170   2.427  14.947  11.716 -0.0405 -0.1100 -0.0926
  199loPI    C3 3171   2.776  14.801  11.847  0.0513  0.1133 -0.0838
  199loPI   PO4 3172   2.602  14.930  11.247  0.0955 -0.1232  0.0709
  199loPI   GL1 3173   2.585  14.885  10.842 -0.1476 -0.2169 -0.0143
  199loPI   GL2 3174   2.706  15.206  10.727 -0.3308 -0.2287 -0.2240
  199loPI   C1A 3175   2.510  14.885  10.391  0.2432  0.1244 -0.2085
  199loPI   C2A 3176   2.427  14.983  10.005 -0.1577  0.1475  0.1507
  199loPI   C3A 3177   2.458  14.972   9.553 -0.0164  0.1726  0.0023
  199loPI   C4A 3178   2.512  14.997   9.116  0.0691 -0.0480 -0.0354
  199loPI   C5A 3179   2.669  15.084   8.813 -0.2626  0.2661  0.0874
  199loPI   C6A 3180   2.825  15.144   8.335  0.0333 -0.0303 -0.1864
  199loPI   C1B 3181   2.657  15.426  10.378 -0.1556  0.1439 -0.0137
  199loPI   C2B 3182   2.563  15.488   9.937  0.2772  0.2405  0.0415
  199loPI   C3B 3183   2.576  15.529   9.513 -0.1235 -0.2108  0.1514
  199loPI   C4B 3184   2.558  15.478   9.151 -0.0458 -0.0573 -0.0270
  200loPI    C1 3185   7.188  12.782  11.190 -0.1397 -0.0151  0.0030
  200loPI    C2 3186   7.339  13.066  11.429 -0.0943 -0.0404  0.0046
  200loPI    C3 3187   7.350  12.682  11.542 -0.0906 -0.0505 -0.0294
  200loPI   PO4 3188   7.273  12.816  11.004 -0.0558  0.1561 -0.3017
  200loPI   GL1 3189   7.433  12.683  10.642  0.0043 -0.0984 -0.3034
  200loPI   GL2 3190   7.617  12.967  10.701 -0.0817  0.0562 -0.0739
  200loPI   C1A 3191   7.536  12.820  10.246  0.3121  0.1169 -0.0634
  200loPI   C2A 3192   7.520  12.836   9.844  0.0671 -0.0178 -0.1891
  200loPI   C3A 3193   7.493  12.810   9.450 -0.2410 -0.0714  0.0132
  200loPI   C4A 3194   7.404  12.879   9.022 -0.3829 -0.2910  0.3820
  200loPI   C5A 3195   7.401  13.057   8.707 -0.0169 -0.0798 -0.0467
  200loPI   C6A 3196   7.394  13.173   8.241  0.0577 -0.3695 -0.3129
  200loPI   C1B 3197   7.602  13.270  10.416 -0.0145  0.2713  0.0334
  200loPI   C2B 3198   7.588  13.349   9.973 -0.1699 -0.1269  0.0601
  200loPI   C3B 3199   7.544  13.301   9.526 -0.2164 -0.2992  0.0102
  200loPI   C4B 3200   7.571  13.400   9.111  0.2181 -0.0325 -0.0775
  201loPI    C1 3201   8.609   7.850  11.572 -0.2633 -0.1006  0.1204
  201loPI    C2 3202   8.814   7.818  11.914 -0.0738  0.2197  0.0407
  201loPI    C3 3203   8.475   8.029  11.904 -0.2622 -0.0744  0.1068
  201loPI   PO4 3204   8.768   7.866  11.363  0.0409  0.0403 -0.1233
  201loPI   GL1 3205   8.736   7.821  10.991  0.0100 -0.1112  0.2224
  201loPI   GL2 3206   9.085   7.700  10.894  0.0848  0.0819  0.0362
  201loPI   C1A 3207   8.612   7.822  10.619 -0.0784  0.0721  0.1504
  201loPI   C2A 3208   8.605   8.050  10.232 -0.1506  0.0118  0.1818
  201loPI   C3A 3209   8.602   8.027   9.736  0.0645  0.0875  0.1638
  201loPI   C4A 3210   8.594   8.146   9.287  0.1774 -0.0591  0.1608
  201loPI   C5A 3211   8.730   8.106   8.819 -0.1004  0.0473  0.0106
  201loPI   C6A 3212   8.543   7.802   8.572 -0.0159 -0.0297 -0.0592
  201loPI   C1B 3213   9.025   7.539  10.483 -0.0426 -0.1627  0.1241
  201loPI   C2B 3214   8.974   7.622  10.075 -0.0026  0.0805 -0.0566
  201loPI   C3B 3215   9.006   7.669   9.624 -0.0472  0.2946 -0.0097
  201loPI   C4B 3216   9.024   7.774   9.219 -0.1721  0.2054 -0.2093
  202loPI    C1 3217   6.083   0.183  11.564 -0.0181 -0.1646 -0.0491
  202loPI    C2 3218   6.258   0.495  11.743 -0.2030 -0.1710  0.1467
  202loPI    C3 3219   6.450   0.146  11.718  0.1055  0.0212 -0.2927
  202loPI   PO4 3220   6.037   0.317  11.187 -0.3650  0.3634 -0.0813
  202loPI   GL1 3221   6.075   0.088  10.831 -0.1286 -0.0180 -0.3220
  202loPI   GL2 3222   6.374   0.310  10.709 -0.2743 -0.0343  0.1427
  202loPI   C1A 3223   5.872   0.094  10.423 -0.0887 -0.3962 -0.0883
  202loPI   C2A 3224   5.880   0.207  10.002 -0.1407 -0.1186 -0.0377
  202loPI   C3A 3225   5.851   0.225   9.626  0.0342  0.1932  0.0779
  202loPI   C4A 3226   5.882   0.218   9.152  0.2183 -0.2550  0.0189
  202loPI   C5A 3227   5.691  -0.094   8.857 -0.0225 -0.0547  0.0797
  202loPI   C6A 3228   5.610  -0.449   8.668  0.2034 -0.1229  0.0625
  202loPI   C1B 3229   6.392   0.246  10.273  0.0978 -0.0863 -0.0715
  202loPI   C2B 3230   6.445   0.312   9.845  0.1846 -0.0400  0.1024
  202loPI   C3B 3231   6.355   0.462   9.419 -0.1797  0.0448  0.3210
  202loPI   C4B 3232   6.298   0.425   8.966  0.1637  0.0977 -0.2375
  203loPI    C1 3233  14.485   2.979  11.846  0.0091  0.0671 -0.0694
  203loPI    C2 3234  14.479   2.715  11.545 -0.0215 -0.0732  0.0529
  203loPI    C3 3235  14.229   2.671  11.855 -0.2711  0.2947 -0.0888
  203loPI   PO4 3236  14.526   3.194  11.697  0.2222 -0.1945  0.0277
  203loPI   GL1 3237  14.468   3.104  11.222  0.1274 -0.2563  0.1248
  203loPI   GL2 3238  14.275   2.824  11.015  0.0351  0.2238 -0.1196
  203loPI   C1A 3239  14.428   3.356  10.817  0.1635  0.1023  0.2395
  203loPI   C2A 3240  14.315   3.310  10.372  0.1171 -0.3131  0.2452
  203loPI   C3A 3241  14.277   3.359   9.949  0.1651  0.1429 -0.2175
  203loPI   C4A 3242  14.441   3.325   9.530 -0.0080 -0.0336  0.1994
  203loPI   C5A 3243  14.494   3.336   9.068  0.1860  0.0226 -0.2544
  203loPI   C6A 3244  14.736   3.480   8.818  0.0874 -0.2730 -0.1270
  203loPI   C1B 3245  14.186   2.836  10.565 -0.0554  0.3186  0.1431
  203loPI   C2B 3246  14.273   2.830  10.131  0.3910 -0.1361 -0.1893
  203loPI   C3B 3247  14.204   2.888   9.761 -0.1060  0.0014  0.1837
  203loPI   C4B 3248  14.343   2.912   9.274  0.0060  0.0811  0.0343
  204loPI    C1 3249  13.655  13.563  11.563  0.0732  0.1015  0.0655
  204loPI    C2 3250  13.687  13.449  11.945  0.2255 -0.0809  0.0003
  204loPI    C3 3251  13.813  13.811  11.834  0.1872 -0.0299  0.1208
  204loPI   PO4 3252  13.473  13.552  11.478 -0.0977  0.3261  0.2572
  204loPI   GL1 3253  13.301  13.684  11.062  0.0797 -0.1680 -0.0707
  204loPI   GL2 3254  12.981  13.694  11.016 -0.0483 -0.0477  0.0221
  204loPI   C1A 3255  13.612  13.751  10.774  0.1812 -0.0251  0.2503
  204loPI   C2A 3256  13.561  13.807  10.337  0.2674  0.2777 -0.2066
  204loPI   C3A 3257  13.653  13.775   9.953 -0.0360 -0.1068  0.0083
  204loPI   C4A 3258  13.573  13.873   9.587  0.0200 -0.0577  0.0530
  204loPI   C5A 3259  13.644  13.858   9.169 -0.0333 -0.1045 -0.1484
  204loPI   C6A 3260  13.772  13.938   8.839  0.1047  0.2650  0.1135
  204loPI   C1B 3261  13.101  13.626  10.613  0.2368  0.0195  0.0881
  204loPI   C2B 3262  13.088  13.675  10.145 -0.0132  0.0730 -0.0057
  204loPI   C3B 3263  13.136  13.713   9.682  0.1892  0.1767  0.1508
  204loPI   C4B 3264  13.128  13.712   9.278  0.0481  0.2528  0.1220
  205loPI    C1 3265  10.617   6.773  11.322  0.0585  0.0405  0.1376
  205loPI    C2 3266  10.248   6.664  11.432  0.0148 -0.0596 -0.1036
  205loPI    C3 3267  10.403   7.008  11.565 -0.0574 -0.1499  0.2217
  205loPI   PO4 3268  10.668   6.693  11.058 -0.1459 -0.0103 -0.0959
  205loPI   GL1 3269  10.560   6.689  10.665 -0.2490  0.0341 -0.0307
  205loPI   GL2 3270  10.823   6.844  10.599 -0.0795  0.0711 -0.0010
  205loPI   C1A 3271  10.332   7.011  10.451 -0.2822 -0.0897 -0.0870
  205loPI   C2A 3272  10.274   7.102  10.060 -0.1084 -0.1310  0.0029
  205loPI   C3A 3273  10.218   7.177   9.634  0.0656 -0.1112  0.0697
  205loPI   C4A 3274  10.379   7.110   9.199  0.2205 -0.0477  0.1468
  205loPI   C5A 3275  10.593   7.125   8.836 -0.2398  0.1047  0.4346
  205loPI   C6A 3276  10.710   7.117   8.405  0.0480  0.1596 -0.0848
  205loPI   C1B 3277  10.705   6.807  10.140  0.2405 -0.1626  0.1127
  205loPI   C2B 3278  10.629   6.903   9.684  0.0632  0.2243  0.2270
  205loPI   C3B 3279  10.659   6.733   9.257  0.1974  0.0049 -0.1417
  205loPI   C4B 3280  10.837   6.717   8.885  0.0054 -0.1593 -0.0597
  206loPI    C1 3281   3.335  17.185  11.785 -0.1703 -0.1426  0.0165
  206loPI    C2 3282   3.517  17.360  12.095 -0.1807 -0.0059 -0.0535
  206loPI    C3 3283   3.391  16.981  12.124  0.0170 -0.0664  0.0321
  206loPI   PO4 3284   3.445  17.232  11.599  0.1616 -0.0618  0.1423
  206loPI   GL1 3285   3.258  17.290  11.149  0.0271 -0.0684  0.0211
  206loPI   GL2 3286   3.030  17.487  11.018 -0.4447 -0.0764  0.0914
  206loPI   C1A 3287   3.453  17.088  10.731  0.3313 -0.2075  0.2210
  206loPI   C2A 3288   3.371  16.991  10.322 -0.2414 -0.0936 -0.1756
  206loPI   C3A 3289   3.400  17.119   9.811  0.2307 -0.0568  0.0934
  206loPI   C4A 3290   3.369  17.159   9.396  0.1492  0.0578 -0.0442
  206loPI   C5A 3291   3.428  17.273   8.984  0.2008  0.1050 -0.0327
  206loPI   C6A 3292   3.291  17.412   8.769 -0.1206  0.2359 -0.2145
  206loPI   C1B 3293   3.043  17.391  10.629  0.1143 -0.0330  0.1604
  206loPI   C2B 3294   2.945  17.369  10.265  0.0222  0.0343  0.0210
  206loPI   C3B 3295   2.981  17.487   9.822  0.2530  0.2376 -0.0217
  206loPI   C4B 3296   3.055  17.567   9.379 -0.1885 -0.0570 -0.1190
  207loPI    C1 3297  10.318   5.727  11.024 -0.1942 -0.0649  0.3481
  207loPI    C2 3298  10.554   5.425  11.139  0.0569 -0.0380 -0.0763
  207loPI    C3 3299  10.589   5.784  11.313  0.1585 -0.1002  0.0327
  207loPI   PO4 3300  10.338   5.683  10.746 -0.0701 -0.0068  0.1427
  207loPI   GL1 3301  10.055   5.566  10.437 -0.0248 -0.0123  0.1067
  207loPI   GL2 3302  10.011   5.824  10.326  0.1620  0.0119  0.1853
  207loPI   C1A 3303  10.285   5.199  10.285 -0.1458  0.1828  0.1742
  207loPI   C2A 3304  10.301   5.104   9.845 -0.2685 -0.2093 -0.0438
  207loPI   C3A 3305  10.065   5.353   9.570 -0.0412  0.1036  0.0262
  207loPI   C4A 3306   9.820   5.542   9.343 -0.0871 -0.1083  0.0136
  207loPI   C5A 3307   9.479   5.692   9.098 -0.0610  0.2792 -0.1696
  207loPI   C6A 3308   9.453   5.693   8.627  0.3538  0.1795 -0.0258
  207loPI   C1B 3309  10.109   5.787   9.847  0.1349  0.0198 -0.1285
  207loPI   C2B 3310  10.133   6.136   9.522 -0.0286 -0.0542  0.1483
  207loPI   C3B 3311  10.160   6.161   9.143 -0.0367  0.2450 -0.4483
  207loPI   C4B 3312  10.517   6.311   8.863  0.0134 -0.0032 -0.0783
  208loPI    C1 3313  13.363  15.607  11.818 -0.1817  0.0694  0.0543
  208loPI    C2 3314  13.222  15.701  12.180  0.0807  0.1850  0.1290
  208loPI    C3 3315  13.596  15.798  12.080  0.1585 -0.2405 -0.0147
  208loPI   PO4 3316  13.208  15.738  11.625 -0.0831  0.1700  0.0351
  208loPI   GL1 3317  13.289  15.689  11.170  0.1533  0.2821  0.2249
  208loPI   GL2 3318  13.052  15.847  11.037 -0.1720  0.0433  0.1383
  208loPI   C1A 3319  13.517  15.618  10.900  0.3397 -0.0958  0.2744
  208loPI   C2A 3320  13.604  15.631  10.438  0.1603 -0.4266 -0.2106
  208loPI   C3A 3321  13.564  15.661   9.997  0.2621 -0.2475 -0.0627
  208loPI   C4A 3322  13.592  15.740   9.502 -0.1193 -0.2737  0.1688
  208loPI   C5A 3323  13.563  15.727   9.065  0.0765 -0.2568  0.0468
  208loPI   C6A 3324  13.321  15.485   8.753 -0.2610 -0.0521  0.1871
  208loPI   C1B 3325  13.221  15.979  10.677 -0.0136  0.0448 -0.2395
  208loPI   C2B 3326  13.117  16.065  10.197 -0.1279  0.2197 -0.2377
  208loPI   C3B 3327  13.159  16.108   9.748 -0.0027  0.2165 -0.2198
  208loPI   C4B 3328  13.259  16.176   9.375 -0.0705  0.2623  0.1341
  209loPI    C1 3329  16.888  12.808  11.387 -0.1249 -0.0897 -0.0655
  209loPI    C2 3330  17.051  13.003  11.696  0.0060 -0.0762 -0.1425
  209loPI    C3 3331  16.683  12.850  11.728  0.1123 -0.2875  0.1051
  209loPI   PO4 3332  16.987  12.978  11.179 -0.1424 -0.1637 -0.1987
  209loPI   GL1 3333  17.131  13.082  10.744  0.2737  0.1279  0.1346
  209loPI   GL2 3334  16.805  13.030  10.630  0.0036 -0.1015 -0.0024
  209loPI   C1A 3335  17.154  13.116  10.315  0.1761 -0.1206  0.2447
  209loPI   C2A 3336  16.988  13.161   9.963  0.1680 -0.2180  0.3296
  209loPI   C3A 3337  17.029  13.098   9.532  0.0671  0.1180 -0.0166
  209loPI   C4A 3338  17.005  13.033   9.034 -0.2810  0.4839 -0.0515
  209loPI   C5A 3339  17.227  13.049   8.582 -0.1836 -0.0596  0.1633
  209loPI   C6A 3340  17.234  13.454   8.440 -0.2689 -0.0274 -0.0415
  209loPI   C1B 3341  16.587  12.988  10.358  0.0907  0.2847  0.1637
  209loPI   C2B 3342  16.535  13.034   9.934 -0.0434 -0.1449 -0.0839
  209loPI   C3B 3343  16.518  12.935   9.509 -0.2730  0.0056 -0.1511
  209loPI   C4B 3344  16.162  12.744   9.338  0.1413  0.0136  0.1236
  210loPI    C1 3345   1.647  15.050  11.413 -0.0292  0.0267  0.0511
  210loPI    C2 3346   1.540  15.101  11.795 -0.0974  0.1519  0.0159
  210loPI    C3 3347   1.926  15.068  11.699 -0.0965 -0.2418  0.1369
  210loPI   PO4 3348   1.490  15.151  11.308  0.1398  0.2149  0.2030
  210loPI   GL1 3349   1.438  15.183  10.919 -0.1000 -0.0655 -0.0244
  210loPI   GL2 3350   1.302  15.436  10.816 -0.3536 -0.0911  0.1259
  210loPI   C1A 3351   1.706  15.241  10.552 -0.0003  0.2878  0.2592
  210loPI   C2A 3352   1.612  15.159  10.156  0.0837 -0.0766  0.0875
  210loPI   C3A 3353   1.624  15.170   9.739 -0.0663 -0.1477 -0.1893
  210loPI   C4A 3354   1.632  15.166   9.310 -0.2435 -0.0650 -0.1945
  210loPI   C5A 3355   1.639  15.307   8.920 -0.1475 -0.0239  0.1510
  210loPI   C6A 3356   1.245  15.499   8.543  0.2587  0.1742 -0.2446
  210loPI   C1B 3357   1.287  15.526  10.427 -0.1324 -0.3976  0.3730
  210loPI   C2B 3358   1.217  15.471   9.980 -0.1873  0.0157  0.2527
  210loPI   C3B 3359   1.306  15.503   9.543 -0.0902  0.0097  0.0140
  210loPI   C4B 3360   1.286  15.597   9.107 -0.1414 -0.1610  0.1115
  211loPI    C1 3361   8.767  11.481  11.234 -0.1766 -0.0161 -0.1807
  211loPI    C2 3362   8.436  11.591  11.428 -0.1943 -0.0522 -0.1903
  211loPI    C3 3363   8.586  11.225  11.482 -0.2737 -0.1082 -0.3449
  211loPI   PO4 3364   8.767  11.481  10.989  0.2709 -0.1304 -0.1152
  211loPI   GL1 3365   8.627  11.544  10.641  0.1652 -0.2118  0.2008
  211loPI   GL2 3366   8.537  11.258  10.571  0.0535 -0.1687  0.0256
  211loPI   C1A 3367   8.607  11.746  10.248 -0.2176 -0.4987  0.1445
  211loPI   C2A 3368   8.576  11.786   9.816 -0.1907 -0.0044  0.2649
  211loPI   C3A 3369   8.599  11.838   9.372 -0.0829 -0.0464 -0.0330
  211loPI   C4A 3370   8.522  11.904   8.974 -0.0573 -0.0459  0.2721
  211loPI   C5A 3371   8.797  11.745   8.691 -0.3330  0.1396 -0.0470
  211loPI   C6A 3372   8.992  11.503   8.305 -0.1106  0.2178  0.1538
  211loPI   C1B 3373   8.511  11.277  10.105 -0.1926 -0.0919 -0.1734
  211loPI   C2B 3374   8.512  11.303   9.712  0.1857 -0.0849  0.2163
  211loPI   C3B 3375   8.440  11.301   9.319 -0.0661 -0.0272 -0.0451
  211loPI   C4B 3376   8.462  11.327   8.936  0.1449 -0.1348  0.0683
  212loPI    C1 3377   8.830  11.999  11.519 -0.2787 -0.0189  0.0403
  212loPI    C2 3378   8.677  11.791  11.824 -0.0504 -0.0295  0.1496
  212loPI    C3 3379   8.792  12.170  11.878  0.2032 -0.1023  0.1388
  212loPI   PO4 3380   8.685  12.032  11.264 -0.3187 -0.2382 -0.1866
  212loPI   GL1 3381   8.697  12.146  10.846 -0.0637 -0.2928 -0.0496
  212loPI   GL2 3382   8.899  11.954  10.828 -0.0595 -0.0786 -0.0297
  212loPI   C1A 3383   8.730  12.251  10.367  0.2529  0.0541  0.2582
  212loPI   C2A 3384   8.702  12.292   9.976  0.0274  0.2608  0.0397
  212loPI   C3A 3385   8.705  12.349   9.582  0.2480  0.2594 -0.2155
  212loPI   C4A 3386   8.673  12.362   9.071 -0.1283  0.0546 -0.1103
  212loPI   C5A 3387   8.687  12.337   8.664  0.1985 -0.1698  0.0111
  212loPI   C6A 3388   8.925  12.574   8.407  0.2754  0.0869  0.2174
  212loPI   C1B 3389   9.138  11.946  10.489  0.2946  0.0403  0.1719
  212loPI   C2B 3390   9.018  11.906  10.040  0.3120 -0.4196  0.2893
  212loPI   C3B 3391   9.100  11.959   9.586  0.3847  0.0017 -0.1165
  212loPI   C4B 3392   9.054  11.993   9.123  0.0458  0.1019  0.2415
  213loPI    C1 3393  13.047   5.267  11.464  0.0665  0.0244  0.0510
  213loPI    C2 3394  12.648   5.239  11.469  0.0638  0.0691  0.0881
  213loPI    C3 3395  12.859   5.150  11.797  0.0826  0.0727  0.0770
  213loPI   PO4 3396  13.149   5.436  11.160 -0.0236 -0.3525 -0.0576
  213loPI   GL1 3397  13.250   5.266  10.876  0.0096 -0.1947  0.1144
  213loPI   GL2 3398  13.221   5.007  10.727  0.2280  0.1951 -0.0478
  213loPI   C1A 3399  13.454   5.342  10.464 -0.1754 -0.1549  0.1059
  213loPI   C2A 3400  13.439   5.409  10.072 -0.0388  0.0196 -0.1900
  213loPI   C3A 3401  13.418   5.462   9.637 -0.0421  0.2190 -0.1767
  213loPI   C4A 3402  13.348   5.372   9.233 -0.0557 -0.0377  0.3185
  213loPI   C5A 3403  13.370   5.238   8.800  0.0298  0.0620  0.0298
  213loPI   C6A 3404  13.429   5.048   8.373 -0.0364 -0.2081  0.1944
  213loPI   C1B 3405  13.375   4.881  10.329 -0.3474 -0.2287  0.1881
  213loPI   C2B 3406  13.293   4.900   9.953  0.0757 -0.1663 -0.1722
  213loPI   C3B 3407  13.387   4.982   9.620 -0.0805  0.0298 -0.0044
  213loPI   C4B 3408  13.292   4.832   9.217  0.0712 -0.3135  0.0103
  214loPI    C1 3409   2.976   5.772  11.200  0.0929 -0.0560  0.0163
  214loPI    C2 3410   2.900   5.803  11.591 -0.0387 -0.0710 -0.0077
  214loPI    C3 3411   2.665   5.990  11.326  0.0275 -0.0919 -0.0816
  214loPI   PO4 3412   3.237   5.754  11.226  0.0908  0.0044 -0.2344
  214loPI   GL1 3413   3.520   5.886  10.871  0.1017  0.0534  0.1277
  214loPI   GL2 3414   3.149   5.836  10.730  0.0274 -0.3027 -0.3427
  214loPI   C1A 3415   3.564   6.018  10.343 -0.0318  0.1263 -0.1570
  214loPI   C2A 3416   3.659   6.088   9.897  0.3278  0.3776 -0.1208
  214loPI   C3A 3417   3.588   6.085   9.471  0.0499 -0.0902 -0.0133
  214loPI   C4A 3418   3.611   6.128   8.972 -0.0759 -0.2459 -0.2128
  214loPI   C5A 3419   3.431   6.033   8.553  0.2264  0.1395  0.0844
  214loPI   C6A 3420   3.446   6.314   8.210  0.1475 -0.2087 -0.0011
  214loPI   C1B 3421   3.094   5.907  10.331  0.0018  0.2673 -0.2097
  214loPI   C2B 3422   3.153   5.879   9.892  0.1567  0.0258 -0.2127
  214loPI   C3B 3423   3.120   5.902   9.438 -0.3035  0.0935  0.0910
  214loPI   C4B 3424   3.186   5.915   8.978 -0.1605 -0.0126  0.3596
  215loPI    C1 3425   0.115   5.570  11.357 -0.1095  0.0278  0.0980
  215loPI    C2 3426   0.428   5.481  11.588 -0.1647 -0.1801  0.0941
  215loPI    C3 3427   0.089   5.611  11.754 -0.1276 -0.1044  0.1108
  215loPI   PO4 3428   0.240   5.681  11.126  0.2258 -0.1156  0.3561
  215loPI   GL1 3429   0.138   5.853  10.771 -0.0269  0.3094  0.1384
  215loPI   GL2 3430   0.417   5.911  10.686  0.0762  0.0782 -0.2273
  215loPI   C1A 3431   0.013   5.802  10.337 -0.4791  0.1876  0.0200
  215loPI   C2A 3432  -0.024   5.686   9.931  0.0170  0.1754 -0.3591
  215loPI   C3A 3433  -0.064   5.765   9.509  0.1156 -0.0909 -0.1426
  215loPI   C4A 3434  -0.046   5.781   9.013 -0.0790  0.1674  0.1066
  215loPI   C5A 3435  -0.289   5.666   8.762 -0.0655  0.0490 -0.0990
  215loPI   C6A 3436  -0.569   5.443   8.640 -0.0954  0.0210 -0.0012
  215loPI   C1B 3437   0.469   5.882  10.163 -0.0995  0.1419 -0.1333
  215loPI   C2B 3438   0.367   5.875   9.742  0.3477  0.0439 -0.1892
  215loPI   C3B 3439   0.386   5.924   9.301 -0.0376 -0.0024 -0.0143
  215loPI   C4B 3440   0.526   5.875   8.872  0.1700  0.1458  0.2190
  216loPI    C1 3441  14.164  13.400  11.778 -0.0397  0.1392 -0.0356
  216loPI    C2 3442  14.374  13.178  12.037 -0.1677 -0.1697 -0.1922
  216loPI    C3 3443  14.195  13.514  12.161  0.0641 -0.1279  0.0376
  216loPI   PO4 3444  14.043  13.253  11.529  0.0303 -0.0932  0.1340
  216loPI   GL1 3445  13.924  13.085  11.255  0.0256 -0.1358 -0.4199
  216loPI   GL2 3446  13.883  13.416  11.094  0.2267 -0.0274 -0.0522
  216loPI   C1A 3447  13.814  12.889  10.886 -0.0134  0.1359  0.1886
  216loPI   C2A 3448  13.869  12.934  10.500 -0.1296  0.0122  0.1963
  216loPI   C3A 3449  13.867  12.886   9.994 -0.0216  0.2798 -0.0506
  216loPI   C4A 3450  13.839  13.003   9.518 -0.1347  0.1160 -0.1693
  216loPI   C5A 3451  13.912  13.047   9.099 -0.1365  0.2286 -0.2537
  216loPI   C6A 3452  13.809  13.059   8.669  0.0756  0.0282  0.1315
  216loPI   C1B 3453  13.998  13.425  10.639 -0.0827  0.0440  0.6782
  216loPI   C2B 3454  13.977  13.365  10.177  0.0655 -0.1853 -0.0730
  216loPI   C3B 3455  14.009  13.478   9.810  0.0715  0.0728  0.0549
  216loPI   C4B 3456  13.917  13.527   9.368 -0.0057  0.0098 -0.0990
  217loPI    C1 3457  10.645  12.450  11.313 -0.1332 -0.2520 -0.0601
  217loPI    C2 3458  10.420  12.268  11.589 -0.0939  0.0124  0.1491
  217loPI    C3 3459  10.684  12.548  11.699 -0.1013  0.1443 -0.1600
  217loPI   PO4 3460  10.514  12.361  11.116  0.2912  0.1849 -0.0023
  217loPI   GL1 3461  10.296  12.455  10.807 -0.0639  0.1588 -0.0634
  217loPI   GL2 3462  10.538  12.351  10.604  0.1359 -0.0316  0.0133
  217loPI   C1A 3463  10.170  12.711  10.574  0.0003 -0.1727  0.0085
  217loPI   C2A 3464  10.192  12.651  10.120 -0.2192 -0.1138  0.0408
  217loPI   C3A 3465  10.206  12.704   9.665  0.3305 -0.1343  0.0153
  217loPI   C4A 3466  10.158  12.754   9.222  0.1997 -0.1350  0.0620
  217loPI   C5A 3467  10.145  12.718   8.751 -0.2114  0.0682  0.0060
  217loPI   C6A 3468   9.957  12.732   8.412 -0.0360  0.3399 -0.2142
  217loPI   C1B 3469  10.653  12.406  10.250 -0.2258  0.1349  0.2434
  217loPI   C2B 3470  10.606  12.410   9.764 -0.1683  0.4278 -0.1176
  217loPI   C3B 3471  10.586  12.424   9.398  0.2544 -0.0942 -0.2784
  217loPI   C4B 3472  10.748  12.296   8.944 -0.0771  0.1521 -0.1111
  218loPI    C1 3473   8.093  14.213  11.597 -0.0621  0.0366  0.1469
  218loPI    C2 3474   7.849  14.303  11.901  0.0328  0.0054  0.2329
  218loPI    C3 3475   8.240  14.384  11.927 -0.0126  0.3259 -0.0221
  218loPI   PO4 3476   7.811  14.171  11.341 -0.3168  0.0282  0.1559
  218loPI   GL1 3477   7.836  14.033  10.893 -0.3283 -0.2376 -0.1319
  218loPI   GL2 3478   8.162  13.966  10.651  0.1699 -0.1469 -0.2215
  218loPI   C1A 3479   7.864  14.323  10.526  0.1427 -0.0118 -0.1884
  218loPI   C2A 3480   7.815  14.368  10.095  0.0943  0.0824 -0.2578
  218loPI   C3A 3481   7.765  14.353   9.726 -0.0950  0.0624  0.0063
  218loPI   C4A 3482   7.748  14.325   9.307  0.1694  0.1257  0.0212
  218loPI   C5A 3483   7.724  14.543   8.871 -0.0030  0.0974 -0.2489
  218loPI   C6A 3484   7.484  14.779   8.553 -0.0153  0.0924 -0.0892
  218loPI   C1B 3485   8.212  13.908  10.185 -0.0168 -0.1618 -0.3078
  218loPI   C2B 3486   8.162  14.000   9.857  0.0462  0.1391 -0.0998
  218loPI   C3B 3487   8.174  14.065   9.370  0.1854  0.0346 -0.1795
  218loPI   C4B 3488   8.245  14.083   9.014 -0.0697 -0.1056 -0.1732
  219loPI    C1 3489   2.340   7.642  11.625  0.0322 -0.1944  0.0335
  219loPI    C2 3490   2.054   7.398  11.761  0.0519 -0.1684  0.1229
  219loPI    C3 3491   2.194   7.690  11.995 -0.1394  0.0796 -0.0663
  219loPI   PO4 3492   2.266   7.740  11.428  0.1272  0.0766  0.2387
  219loPI   GL1 3493   2.413   7.641  11.089 -0.3926  0.0854  0.0161
  219loPI   GL2 3494   2.164   7.856  10.815 -0.1973  0.0420  0.0648
  219loPI   C1A 3495   2.581   7.615  10.707 -0.2368  0.1569 -0.1753
  219loPI   C2A 3496   2.597   7.543  10.306 -0.1067  0.1220  0.1485
  219loPI   C3A 3497   2.660   7.621   9.866 -0.3148 -0.2824 -0.2425
  219loPI   C4A 3498   2.646   7.692   9.441 -0.2425 -0.1002  0.0821
  219loPI   C5A 3499   2.640   7.639   9.055 -0.0329 -0.2457  0.3182
  219loPI   C6A 3500   2.680   8.007   8.783 -0.0927 -0.0153 -0.2351
  219loPI   C1B 3501   2.224   7.869  10.396  0.0584  0.1251 -0.1210
  219loPI   C2B 3502   2.214   7.921   9.958  0.0800  0.0977  0.0323
  219loPI   C3B 3503   2.281   7.991   9.471  0.0484 -0.2293 -0.0947
  219loPI   C4B 3504   2.258   7.972   9.057 -0.0635 -0.0555 -0.0049
  220loPI    C1 3505   3.227   7.918  11.405 -0.0732  0.1161  0.2544
  220loPI    C2 3506   3.448   7.879  11.736  0.2521 -0.2507  0.0022
  220loPI    C3 3507   3.317   7.554  11.543 -0.1935 -0.0386 -0.0652
  220loPI   PO4 3508   3.370   8.020  11.208 -0.1150  0.4166  0.0525
  220loPI   GL1 3509   3.540   7.977  10.829  0.2156 -0.1919  0.0837
  220loPI   GL2 3510   3.705   8.194  10.783  0.1623  0.0666 -0.2083
  220loPI   C1A 3511   3.601   7.758  10.424  0.0324  0.2068 -0.0309
  220loPI   C2A 3512   3.650   7.867  10.036  0.0539  0.2776  0.0749
  220loPI   C3A 3513   3.563   7.918   9.613 -0.1498 -0.1272  0.0311
  220loPI   C4A 3514   3.576   7.931   9.181 -0.0966 -0.3521  0.0911
  220loPI   C5A 3515   3.609   7.860   8.837  0.0119 -0.0857  0.0640
  220loPI   C6A 3516   3.602   7.885   8.358 -0.0917 -0.0208 -0.2182
  220loPI   C1B 3517   3.680   8.296  10.347 -0.1736  0.0136  0.3402
  220loPI   C2B 3518   3.666   8.405   9.937 -0.1281 -0.3228 -0.0202
  220loPI   C3B 3519   3.712   8.462   9.513  0.0679  0.0225 -0.0078
  220loPI   C4B 3520   3.749   8.392   9.063 -0.1894 -0.0877  0.0890
  221loPI    C1 3521  11.045   6.049  11.008  0.0111  0.1093  0.1021
  221loPI    C2 3522  11.038   6.036  11.408 -0.1368  0.2479  0.1053
  221loPI    C3 3523  10.972   6.381  11.218  0.0601  0.2089 -0.0375
  221loPI   PO4 3524  10.873   5.817  10.871  0.2728 -0.0339 -0.0860
  221loPI   GL1 3525  10.747   5.643  10.497 -0.0318 -0.0851 -0.2082
  221loPI   GL2 3526  10.540   5.683  10.282  0.0719  0.1710  0.1165
  221loPI   C1A 3527  10.961   5.713  10.087 -0.1004  0.1263 -0.2977
  221loPI   C2A 3528  11.085   5.481   9.796 -0.0497 -0.2648 -0.0142
  221loPI   C3A 3529  11.394   5.205   9.545 -0.0639  0.0203 -0.1362
  221loPI   C4A 3530  11.564   5.330   9.260  0.1395 -0.1474  0.0892
  221loPI   C5A 3531  11.645   5.793   9.175 -0.1320  0.0715 -0.1537
  221loPI   C6A 3532  11.413   6.242   9.120  0.1002  0.2136 -0.0088
  221loPI   C1B 3533  10.583   6.051  10.032  0.1619  0.2172 -0.2631
  221loPI   C2B 3534  10.833   6.161   9.701  0.0435 -0.1451  0.0908
  221loPI   C3B 3535  10.668   6.275   9.342  0.0668 -0.0331  0.0249
  221loPI   C4B 3536  10.929   6.315   9.117 -0.0296 -0.1291 -0.2451
  222loPI    C1 3537  13.909  17.515  11.914  0.0546 -0.3152  0.0444
  222loPI    C2 3538  13.906  17.796  12.198  0.4077 -0.0591 -0.1982
  222loPI    C3 3539  13.726  17.445  12.264 -0.1499  0.2610  0.0631
  222loPI   PO4 3540  13.862  17.590  11.709 -0.1160  0.3906 -0.3686
  222loPI   GL1 3541  13.748  17.466  11.303  0.1657  0.0191  0.2371
  222loPI   GL2 3542  13.955  17.540  11.013 -0.1161 -0.0415  0.0688
  222loPI   C1A 3543  13.437  17.479  10.985 -0.0570  0.0806  0.2068
  222loPI   C2A 3544  13.471  17.502  10.547 -0.1507  0.0350 -0.0307
  222loPI   C3A 3545  13.478  17.561  10.060  0.0336 -0.2986 -0.2010
  222loPI   C4A 3546  13.469  17.592   9.592  0.0138  0.2341 -0.0928
  222loPI   C5A 3547  13.521  17.669   9.108  0.0389  0.0339 -0.0375
  222loPI   C6A 3548  13.503  17.812   8.662  0.2049  0.2601  0.2424
  222loPI   C1B 3549  13.969  17.639  10.594  0.0421  0.2463 -0.0946
  222loPI   C2B 3550  13.979  17.686  10.066 -0.1411 -0.1132  0.1568
  222loPI   C3B 3551  14.015  17.749   9.593  0.0650  0.1593 -0.1682
  222loPI   C4B 3552  14.069  17.793   9.173 -0.3555 -0.1410 -0.0305
  223loPI    C1 3553  13.162  13.369  11.828  0.0912 -0.1145  0.1496
  223loPI    C2 3554  13.028  13.385  12.204 -0.0884  0.1175  0.0783
  223loPI    C3 3555  13.233  13.693  12.051  0.2291 -0.0918  0.0738
  223loPI   PO4 3556  13.033  13.303  11.651  0.0921  0.5861 -0.3641
  223loPI   GL1 3557  13.086  13.250  11.285 -0.1484  0.1016  0.0213
  223loPI   GL2 3558  13.432  13.157  11.172  0.0678  0.0779 -0.2360
  223loPI   C1A 3559  12.961  13.146  10.864 -0.0168 -0.3689 -0.0060
  223loPI   C2A 3560  13.047  13.109  10.425  0.2438 -0.2344 -0.0614
  223loPI   C3A 3561  12.973  13.217   9.941 -0.1832  0.0779 -0.1111
  223loPI   C4A 3562  12.990  13.197   9.512  0.0292  0.3576 -0.1124
  223loPI   C5A 3563  12.963  13.310   9.117  0.4049 -0.0218 -0.2314
  223loPI   C6A 3564  12.797  13.636   8.770  0.0755 -0.1107 -0.1186
  223loPI   C1B 3565  13.485  13.224  10.769  0.0987 -0.2692  0.0418
  223loPI   C2B 3566  13.486  13.331  10.345 -0.3038 -0.0710  0.0171
  223loPI   C3B 3567  13.514  13.264   9.901  0.1324 -0.1234  0.1186
  223loPI   C4B 3568  13.452  13.364   9.518 -0.1571 -0.2067  0.2268
  224loPI    C1 3569  14.754   9.030  11.831  0.0180 -0.0302  0.0545
  224loPI    C2 3570  14.790   9.246  12.165  0.0146  0.2096 -0.0977
  224loPI    C3 3571  15.057   8.959  12.083  0.0267  0.1627  0.0994
  224loPI   PO4 3572  14.724   9.205  11.639  0.0303 -0.0653 -0.0470
  224loPI   GL1 3573  14.680   9.233  11.146 -0.3128 -0.2329 -0.2066
  224loPI   GL2 3574  14.408   9.241  10.898  0.0096 -0.2127 -0.0035
  224loPI   C1A 3575  14.853   8.945  10.887  0.0279  0.1612 -0.0411
  224loPI   C2A 3576  14.835   8.950  10.461  0.0020  0.0411 -0.0274
  224loPI   C3A 3577  14.809   9.116   9.994 -0.0642 -0.1501  0.2175
  224loPI   C4A 3578  14.846   9.095   9.586 -0.4357  0.0240  0.1538
  224loPI   C5A 3579  14.711   9.128   9.207 -0.1653 -0.0561 -0.3954
  224loPI   C6A 3580  14.401   9.321   8.920 -0.2461  0.1491 -0.2736
  224loPI   C1B 3581  14.444   9.258  10.549  0.0858  0.1541 -0.0497
  224loPI   C2B 3582  14.441   9.435  10.150 -0.1139  0.1838 -0.1490
  224loPI   C3B 3583  14.474   9.398   9.742  0.0047 -0.0728  0.1825
  224loPI   C4B 3584  14.397   9.583   9.378 -0.1437  0.2391 -0.0477
  225loPI    C1 3585  13.090   4.205  11.563  0.1454  0.1342  0.0033
  225loPI    C2 3586  13.130   4.113  11.950  0.1060  0.0721 -0.0072
  225loPI    C3 3587  13.198   4.487  11.825 -0.1232  0.1509  0.0991
  225loPI   PO4 3588  13.259   4.088  11.383  0.1777  0.1865 -0.3006
  225loPI   GL1 3589  13.335   4.160  10.992  0.0917  0.2250  0.1156
  225loPI   GL2 3590  13.569   4.066  10.829 -0.1602  0.1265 -0.0557
  225loPI   C1A 3591  13.251   4.342  10.569 -0.0103 -0.2034 -0.0051
  225loPI   C2A 3592  13.181   4.450  10.160  0.0703  0.1943  0.0880
  225loPI   C3A 3593  13.188   4.467   9.732  0.2758 -0.1202 -0.0372
  225loPI   C4A 3594  13.281   4.350   9.320 -0.2710 -0.1644 -0.0712
  225loPI   C5A 3595  13.268   4.434   8.945  0.3548  0.0497 -0.1112
  225loPI   C6A 3596  13.201   4.797   8.725 -0.1302  0.1343  0.3699
  225loPI   C1B 3597  13.537   4.004  10.399  0.2342 -0.2251 -0.1083
  225loPI   C2B 3598  13.694   4.056   9.893 -0.0250  0.1962  0.0502
  225loPI   C3B 3599  13.638   4.042   9.477  0.0780  0.1413 -0.2538
  225loPI   C4B 3600  13.618   4.016   9.076 -0.3075  0.1593 -0.0025
  226loPI    C1 3601  17.282   4.518  11.387 -0.0987 -0.1667  0.0355
  226loPI    C2 3602  17.610   4.530  11.615 -0.0528 -0.0496 -0.0363
  226loPI    C3 3603  17.303   4.774  11.693 -0.0270  0.0087 -0.1136
  226loPI   PO4 3604  17.423   4.618  11.142 -0.3331 -0.3268 -0.0960
  226loPI   GL1 3605  17.400   4.814  10.820 -0.4658 -0.1812  0.0462
  226loPI   GL2 3606  17.039   5.019  10.664 -0.1452 -0.0041  0.0404
  226loPI   C1A 3607  17.388   4.751  10.418  0.0168  0.1240  0.1924
  226loPI   C2A 3608  17.392   4.763  10.002  0.1264  0.0138  0.1758
  226loPI   C3A 3609  17.479   4.751   9.550  0.0496 -0.3515  0.2615
  226loPI   C4A 3610  17.411   4.759   9.050 -0.2390  0.0296  0.0347
  226loPI   C5A 3611  17.563   4.808   8.698 -0.1182 -0.0111 -0.1659
  226loPI   C6A 3612  17.678   4.582   8.330  0.0073  0.1466  0.0531
  226loPI   C1B 3613  17.070   5.101  10.232  0.1094  0.1024 -0.0623
  226loPI   C2B 3614  17.009   5.049   9.799 -0.2630 -0.2968  0.1005
  226loPI   C3B 3615  17.143   5.052   9.401  0.1506 -0.1593  0.0966
  226loPI   C4B 3616  17.025   5.150   9.027  0.2008  0.0842  0.1097
  227loPI    C1 3617   4.788   2.244  11.380  0.3247  0.0093 -0.0106
  227loPI    C2 3618   4.704   1.914  11.589 -0.0579  0.0867 -0.0336
  227loPI    C3 3619   5.045   2.113  11.656 -0.0158 -0.0814  0.2703
  227loPI   PO4 3620   4.724   2.211  11.116  0.1251  0.4829  0.1237
  227loPI   GL1 3621   4.620   1.891  10.943 -0.2895  0.0521  0.1437
  227loPI   GL2 3622   4.881   1.779  10.926  0.1601  0.2090  0.5296
  227loPI   C1A 3623   4.588   2.020  10.478  0.1100  0.0025  0.1480
  227loPI   C2A 3624   4.551   2.080  10.047  0.4761 -0.1126 -0.0768
  227loPI   C3A 3625   4.584   2.153   9.558  0.0744 -0.0475 -0.0345
  227loPI   C4A 3626   4.448   2.187   9.052  0.1487  0.1007 -0.1735
  227loPI   C5A 3627   4.441   2.260   8.645 -0.0807  0.0413  0.0277
  227loPI   C6A 3628   4.358   2.173   8.243 -0.0294  0.2785  0.2755
  227loPI   C1B 3629   4.987   1.710  10.519 -0.1208  0.3730 -0.2164
  227loPI   C2B 3630   4.905   1.740  10.041 -0.0379  0.2549  0.1026
  227loPI   C3B 3631   4.906   1.712   9.556  0.2539  0.2943  0.0492
  227loPI   C4B 3632   4.830   1.861   9.193  0.1432  0.1325 -0.0886
  228loPI    C1 3633   8.414   7.023  11.713  0.0833 -0.0132 -0.0553
  228loPI    C2 3634   8.721   6.942  11.956  0.0822 -0.0304 -0.0595
  228loPI    C3 3635   8.368   7.050  12.109  0.0763 -0.0592 -0.0529
  228loPI   PO4 3636   8.621   6.954  11.435  0.0447 -0.2561  0.0587
  228loPI   GL1 3637   8.506   7.046  11.028  0.0313  0.1729 -0.0187
  228loPI   GL2 3638   8.575   7.344  10.814 -0.0264 -0.0445 -0.0588
  228loPI   C1A 3639   8.429   6.936  10.639  0.0664  0.0463 -0.2999
  228loPI   C2A 3640   8.318   6.967  10.175  0.1479  0.0437 -0.0563
  228loPI   C3A 3641   8.401   7.037   9.695  0.0164 -0.2717 -0.2008
  228loPI   C4A 3642   8.334   7.088   9.335 -0.1227 -0.2601 -0.0709
  228loPI   C5A 3643   8.460   7.069   8.952 -0.0859 -0.2422 -0.0027
  228loPI   C6A 3644   8.745   7.240   8.603  0.0361  0.0369 -0.0091
  228loPI   C1B 3645   8.515   7.388  10.347 -0.0962 -0.1346 -0.3809
  228loPI   C2B 3646   8.516   7.524  10.024 -0.0981 -0.1877  0.1535
  228loPI   C3B 3647   8.484   7.534   9.508 -0.1863 -0.1302 -0.0363
  228loPI   C4B 3648   8.545   7.571   9.040 -0.3589 -0.2696  0.0121
  229loPI    C1 3649   0.126  14.285  11.705 -0.1394 -0.0373 -0.0548
  229loPI    C2 3650   0.019  14.050  12.011  0.0661  0.0083  0.0546
  229loPI    C3 3651   0.140  14.425  12.080  0.0059  0.0560 -0.0943
  229loPI   PO4 3652   0.004  14.186  11.484 -0.0279  0.0774  0.1817
  229loPI   GL1 3653   0.186  14.017  11.024  0.1382  0.0054  0.1454
  229loPI   GL2 3654   0.127  13.701  11.055  0.2481 -0.1264  0.1675
  229loPI   C1A 3655   0.048  14.207  10.649 -0.1577 -0.3046  0.0225
  229loPI   C2A 3656   0.072  14.256  10.257 -0.0361  0.0135  0.1371
  229loPI   C3A 3657   0.018  14.209   9.945 -0.0891 -0.2047  0.0638
  229loPI   C4A 3658   0.066  14.207   9.527 -0.3247 -0.0532 -0.4026
  229loPI   C5A 3659  -0.047  14.193   9.147 -0.2038  0.0972 -0.1977
  229loPI   C6A 3660   0.097  14.317   8.772 -0.1050  0.0076  0.0187
  229loPI   C1B 3661  -0.024  13.745  10.631 -0.1507  0.3034  0.0391
  229loPI   C2B 3662  -0.087  13.767  10.183 -0.2491  0.0228 -0.0976
  229loPI   C3B 3663  -0.037  13.697   9.830 -0.0149  0.1621 -0.0490
  229loPI   C4B 3664  -0.059  13.715   9.366  0.2754  0.0331  0.1500
  230loPI    C1 3665   4.379   2.428  11.639  0.0130  0.3875 -0.1331
  230loPI    C2 3666   4.330   2.771  11.838 -0.1178  0.3231 -0.0534
  230loPI    C3 3667   4.121   2.447  11.944  0.1568  0.1621  0.0057
  230loPI   PO4 3668   4.365   2.500  11.362  0.1044  0.1405  0.0143
  230loPI   GL1 3669   4.389   2.562  10.943 -0.0925  0.2045  0.2614
  230loPI   GL2 3670   4.244   2.250  10.798 -0.1230  0.1740  0.2008
  230loPI   C1A 3671   4.557   2.526  10.546 -0.0396 -0.0334  0.2245
  230loPI   C2A 3672   4.684   2.611  10.095 -0.0791 -0.1023  0.4007
  230loPI   C3A 3673   4.679   2.616   9.652 -0.2098 -0.1591  0.3552
  230loPI   C4A 3674   4.663   2.668   9.234  0.0946  0.0677 -0.1839
  230loPI   C5A 3675   4.716   2.688   8.717  0.2034 -0.0386 -0.2225
  230loPI   C6A 3676   4.874   3.044   8.522  0.0040  0.1817  0.0644
  230loPI   C1B 3677   4.178   2.318  10.348 -0.0594  0.0713  0.0398
  230loPI   C2B 3678   4.234   2.481   9.900  0.2562  0.1543  0.0006
  230loPI   C3B 3679   4.170   2.588   9.473  0.1146 -0.1511  0.0211
  230loPI   C4B 3680   4.142   2.580   8.992 -0.0270  0.0646  0.2385
  231loPI    C1 3681   2.523   1.872  11.550 -0.0743 -0.2040  0.0159
  231loPI    C2 3682   2.346   1.602  11.786 -0.2196 -0.0562  0.0781
  231loPI    C3 3683   2.381   1.982  11.907  0.1806 -0.0912  0.0847
  231loPI   PO4 3684   2.452   1.923  11.268  0.0144  0.0371 -0.0486
  231loPI   GL1 3685   2.607   2.171  10.988 -0.2009  0.0886 -0.0123
  231loPI   GL2 3686   2.488   2.471  10.837 -0.1225 -0.0433 -0.0956
  231loPI   C1A 3687   2.603   2.010  10.599 -0.1461  0.0835 -0.3725
  231loPI   C2A 3688   2.599   1.941  10.203 -0.1032 -0.1835  0.0524
  231loPI   C3A 3689   2.665   2.008   9.762  0.0824  0.2040  0.2845
  231loPI   C4A 3690   2.609   2.121   9.357 -0.4240  0.1723  0.1114
  231loPI   C5A 3691   2.696   2.171   8.852  0.1745  0.0346  0.0196
  231loPI   C6A 3692   2.325   2.128   8.487 -0.1091 -0.1097 -0.0354
  231loPI   C1B 3693   2.261   2.328  10.416 -0.0364  0.2247 -0.1142
  231loPI   C2B 3694   2.266   2.270   9.965 -0.0194 -0.1384 -0.1053
  231loPI   C3B 3695   2.239   2.445   9.521  0.0323  0.0219  0.2190
  231loPI   C4B 3696   2.261   2.441   9.093  0.1004  0.1874  0.1334
  232loPI    C1 3697  13.516  12.592  11.916  0.1950 -0.2371  0.0761
  232loPI    C2 3698  13.694  12.563  12.273  0.0505  0.0597  0.1759
  232loPI    C3 3699  13.343  12.382  12.210  0.0824 -0.0036  0.1796
  232loPI   PO4 3700  13.622  12.560  11.752  0.1223 -0.0915 -0.0191
  232loPI   GL1 3701  13.582  12.660  11.364 -0.0127 -0.0303  0.2800
  232loPI   GL2 3702  13.495  12.405  11.200  0.1909  0.0098 -0.2005
  232loPI   C1A 3703  13.336  12.784  10.895 -0.0834  0.1469 -0.0998
  232loPI   C2A 3704  13.382  12.743  10.579 -0.4747 -0.0728 -0.4478
  232loPI   C3A 3705  13.335  12.823  10.178  0.1069 -0.1955 -0.1376
  232loPI   C4A 3706  13.332  12.862   9.700 -0.0624 -0.4023  0.0536
  232loPI   C5A 3707  13.418  12.944   9.264  0.1044  0.2206  0.5192
  232loPI   C6A 3708  13.543  13.362   9.003  0.2209 -0.1223  0.0453
  232loPI   C1B 3709  13.696  12.369  10.808 -0.0523  0.3409 -0.0497
  232loPI   C2B 3710  13.726  12.317  10.415 -0.1735 -0.1109 -0.1991
  232loPI   C3B 3711  13.705  12.428  10.026 -0.0973 -0.3001 -0.0989
  232loPI   C4B 3712  13.770  12.511   9.589 -0.2111  0.1171  0.2389
  233loPI    C1 3713  14.832  12.611  11.619 -0.0691 -0.1331  0.0713
  233loPI    C2 3714  14.905  12.764  11.982  0.0268 -0.2084  0.0841
  233loPI    C3 3715  14.529  12.686  11.869 -0.0314  0.1142  0.0457
  233loPI   PO4 3716  15.104  12.708  11.490  0.1059 -0.0377  0.3072
  233loPI   GL1 3717  15.164  12.779  10.991 -0.0004  0.1501 -0.0434
  233loPI   GL2 3718  15.190  12.402  10.773 -0.0460  0.0641  0.2432
  233loPI   C1A 3719  15.190  12.940  10.498 -0.0767  0.1149  0.1267
  233loPI   C2A 3720  15.216  12.955  10.036  0.0702  0.2983  0.1095
  233loPI   C3A 3721  15.233  12.936   9.672  0.0321 -0.0532 -0.0760
  233loPI   C4A 3722  15.226  13.041   9.233 -0.1107 -0.0938 -0.0100
  233loPI   C5A 3723  15.092  13.013   8.753 -0.2032  0.0677 -0.1751
  233loPI   C6A 3724  14.845  13.227   8.450  0.0355  0.1222 -0.2699
  233loPI   C1B 3725  15.116  12.439  10.327  0.0790 -0.0444 -0.0262
  233loPI   C2B 3726  15.106  12.446   9.895 -0.0842  0.0438  0.2640
  233loPI   C3B 3727  15.174  12.422   9.403 -0.1996 -0.0011  0.1492
  233loPI   C4B 3728  15.021  12.455   8.938  0.0475  0.0130 -0.1007
  234loPI    C1 3729   9.124   3.468  11.345 -0.0427  0.0602 -0.1475
  234loPI    C2 3730   8.777   3.654  11.416 -0.0779 -0.0694  0.0285
  234loPI    C3 3731   9.005   3.534  11.721  0.1871  0.1317 -0.0860
  234loPI   PO4 3732   9.002   3.355  11.084 -0.0538  0.1073 -0.2510
  234loPI   GL1 3733   8.992   3.272  10.735 -0.0514  0.1098  0.2421
  234loPI   GL2 3734   9.284   3.202  10.590 -0.1455 -0.0532 -0.1539
  234loPI   C1A 3735   8.830   3.439  10.381  0.4351 -0.0304  0.2654
  234loPI   C2A 3736   8.865   3.442   9.954  0.0343 -0.2052  0.0383
  234loPI   C3A 3737   8.935   3.413   9.551 -0.1310 -0.0048 -0.0028
  234loPI   C4A 3738   8.972   3.619   9.204 -0.0266  0.3157  0.1254
  234loPI   C5A 3739   8.964   3.724   8.799  0.0552  0.0158  0.1810
  234loPI   C6A 3740   8.911   3.488   8.424  0.0811 -0.1406 -0.0340
  234loPI   C1B 3741   9.328   3.140  10.168 -0.0705  0.0930 -0.0271
  234loPI   C2B 3742   9.307   3.034   9.703  0.1266 -0.0676 -0.2046
  234loPI   C3B 3743   9.296   3.133   9.309 -0.0780 -0.1633  0.1038
  234loPI   C4B 3744   9.236   3.142   8.794 -0.2040 -0.1286 -0.2201
  235loPI    C1 3745   9.175  11.709  11.334 -0.0605 -0.0856 -0.1423
  235loPI    C2 3746   9.431  11.509  11.568  0.0180  0.0561 -0.1059
  235loPI    C3 3747   9.044  11.529  11.666 -0.0048 -0.1429 -0.1511
  235loPI   PO4 3748   9.251  11.652  11.093  0.1955 -0.0604 -0.1731
  235loPI   GL1 3749   9.175  11.422  10.639  0.1424 -0.1514  0.0600
  235loPI   GL2 3750   9.123  11.231  10.770  0.0398  0.1406 -0.0120
  235loPI   C1A 3751   8.977  11.372  10.292  0.2320  0.2953 -0.3861
  235loPI   C2A 3752   8.979  11.475   9.842  0.1957 -0.1693 -0.1101
  235loPI   C3A 3753   8.906  11.459   9.519  0.0561 -0.0665 -0.2490
  235loPI   C4A 3754   8.853  11.478   9.155  0.1472 -0.0452  0.1773
  235loPI   C5A 3755   8.991  11.247   8.740 -0.0868  0.1217  0.2238
  235loPI   C6A 3756   9.410  11.119   8.612 -0.2078 -0.1838  0.1947
  235loPI   C1B 3757   9.335  11.030  10.405 -0.1965  0.4582  0.1174
  235loPI   C2B 3758   9.304  11.089   9.943  0.2042 -0.1758  0.0199
  235loPI   C3B 3759   9.334  11.202   9.517 -0.2281  0.0382  0.0524
  235loPI   C4B 3760   9.337  11.125   9.130  0.0700  0.1398  0.1470
  236loPI    C1 3761  12.529   1.011  11.643 -0.0107  0.0332 -0.0158
  236loPI    C2 3762  12.444   1.226  11.970  0.0338 -0.1486  0.1168
  236loPI    C3 3763  12.825   1.154  11.871  0.0246  0.0532 -0.0740
  236loPI   PO4 3764  12.443   1.012  11.447 -0.0374 -0.2107  0.3235
  236loPI   GL1 3765  12.443   0.778  11.079 -0.2191  0.0094  0.0010
  236loPI   GL2 3766  12.759   0.649  10.893 -0.0797  0.1849  0.2640
  236loPI   C1A 3767  12.313   0.788  10.632  0.0982  0.3744  0.1371
  236loPI   C2A 3768  12.411   0.791  10.218  0.1391  0.2548 -0.0342
  236loPI   C3A 3769  12.429   0.856   9.837  0.2856  0.0327 -0.2659
  236loPI   C4A 3770  12.422   0.923   9.512  0.0679 -0.0348  0.2062
  236loPI   C5A 3771  12.334   0.960   9.087  0.1639 -0.2856 -0.0213
  236loPI   C6A 3772  12.196   0.627   8.754  0.0536  0.0468  0.0489
  236loPI   C1B 3773  12.733   0.438  10.472 -0.0222 -0.0213  0.0227
  236loPI   C2B 3774  12.792   0.479  10.106 -0.2488 -0.0538  0.0710
  236loPI   C3B 3775  12.777   0.502   9.725 -0.1112 -0.1288  0.1274
  236loPI   C4B 3776  12.706   0.542   9.308 -0.0864 -0.3117 -0.1103
  237loPI    C1 3777  11.048   8.164  11.600 -0.0452  0.1915  0.2199
  237loPI    C2 3778  10.942   8.502  11.785  0.0058  0.2411  0.1587
  237loPI    C3 3779  11.322   8.378  11.797 -0.0428  0.1037  0.3124
  237loPI   PO4 3780  10.949   8.184  11.339 -0.1747  0.2369 -0.1853
  237loPI   GL1 3781  11.002   8.452  11.032 -0.2130  0.1943 -0.0279
  237loPI   GL2 3782  10.815   8.698  10.766 -0.0760 -0.0373 -0.1682
  237loPI   C1A 3783  10.990   8.223  10.656  0.1768  0.1140  0.2098
  237loPI   C2A 3784  11.021   8.287  10.175  0.0771 -0.1222 -0.0767
  237loPI   C3A 3785  11.055   8.355   9.750  0.0520  0.0988 -0.2270
  237loPI   C4A 3786  10.973   8.365   9.321  0.1090  0.0961  0.1425
  237loPI   C5A 3787  11.094   8.349   8.809  0.1090  0.1782 -0.3974
  237loPI   C6A 3788  11.324   8.626   8.612  0.0250  0.1637  0.0653
  237loPI   C1B 3789  10.760   8.691  10.265  0.0243 -0.2866 -0.1156
  237loPI   C2B 3790  10.666   8.663   9.775  0.3068 -0.2423 -0.1549
  237loPI   C3B 3791  10.592   8.667   9.290  0.3152 -0.1870  0.2029
  237loPI   C4B 3792  10.642   8.512   8.908 -0.2035 -0.1379  0.0581
  238loPI    C1 3793   8.948   6.473  11.261  0.1109 -0.1330 -0.0013
  238loPI    C2 3794   8.929   6.569  11.648 -0.0733 -0.0299 -0.0348
  238loPI    C3 3795   9.216   6.324  11.517  0.0824  0.0561  0.1405
  238loPI   PO4 3796   8.971   6.694  11.176  0.2769 -0.0484 -0.1639
  238loPI   GL1 3797   8.842   6.692  10.795 -0.0197 -0.2228  0.1088
  238loPI   GL2 3798   9.153   6.565  10.709 -0.1268  0.0609 -0.1483
  238loPI   C1A 3799   8.763   6.679  10.394 -0.0874  0.0370 -0.1460
  238loPI   C2A 3800   8.738   6.686  10.034 -0.0402 -0.1974  0.3116
  238loPI   C3A 3801   8.796   6.698   9.703  0.2110  0.0768 -0.0336
  238loPI   C4A 3802   8.736   6.715   9.245  0.1241  0.3227 -0.2673
  238loPI   C5A 3803   8.896   6.847   8.828 -0.1420 -0.1952 -0.0193
  238loPI   C6A 3804   9.240   7.021   8.546 -0.0447  0.2745 -0.1739
  238loPI   C1B 3805   9.259   6.725  10.346 -0.0368  0.1820  0.0555
  238loPI   C2B 3806   9.220   6.807   9.900 -0.1637  0.0203  0.0738
  238loPI   C3B 3807   9.249   6.892   9.496 -0.3571  0.0970  0.0696
  238loPI   C4B 3808   9.332   6.950   9.056 -0.2507 -0.0709  0.0589
  239loPI    C1 3809   1.809   1.437  11.558 -0.0103 -0.0449  0.0804
  239loPI    C2 3810   1.505   1.282  11.767  0.1064 -0.1022  0.2097
  239loPI    C3 3811   1.881   1.229  11.893  0.1414  0.4167  0.3430
  239loPI   PO4 3812   1.791   1.338  11.335 -0.0051 -0.2720 -0.0145
  239loPI   GL1 3813   1.802   1.552  11.049 -0.1344  0.4266  0.1061
  239loPI   GL2 3814   2.082   1.799  10.939 -0.0491 -0.2070  0.1444
  239loPI   C1A 3815   1.713   1.564  10.651 -0.0853  0.4463 -0.0045
  239loPI   C2A 3816   1.666   1.608  10.291 -0.0609  0.0306  0.3232
  239loPI   C3A 3817   1.691   1.617   9.861  0.3797 -0.2353 -0.0765
  239loPI   C4A 3818   1.656   1.680   9.419  0.0696 -0.0877 -0.2391
  239loPI   C5A 3819   1.734   1.743   9.008  0.1074  0.0114 -0.0694
  239loPI   C6A 3820   2.133   1.811   8.825 -0.1977 -0.0138 -0.1492
  239loPI   C1B 3821   2.167   1.742  10.479  0.0205 -0.0252 -0.2099
  239loPI   C2B 3822   2.125   1.752  10.104 -0.0310 -0.0221 -0.1168
  239loPI   C3B 3823   2.120   1.796   9.699  0.2122  0.0632  0.3078
  239loPI   C4B 3824   2.194   1.887   9.292  0.0522 -0.1926  0.2165
  240loPI    C1 3825  17.536  10.456  11.792 -0.0463  0.2165  0.2312
  240loPI    C2 3826  17.753  10.189  11.996 -0.1277  0.0872  0.1500
  240loPI    C3 3827  17.862  10.574  11.991 -0.0287  0.0617  0.2952
  240loPI   PO4 3828  17.557  10.313  11.494 -0.0983  0.0437  0.2985
  240loPI   GL1 3829  17.368  10.355  11.013 -0.1881 -0.0061 -0.0188
  240loPI   GL2 3830  17.162  10.102  10.927  0.0499  0.1330  0.0863
  240loPI   C1A 3831  17.618  10.192  10.663 -0.0509  0.0886 -0.1047
  240loPI   C2A 3832  17.713  10.065  10.263  0.0087 -0.1555  0.2420
  240loPI   C3A 3833  17.674  10.055   9.758  0.3673 -0.1212  0.0670
  240loPI   C4A 3834  17.724  10.031   9.346  0.0006  0.0963 -0.0893
  240loPI   C5A 3835  17.688   9.911   8.908  0.0293  0.2562 -0.2701
  240loPI   C6A 3836  17.846  10.057   8.523 -0.0999  0.2060 -0.0834
  240loPI   C1B 3837  17.209   9.959  10.500 -0.2083  0.0271  0.2342
  240loPI   C2B 3838  17.244   9.927  10.029 -0.1631  0.1353 -0.2151
  240loPI   C3B 3839  17.179   9.871   9.680 -0.1616  0.0715 -0.3347
  240loPI   C4B 3840  17.243   9.886   9.198 -0.3782 -0.0637 -0.3481
  241loPI    C1 3841   0.951   3.831  11.371  0.0960 -0.1085 -0.1365
  241loPI    C2 3842   0.713   3.544  11.516 -0.1406  0.0596 -0.1855
  241loPI    C3 3843   0.722   3.903  11.691  0.3545 -0.0528  0.0395
  241loPI   PO4 3844   0.880   3.900  11.179 -0.2123  0.0450  0.1090
  241loPI   GL1 3845   0.826   3.726  10.762 -0.1303 -0.6034  0.2052
  241loPI   GL2 3846   0.932   4.096  10.755  0.1584 -0.0256  0.0178
  241loPI   C1A 3847   0.773   3.673  10.413  0.0262  0.1886  0.2937
  241loPI   C2A 3848   0.818   3.653   9.995 -0.1115  0.2213 -0.1896
  241loPI   C3A 3849   0.803   3.753   9.495 -0.1801 -0.0055  0.1658
  241loPI   C4A 3850   0.917   3.773   9.089 -0.1274 -0.2381 -0.0140
  241loPI   C5A 3851   1.134   3.527   8.829 -0.0596 -0.0343 -0.1188
  241loPI   C6A 3852   0.984   3.433   8.434 -0.2382 -0.1771  0.1911
  241loPI   C1B 3853   0.972   4.181  10.314  0.4731  0.0922 -0.1145
  241loPI   C2B 3854   1.012   4.140   9.923  0.0253  0.0446  0.2919
  241loPI   C3B 3855   0.972   4.239   9.508  0.2970  0.2182  0.2322
  241loPI   C4B 3856   0.928   4.299   9.085  0.2062 -0.0767 -0.0309
  242loPI    C1 3857  11.595  12.040  11.835 -0.0538 -0.0650  0.1148
  242loPI    C2 3858  11.712  12.357  12.049  0.1630 -0.0526 -0.0194
  242loPI    C3 3859  11.339  12.218  12.085  0.1414  0.0644  0.2248
  242loPI   PO4 3860  11.592  12.120  11.530 -0.3210 -0.0048  0.2154
  242loPI   GL1 3861  11.594  12.247  11.071  0.1811 -0.2267  0.1470
  242loPI   GL2 3862  11.875  12.372  10.972  0.0323 -0.1647 -0.0435
  242loPI   C1A 3863  11.360  12.218  10.719 -0.0771 -0.0479 -0.0730
  242loPI   C2A 3864  11.412  12.215  10.157  0.1744 -0.0470 -0.2039
  242loPI   C3A 3865  11.498  12.240   9.748  0.0749  0.0758 -0.0409
  242loPI   C4A 3866  11.429  12.160   9.328  0.2274  0.2813 -0.0920
  242loPI   C5A 3867  11.372  12.089   8.874 -0.2646  0.1211 -0.3338
  242loPI   C6A 3868  11.264  12.134   8.461 -0.2338  0.2254 -0.1584
  242loPI   C1B 3869  11.821  12.344  10.448 -0.3631  0.1192 -0.0216
  242loPI   C2B 3870  11.902  12.397   9.999 -0.2080 -0.1146  0.0788
  242loPI   C3B 3871  11.955  12.356   9.609 -0.1141  0.1385 -0.0495
  242loPI   C4B 3872  11.959  12.304   9.212 -0.2245 -0.1260 -0.3507
  243loPI    C1 3873  13.262   2.326  11.709 -0.0805 -0.1904  0.1873
  243loPI    C2 3874  13.399   2.479  12.052  0.1565 -0.0860  0.0485
  243loPI    C3 3875  13.040   2.589  11.913  0.1976  0.1180  0.1003
  243loPI   PO4 3876  13.427   2.116  11.603 -0.2151  0.1757  0.1744
  243loPI   GL1 3877  13.502   1.985  11.168  0.0329 -0.0183  0.0138
  243loPI   GL2 3878  13.539   1.583  11.048 -0.4060  0.1295  0.0362
  243loPI   C1A 3879  13.531   2.028  10.731  0.0898  0.1971 -0.2992
  243loPI   C2A 3880  13.561   2.152  10.316 -0.0952  0.0348  0.1931
  243loPI   C3A 3881  13.644   2.225   9.846  0.0071  0.2135 -0.3625
  243loPI   C4A 3882  13.758   2.173   9.375  0.1104  0.0212  0.0222
  243loPI   C5A 3883  13.620   2.263   9.049  0.0582  0.1543  0.1285
  243loPI   C6A 3884  13.468   2.333   8.657  0.0323 -0.0624  0.0673
  243loPI   C1B 3885  13.437   1.591  10.587  0.1278 -0.0231 -0.0942
  243loPI   C2B 3886  13.479   1.644  10.074  0.1429 -0.2401  0.1050
  243loPI   C3B 3887  13.489   1.685   9.682 -0.1860 -0.1222  0.2221
  243loPI   C4B 3888  13.540   1.740   9.259 -0.4477 -0.1205  0.2424
  244loPI    C1 3889   1.269  17.789  11.522  0.0152  0.0573 -0.0576
  244loPI    C2 3890   1.656  17.818  11.427  0.0981 -0.3096  0.1474
  244loPI    C3 3891   1.543  17.594  11.738 -0.2843 -0.2356  0.0668
  244loPI   PO4 3892   1.158  17.696  11.321  0.0431  0.1529 -0.1920
  244loPI   GL1 3893   1.185  17.450  10.944  0.2788  0.2099  0.0260
  244loPI   GL2 3894   0.890  17.687  10.887 -0.1492 -0.0557 -0.0263
  244loPI   C1A 3895   1.134  17.418  10.444  0.2053 -0.0061  0.0976
  244loPI   C2A 3896   1.216  17.413  10.026 -0.0911 -0.1364  0.1640
  244loPI   C3A 3897   1.219  17.434   9.594 -0.0606  0.1264  0.0904
  244loPI   C4A 3898   1.314  17.494   9.163  0.0156 -0.0280  0.0824
  244loPI   C5A 3899   1.173  17.477   8.835  0.0704  0.0768 -0.1719
  244loPI   C6A 3900   1.044  17.796   8.710 -0.2659 -0.1429  0.0421
  244loPI   C1B 3901   0.740  17.712  10.558 -0.0969 -0.2839  0.1389
  244loPI   C2B 3902   0.822  17.718  10.138 -0.1969 -0.0691 -0.0976
  244loPI   C3B 3903   0.772  17.817   9.703 -0.1902  0.0210 -0.3025
  244loPI   C4B 3904   0.842  17.791   9.207 -0.0462 -0.3331 -0.2314
  245loPI    C1 3905   1.945   0.273  11.814 -0.1049 -0.2841  0.0936
  245loPI    C2 3906   2.330   0.297  11.920 -0.1586  0.0425  0.2281
  245loPI    C3 3907   2.125  -0.041  11.984  0.0918 -0.1187  0.1949
  245loPI   PO4 3908   1.954   0.464  11.514 -0.0272  0.0801 -0.1151
  245loPI   GL1 3909   1.941   0.394  11.188 -0.1859 -0.2061  0.1979
  245loPI   GL2 3910   2.291   0.358  11.066  0.0790 -0.3318  0.2385
  245loPI   C1A 3911   1.883   0.296  10.811  0.1751 -0.3058  0.0572
  245loPI   C2A 3912   1.762   0.243  10.421  0.0661  0.1218 -0.2411
  245loPI   C3A 3913   1.785   0.366  10.032  0.1271  0.0687  0.1590
  245loPI   C4A 3914   1.826   0.359   9.593  0.1390  0.1712 -0.1970
  245loPI   C5A 3915   1.838   0.462   9.173 -0.2594 -0.0695 -0.0351
  245loPI   C6A 3916   2.106   0.406   8.801 -0.1374 -0.0380  0.2946
  245loPI   C1B 3917   2.337   0.443  10.680  0.1041 -0.1203  0.1025
  245loPI   C2B 3918   2.205   0.495  10.250 -0.1407 -0.1642  0.0509
  245loPI   C3B 3919   2.272   0.465   9.784 -0.0564 -0.0512 -0.0443
  245loPI   C4B 3920   2.305   0.489   9.282 -0.2507  0.2403 -0.0415
  246loPI    C1 3921   7.816   2.243  11.593 -0.0885  0.0163  0.0275
  246loPI    C2 3922   7.998   2.580  11.479 -0.0640  0.0338  0.1171
  246loPI    C3 3923   7.834   2.555  11.843  0.1248 -0.1256  0.1937
  246loPI   PO4 3924   7.986   2.081  11.408 -0.1315  0.3897  0.0106
  246loPI   GL1 3925   8.211   1.894  11.041  0.2895 -0.1282  0.2690
  246loPI   GL2 3926   8.208   2.228  10.886  0.1617 -0.2092 -0.0544
  246loPI   C1A 3927   8.064   1.767  10.618  0.2174  0.0143  0.3568
  246loPI   C2A 3928   7.952   1.781  10.246 -0.0494 -0.1426  0.1936
  246loPI   C3A 3929   8.021   1.755   9.799  0.0248  0.4109  0.3216
  246loPI   C4A 3930   8.047   1.865   9.453 -0.0974 -0.0270 -0.0879
  246loPI   C5A 3931   8.100   1.876   9.040 -0.1916 -0.1485  0.0659
  246loPI   C6A 3932   8.357   1.822   8.560  0.1270 -0.2650  0.0308
  246loPI   C1B 3933   8.191   2.236  10.425  0.1165 -0.1097 -0.1224
  246loPI   C2B 3934   8.212   2.334  10.052  0.1482  0.0881  0.0951
  246loPI   C3B 3935   8.148   2.373   9.673 -0.2123  0.0734 -0.0386
  246loPI   C4B 3936   8.145   2.427   9.243  0.2465 -0.3005 -0.0432
  247loPI    C1 3937   7.448   8.442  11.220  0.0218  0.0073 -0.0449
  247loPI    C2 3938   7.341   8.737  11.468 -0.1390 -0.0874 -0.0002
  247loPI    C3 3939   7.299   8.356  11.582  0.0298 -0.1285 -0.0732
  247loPI   PO4 3940   7.336   8.489  11.028  0.2553  0.0227  0.2158
  247loPI   GL1 3941   7.461   8.570  10.650  0.0519 -0.2872  0.3185
  247loPI   GL2 3942   7.722   8.434  10.678  0.0371 -0.0226 -0.1333
  247loPI   C1A 3943   7.458   8.568  10.195 -0.0247  0.0241  0.2908
  247loPI   C2A 3944   7.435   8.566   9.708 -0.1519  0.1618 -0.3668
  247loPI   C3A 3945   7.392   8.634   9.278 -0.1674  0.1605  0.0494
  247loPI   C4A 3946   7.398   8.580   8.884 -0.2573  0.1665 -0.0072
  247loPI   C5A 3947   7.631   8.479   8.545 -0.0421  0.4396 -0.0163
  247loPI   C6A 3948   7.939   8.300   8.283 -0.1583  0.2107 -0.0762
  247loPI   C1B 3949   7.812   8.176  10.263 -0.2211 -0.3416 -0.0442
  247loPI   C2B 3950   7.818   8.248   9.822  0.1987 -0.1404 -0.0180
  247loPI   C3B 3951   7.791   8.302   9.358  0.0382 -0.1395 -0.3610
  247loPI   C4B 3952   7.792   8.231   8.923  0.3530  0.0852  0.0734
  248loPI    C1 3953  15.357   2.666  11.479  0.1537  0.2003 -0.0045
  248loPI    C2 3954  15.415   2.991  11.704  0.2546  0.1690  0.0149
  248loPI    C3 3955  15.714   2.731  11.648  0.1808  0.0913 -0.0191
  248loPI   PO4 3956  15.279   2.691  11.288 -0.0779 -0.2672 -0.0342
  248loPI   GL1 3957  14.953   2.560  10.968  0.0168  0.2686  0.0419
  248loPI   GL2 3958  14.791   2.709  11.135  0.0970 -0.0181 -0.2458
  248loPI   C1A 3959  15.115   2.634  10.553 -0.1560  0.0084 -0.2932
  248loPI   C2A 3960  15.122   2.629  10.123  0.1637  0.1077 -0.2692
  248loPI   C3A 3961  15.150   2.689   9.680  0.2035  0.0350 -0.0253
  248loPI   C4A 3962  15.257   2.693   9.249 -0.1768  0.0698  0.3351
  248loPI   C5A 3963  15.267   2.685   8.793  0.1903 -0.2211 -0.1761
  248loPI   C6A 3964  15.450   2.653   8.397  0.1243 -0.0019  0.0940
  248loPI   C1B 3965  14.675   2.884  10.725  0.4408  0.1221 -0.0489
  248loPI   C2B 3966  14.808   2.969  10.264 -0.1212  0.1811  0.1780
  248loPI   C3B 3967  14.719   3.005   9.820 -0.2393  0.2006  0.1165
  248loPI   C4B 3968  14.820   3.052   9.450  0.1937 -0.0704 -0.3430
  249loPI    C1 3969   6.500   8.079  11.644 -0.0415 -0.0476  0.2578
  249loPI    C2 3970   6.215   7.799  11.656 -0.1903  0.0921  0.0494
  249loPI    C3 3971   6.536   7.768  11.893 -0.2170 -0.2396  0.0471
  249loPI   PO4 3972   6.478   8.157  11.390  0.0233 -0.1453 -0.1586
  249loPI   GL1 3973   6.396   8.101  10.951 -0.0260 -0.0501  0.1427
  249loPI   GL2 3974   6.395   7.810  10.724 -0.1101  0.2265  0.0345
  249loPI   C1A 3975   6.454   8.292  10.576  0.1340 -0.1483 -0.2376
  249loPI   C2A 3976   6.461   8.296  10.120  0.0047 -0.0667  0.0016
  249loPI   C3A 3977   6.354   8.268   9.651  0.1426  0.2271 -0.4022
  249loPI   C4A 3978   6.422   8.324   9.239 -0.1646  0.0683 -0.1953
  249loPI   C5A 3979   6.517   8.307   8.797 -0.1411  0.1270 -0.0901
  249loPI   C6A 3980   6.894   8.463   8.627  0.2478  0.1638 -0.0244
  249loPI   C1B 3981   6.346   7.779  10.379 -0.0956 -0.0100 -0.1304
  249loPI   C2B 3982   6.311   7.794   9.938  0.0409 -0.1049 -0.1201
  249loPI   C3B 3983   6.340   7.805   9.460 -0.1383 -0.1710  0.0929
  249loPI   C4B 3984   6.370   7.885   9.054 -0.0010 -0.2082  0.2600
  250loPI    C1 3985   4.656   8.784  11.527  0.2826 -0.0491 -0.0069
  250loPI    C2 3986   4.958   8.714  11.781  0.0581 -0.1245  0.2431
  250loPI    C3 3987   4.615   8.511  11.816 -0.0246 -0.0386 -0.0382
  250loPI   PO4 3988   4.799   8.820  11.244  0.2641  0.2981  0.0193
  250loPI   GL1 3989   4.848   8.715  10.869  0.3014  0.2125 -0.0445
  250loPI   GL2 3990   4.983   8.405  10.752  0.0603  0.1825  0.0720
  250loPI   C1A 3991   4.701   8.696  10.384 -0.1081 -0.2997  0.2280
  250loPI   C2A 3992   4.770   8.714   9.931  0.1530  0.1960  0.1573
  250loPI   C3A 3993   4.633   8.733   9.553  0.0625  0.3133 -0.0741
  250loPI   C4A 3994   4.744   8.675   9.155  0.1506 -0.0999  0.0071
  250loPI   C5A 3995   4.707   8.781   8.796  0.0726  0.0793 -0.0143
  250loPI   C6A 3996   4.595   8.737   8.329  0.1582  0.1862  0.0749
  250loPI   C1B 3997   5.115   8.319  10.310  0.0383  0.0783  0.1948
  250loPI   C2B 3998   5.172   8.333   9.851  0.3434  0.1949 -0.1939
  250loPI   C3B 3999   5.101   8.356   9.364  0.0168 -0.0879 -0.1725
  250loPI   C4B 4000   5.050   8.287   8.914 -0.0806 -0.1090 -0.0874
  251loPI    C1 4001  16.599   7.936  11.591 -0.0169  0.1727 -0.0542
  251loPI    C2 4002  16.973   8.018  11.706  0.0555 -0.3066  0.0738
  251loPI    C3 4003  16.667   8.226  11.859  0.2450 -0.1092  0.1915
  251loPI   PO4 4004  16.492   7.931  11.354 -0.1233  0.2435  0.0037
  251loPI   GL1 4005  16.516   8.129  10.934 -0.1287 -0.2443 -0.3084
  251loPI   GL2 4006  16.652   7.869  10.845  0.0609 -0.0495  0.3144
  251loPI   C1A 4007  16.482   8.153  10.449 -0.0228 -0.1213 -0.1661
  251loPI   C2A 4008  16.413   8.183  10.091 -0.1221 -0.0834 -0.0631
  251loPI   C3A 4009  16.402   8.270   9.606 -0.1135 -0.2164 -0.2688
  251loPI   C4A 4010  16.439   8.220   9.151  0.1527  0.3645  0.1625
  251loPI   C5A 4011  16.425   8.046   8.699  0.0634 -0.0989  0.1963
  251loPI   C6A 4012  16.529   7.947   8.249 -0.0733 -0.1563 -0.0627
  251loPI   C1B 4013  16.786   7.815  10.424  0.1102 -0.1657  0.3304
  251loPI   C2B 4014  16.880   7.878  10.072 -0.0297  0.3952  0.3014
  251loPI   C3B 4015  16.835   7.870   9.603 -0.1887  0.3573 -0.1819
  251loPI   C4B 4016  16.777   7.766   9.160 -0.1196  0.2260  0.1372
  252loPI    C1 4017  17.049  11.675  11.578 -0.0936 -0.1973  0.0743
  252loPI    C2 4018  17.434  11.780  11.545 -0.1337 -0.0793 -0.0294
  252loPI    C3 4019  17.228  11.875  11.875 -0.1021 -0.0523 -0.0172
  252loPI   PO4 4020  16.964  11.695  11.304  0.0614  0.0077 -0.3554
  252loPI   GL1 4021  16.975  11.687  10.866 -0.0504  0.0945 -0.0415
  252loPI   GL2 4022  16.968  11.375  10.875 -0.0626  0.1156 -0.1002
  252loPI   C1A 4023  17.153  11.831  10.507  0.0847 -0.0433  0.0521
  252loPI   C2A 4024  17.157  11.792  10.069 -0.3066 -0.0451 -0.0018
  252loPI   C3A 4025  17.229  11.692   9.731  0.1908 -0.0329  0.0880
  252loPI   C4A 4026  17.230  11.700   9.280 -0.0374 -0.1134 -0.0754
  252loPI   C5A 4027  17.401  11.696   8.872  0.0014  0.2077 -0.0455
  252loPI   C6A 4028  17.526  11.420   8.634  0.0025 -0.1392  0.1564
  252loPI   C1B 4029  17.081  11.268  10.480 -0.1308  0.2154 -0.2925
  252loPI   C2B 4030  17.066  11.300  10.098 -0.0174 -0.1882  0.1456
  252loPI   C3B 4031  17.132  11.209   9.654  0.0737  0.0120 -0.0702
  252loPI   C4B 4032  16.989  11.201   9.317 -0.1753 -0.2310  0.0316
  253loPI    C1 4033   5.843   2.898  11.199 -0.1263  0.0159 -0.2124
  253loPI    C2 4034   5.653   2.587  11.036 -0.1151 -0.0516 -0.0978
  253loPI    C3 4035   6.052   2.593  11.049 -0.1130  0.0104 -0.1828
  253loPI   PO4 4036   5.767   3.071  11.079 -0.3865 -0.2510 -0.0396
  253loPI   GL1 4037   5.620   3.049  10.727 -0.2209 -0.0205  0.0142
  253loPI   GL2 4038   5.956   2.954  10.640 -0.2825  0.2043 -0.0508
  253loPI   C1A 4039   5.626   2.922  10.313  0.2537 -0.4542 -0.0544
  253loPI   C2A 4040   5.679   3.012   9.966  0.0718  0.2937  0.0760
  253loPI   C3A 4041   5.612   2.994   9.588 -0.2557  0.3684 -0.1210
  253loPI   C4A 4042   5.511   2.995   9.151 -0.1665  0.0577 -0.0443
  253loPI   C5A 4043   5.568   2.985   8.732  0.0391 -0.1252  0.0131
  253loPI   C6A 4044   5.344   3.109   8.388 -0.1232  0.0278  0.1215
  253loPI   C1B 4045   6.096   3.082  10.256  0.2612  0.2542  0.1015
  253loPI   C2B 4046   6.136   3.085   9.812  0.2466 -0.0686 -0.1373
  253loPI   C3B 4047   6.074   3.150   9.466  0.3360  0.0017 -0.0740
  253loPI   C4B 4048   6.011   3.097   8.983  0.0538 -0.0456  0.0190
  254loPI    C1 4049  12.054  15.716  11.648 -0.0465  0.0155  0.0853
  254loPI    C2 4050  12.001  15.506  11.984 -0.0561 -0.0450  0.0461
  254loPI    C3 4051  12.371  15.589  11.857 -0.0521 -0.0495  0.0546
  254loPI   PO4 4052  11.913  15.610  11.450  0.0365  0.2728 -0.2781
  254loPI   GL1 4053  11.823  15.679  11.081 -0.3174 -0.1506 -0.2625
  254loPI   GL2 4054  11.848  16.059  10.964  0.0550  0.1251  0.0459
  254loPI   C1A 4055  11.709  15.621  10.695  0.3260 -0.3691 -0.1547
  254loPI   C2A 4056  11.669  15.521  10.262  0.4697 -0.0556 -0.0449
  254loPI   C3A 4057  11.700  15.561   9.843 -0.0498  0.1934  0.0728
  254loPI   C4A 4058  11.724  15.600   9.388  0.0005  0.1451 -0.1614
  254loPI   C5A 4059  11.991  15.672   9.015 -0.2220 -0.0370  0.0515
  254loPI   C6A 4060  12.333  15.781   9.004 -0.0669 -0.0594  0.0136
  254loPI   C1B 4061  11.838  16.099  10.491  0.1295  0.0295 -0.0598
  254loPI   C2B 4062  11.808  16.033  10.101  0.0830  0.0476  0.0010
  254loPI   C3B 4063  11.740  16.108   9.677  0.1287  0.1303 -0.0348
  254loPI   C4B 4064  11.812  16.091   9.206  0.0806  0.0924  0.2462
  255loPI    C1 4065  17.306  12.540  11.482  0.2163 -0.1516 -0.3197
  255loPI    C2 4066  17.458  12.284  11.750  0.0035 -0.1034 -0.1495
  255loPI    C3 4067  17.449  12.676  11.830  0.1499 -0.0619 -0.3271
  255loPI   PO4 4068  17.351  12.457  11.234 -0.0491  0.0606  0.0015
  255loPI   GL1 4069  17.104  12.644  10.871 -0.1461 -0.0011 -0.0731
  255loPI   GL2 4070  17.189  12.318  10.770  0.0604 -0.3988  0.0629
  255loPI   C1A 4071  16.994  12.610  10.396  0.1786  0.0298  0.0510
  255loPI   C2A 4072  17.001  12.592   9.896  0.0200 -0.2761  0.0656
  255loPI   C3A 4073  16.954  12.600   9.479  0.0965 -0.0949  0.3137
  255loPI   C4A 4074  16.911  12.544   9.081  0.0843 -0.1841 -0.3261
  255loPI   C5A 4075  16.858  12.510   8.703 -0.0647  0.1852 -0.2587
  255loPI   C6A 4076  16.760  12.453   8.321  0.2851  0.1249 -0.0780
  255loPI   C1B 4077  17.339  12.258  10.314 -0.0062 -0.1388  0.2152
  255loPI   C2B 4078  17.360  12.208   9.901 -0.2751  0.1914  0.0263
  255loPI   C3B 4079  17.345  12.284   9.482  0.3116 -0.0692  0.2289
  255loPI   C4B 4080  17.272  12.195   9.083  0.2666 -0.2172  0.0041
  256loPI    C1 4081  14.184  10.560  11.749  0.1024  0.2743  0.1741
  256loPI    C2 4082  14.338  10.657  12.104 -0.1371  0.1036  0.3279
  256loPI    C3 4083  13.950  10.566  12.073 -0.0871 -0.0231  0.0476
  256loPI   PO4 4084  14.241  10.727  11.551 -0.0774 -0.0742  0.2323
  256loPI   GL1 4085  14.262  10.596  11.182 -0.1124 -0.1775 -0.0922
  256loPI   GL2 4086  13.898  10.639  11.035 -0.1277  0.0808  0.0521
  256loPI   C1A 4087  14.271  10.650  10.682  0.1843  0.3783  0.0457
  256loPI   C2A 4088  14.289  10.726  10.204  0.1872 -0.0760  0.0307
  256loPI   C3A 4089  14.354  10.859   9.815  0.0969  0.2321  0.1632
  256loPI   C4A 4090  14.271  10.844   9.422  0.0865 -0.1391 -0.2100
  256loPI   C5A 4091  14.247  10.834   8.911 -0.2836 -0.0473  0.0050
  256loPI   C6A 4092  14.099  10.866   8.476 -0.0975 -0.0225 -0.0521
  256loPI   C1B 4093  13.766  10.611  10.655 -0.2308 -0.7057  0.1342
  256loPI   C2B 4094  13.768  10.591  10.213  0.0885 -0.0511  0.2580
  256loPI   C3B 4095  13.831  10.698   9.738 -0.1117  0.0347 -0.2189
  256loPI   C4B 4096  13.831  10.719   9.375 -0.0029  0.0748 -0.1271
  257loPI    C1 4097  11.569  15.217  11.720  0.2545  0.1462  0.1890
  257loPI    C2 4098  11.418  15.312  12.077  0.0154  0.0833  0.1066
  257loPI    C3 4099  11.548  15.600  11.832 -0.2840  0.1673  0.0425
  257loPI   PO4 4100  11.445  15.100  11.614 -0.2366  0.0328 -0.0535
  257loPI   GL1 4101  11.478  14.954  11.224  0.1881 -0.1273 -0.0992
  257loPI   GL2 4102  11.735  15.228  11.221  0.1295  0.0419  0.3504
  257loPI   C1A 4103  11.893  14.791  10.956 -0.0509  0.1397  0.0224
  257loPI   C2A 4104  11.965  14.696  10.542 -0.1114  0.0934  0.0814
  257loPI   C3A 4105  12.019  14.774  10.108  0.1141 -0.0146  0.1032
  257loPI   C4A 4106  12.078  14.721   9.698  0.0970 -0.1962 -0.1035
  257loPI   C5A 4107  12.113  14.925   9.297 -0.0805 -0.1903 -0.0167
  257loPI   C6A 4108  11.879  15.214   9.152  0.1870  0.0038 -0.0873
  257loPI   C1B 4109  11.650  15.153  10.776 -0.1446 -0.1912 -0.3214
  257loPI   C2B 4110  11.510  15.044  10.372 -0.1015 -0.3961 -0.1595
  257loPI   C3B 4111  11.612  15.036  10.005 -0.1957 -0.1554 -0.0657
  257loPI   C4B 4112  11.687  15.108   9.587 -0.1135 -0.1000 -0.0019
  258loPI    C1 4113   4.940  13.154  11.579  0.0984 -0.2340 -0.0288
  258loPI    C2 4114   4.855  12.887  11.865 -0.1650 -0.1541 -0.0294
  258loPI    C3 4115   5.151  13.151  11.919 -0.0174 -0.3324  0.0431
  258loPI   PO4 4116   4.947  12.981  11.336  0.0778  0.0513 -0.2301
  258loPI   GL1 4117   4.871  12.764  10.916 -0.1385 -0.2788 -0.1242
  258loPI   GL2 4118   5.039  12.532  11.009  0.4369 -0.0209 -0.0653
  258loPI   C1A 4119   4.801  12.831  10.476  0.1953 -0.1129 -0.1546
  258loPI   C2A 4120   4.785  12.878   9.993 -0.0973  0.1685  0.1664
  258loPI   C3A 4121   4.710  12.824   9.598 -0.1137 -0.0026  0.1188
  258loPI   C4A 4122   4.736  12.892   9.125  0.1086 -0.2305 -0.0499
  258loPI   C5A 4123   4.986  12.767   8.764  0.4354 -0.0584 -0.2623
  258loPI   C6A 4124   5.135  12.697   8.339 -0.1214 -0.0317  0.1830
  258loPI   C1B 4125   5.209  12.495  10.580 -0.1696 -0.0580  0.0739
  258loPI   C2B 4126   5.223  12.566  10.088  0.2020 -0.2143 -0.2024
  258loPI   C3B 4127   5.145  12.557   9.757 -0.1239 -0.0881 -0.0309
  258loPI   C4B 4128   5.128  12.624   9.372 -0.2754  0.1445  0.1683
  259loPI    C1 4129  12.124   0.676  11.701 -0.0749  0.1663  0.0909
  259loPI    C2 4130  11.977   1.045  11.748 -0.0466  0.1729  0.1289
  259loPI    C3 4131  12.147   0.858  12.057  0.1128  0.2033  0.0608
  259loPI   PO4 4132  12.048   0.633  11.452  0.0512 -0.0850 -0.1473
  259loPI   GL1 4133  11.867   0.598  11.057 -0.0578 -0.0389  0.1738
  259loPI   GL2 4134  11.487   0.755  10.974 -0.0099 -0.0679 -0.2483
  259loPI   C1A 4135  11.828   0.565  10.685  0.0320  0.0545  0.2607
  259loPI   C2A 4136  11.881   0.667  10.297  0.1513  0.2417 -0.0612
  259loPI   C3A 4137  11.944   0.736   9.902  0.2223  0.1582  0.2512
  259loPI   C4A 4138  11.870   0.773   9.449  0.3001  0.2099 -0.2966
  259loPI   C5A 4139  11.827   0.910   9.057 -0.1878  0.0334  0.1649
  259loPI   C6A 4140  11.532   1.187   8.779 -0.0974  0.2631 -0.1258
  259loPI   C1B 4141  11.455   0.912  10.514  0.1281  0.2678 -0.0753
  259loPI   C2B 4142  11.517   0.980  10.100 -0.2466  0.1969  0.1574
  259loPI   C3B 4143  11.510   1.091   9.746 -0.2696  0.0998 -0.0515
  259loPI   C4B 4144  11.498   1.123   9.309  0.0456 -0.0715  0.2872
  260loPI    C1 4145   8.610   5.771  11.091 -0.2843 -0.1181 -0.0354
  260loPI    C2 4146   8.755   5.768  11.464  0.1043 -0.1851 -0.1824
  260loPI    C3 4147   8.582   6.098  11.320  0.2792 -0.0397 -0.0637
  260loPI   PO4 4148   8.735   5.726  10.960 -0.0185  0.2248  0.0680
  260loPI   GL1 4149   8.879   5.761  10.561  0.0938 -0.4479 -0.2388
  260loPI   GL2 4150   8.676   5.571  10.438 -0.0037 -0.1120  0.1850
  260loPI   C1A 4151   9.034   5.715  10.174 -0.0078 -0.0840 -0.2706
  260loPI   C2A 4152   9.083   5.878   9.745 -0.0281  0.0161  0.0292
  260loPI   C3A 4153   9.052   6.028   9.320  0.2084  0.1878  0.2114
  260loPI   C4A 4154   9.107   5.988   8.888  0.1006  0.4654  0.0003
  260loPI   C5A 4155   9.021   5.944   8.451 -0.0763 -0.0878 -0.1192
  260loPI   C6A 4156   8.738   5.940   8.189  0.1068 -0.1286 -0.0740
  260loPI   C1B 4157   8.551   5.659  10.018  0.1182 -0.1038  0.1714
  260loPI   C2B 4158   8.552   5.701   9.683  0.3265 -0.0712  0.2772
  260loPI   C3B 4159   8.599   5.703   9.227 -0.1636  0.2708 -0.1985
  260loPI   C4B 4160   8.739   5.605   8.809  0.1249  0.0452 -0.0217
  261loPI    C1 4161  14.830   0.516  11.822  0.1804 -0.0941 -0.0365
  261loPI    C2 4162  14.741   0.237  12.096 -0.1741 -0.1332 -0.1862
  261loPI    C3 4163  14.764   0.622  12.202 -0.1440 -0.1671 -0.0692
  261loPI   PO4 4164  14.700   0.428  11.602  0.0279  0.1567  0.3039
  261loPI   GL1 4165  14.527   0.421  11.159 -0.1051  0.1191  0.3699
  261loPI   GL2 4166  14.499   0.044  11.132  0.0311  0.1140  0.2938
  261loPI   C1A 4167  14.620   0.562  10.761 -0.0149  0.0563  0.1946
  261loPI   C2A 4168  14.658   0.645  10.309  0.2031  0.2074  0.0241
  261loPI   C3A 4169  14.670   0.664   9.865 -0.1354  0.0726  0.0733
  261loPI   C4A 4170  14.622   0.723   9.388 -0.1101  0.0428  0.1263
  261loPI   C5A 4171  14.713   0.772   8.906 -0.1067 -0.2055  0.4431
  261loPI   C6A 4172  14.847   0.815   8.529  0.1401  0.0833 -0.1024
  261loPI   C1B 4173  14.531   0.093  10.681  0.1575  0.4042 -0.1986
  261loPI   C2B 4174  14.540   0.053  10.274  0.0759 -0.0180  0.2889
  261loPI   C3B 4175  14.495   0.167   9.857 -0.1015  0.0762  0.1170
  261loPI   C4B 4176  14.502   0.193   9.407  0.1917 -0.0851  0.1355
  262loPI    C1 4177  14.260  10.118  11.952 -0.0994  0.1031 -0.1193
  262loPI    C2 4178  14.161   9.743  12.053  0.0294  0.0094 -0.3341
  262loPI    C3 4179  13.892  10.037  12.087 -0.0242 -0.0727 -0.0154
  262loPI   PO4 4180  14.397  10.067  11.692  0.0020 -0.1819  0.1737
  262loPI   GL1 4181  14.416  10.110  11.292 -0.0779 -0.1595  0.1898
  262loPI   GL2 4182  14.696  10.140  11.191 -0.1264 -0.2135 -0.2661
  262loPI   C1A 4183  14.057  10.175  10.926 -0.3262  0.1803  0.3237
  262loPI   C2A 4184  14.115  10.183  10.480  0.0541 -0.1761  0.1861
  262loPI   C3A 4185  14.145  10.224  10.014  0.2704 -0.2035 -0.0960
  262loPI   C4A 4186  14.112  10.319   9.587 -0.1167  0.1056 -0.2082
  262loPI   C5A 4187  14.211  10.396   9.197  0.1476 -0.0653 -0.0214
  262loPI   C6A 4188  14.568  10.453   9.023 -0.1035 -0.0466  0.2958
  262loPI   C1B 4189  14.531  10.212  10.789  0.1948 -0.1447  0.0875
  262loPI   C2B 4190  14.647  10.384  10.429 -0.0781 -0.1140 -0.2006
  262loPI   C3B 4191  14.611  10.429   9.949 -0.0773 -0.0376  0.1734
  262loPI   C4B 4192  14.667  10.479   9.529  0.1555  0.0449  0.0808
  263loPI    C1 4193  16.976   5.571  11.592 -0.0389  0.0035 -0.0442
  263loPI    C2 4194  17.006   5.190  11.708 -0.0225  0.0181  0.0001
  263loPI    C3 4195  17.149   5.481  11.941 -0.0524  0.0528 -0.0248
  263loPI   PO4 4196  17.055   5.485  11.308 -0.3072 -0.0628 -0.1118
  263loPI   GL1 4197  17.014   5.516  10.930 -0.0482 -0.1944 -0.1732
  263loPI   GL2 4198  16.865   5.774  10.884 -0.2021  0.0707  0.2210
  263loPI   C1A 4199  17.146   5.528  10.462  0.1287  0.0890 -0.2052
  263loPI   C2A 4200  17.183   5.632  10.041 -0.1058  0.4052  0.2632
  263loPI   C3A 4201  17.203   5.523   9.582 -0.2264  0.0341  0.1692
  263loPI   C4A 4202  17.178   5.595   9.162 -0.1866  0.0842 -0.1706
  263loPI   C5A 4203  16.901   5.839   8.862  0.1792 -0.3625  0.0130
  263loPI   C6A 4204  16.880   6.300   8.652 -0.0377  0.1096  0.1265
  263loPI   C1B 4205  16.700   5.859  10.593  0.2773 -0.2628 -0.3679
  263loPI   C2B 4206  16.808   5.905  10.199  0.0915  0.0825 -0.3125
  263loPI   C3B 4207  16.922   5.953   9.788  0.0221 -0.2240  0.2119
  263loPI   C4B 4208  16.789   6.007   9.298 -0.1602  0.1255  0.0022
  264loPI    C1 4209  11.245   2.896  11.404 -0.2930 -0.3521  0.1237
  264loPI    C2 4210  11.334   3.253  11.563 -0.0992 -0.2395 -0.2256
  264loPI    C3 4211  11.498   2.920  11.714 -0.0995 -0.1592 -0.0457
  264loPI   PO4 4212  11.308   2.983  11.099 -0.1214 -0.2335  0.1472
  264loPI   GL1 4213  11.632   2.972  10.823  0.0592 -0.3030 -0.1082
  264loPI   GL2 4214  11.893   2.767  10.747  0.3185 -0.0861 -0.1885
  264loPI   C1A 4215  11.483   2.927  10.464 -0.1843  0.2013 -0.1671
  264loPI   C2A 4216  11.507   2.866   9.964 -0.1624  0.0581  0.0302
  264loPI   C3A 4217  11.550   2.962   9.514 -0.0766  0.0332  0.2010
  264loPI   C4A 4218  11.480   2.954   9.118 -0.4425  0.1003 -0.1547
  264loPI   C5A 4219  11.624   2.915   8.758  0.0998 -0.1577 -0.1196
  264loPI   C6A 4220  11.792   2.873   8.422  0.3369 -0.0290  0.1191
  264loPI   C1B 4221  11.881   2.543  10.384 -0.0210 -0.2296  0.0364
  264loPI   C2B 4222  11.909   2.521   9.970 -0.0582  0.0030 -0.2150
  264loPI   C3B 4223  11.884   2.570   9.572 -0.3799 -0.0260 -0.0214
  264loPI   C4B 4224  11.875   2.611   9.146  0.0964 -0.2700 -0.2028
  265loPI    C1 4225  10.101   7.945  11.180  0.0261  0.0940  0.0369
  265loPI    C2 4226  10.424   8.160  11.279  0.1388 -0.0077 -0.1056
  265loPI    C3 4227  10.112   8.140  11.529  0.2861  0.0034  0.0817
  265loPI   PO4 4228  10.020   8.032  10.970  0.0342  0.3368  0.0407
  265loPI   GL1 4229  10.094   8.031  10.597  0.2717 -0.3862 -0.0184
  265loPI   GL2 4230   9.947   8.311  10.528 -0.0961  0.0070  0.1585
  265loPI   C1A 4231  10.008   7.954  10.170 -0.0106 -0.1154 -0.2719
  265loPI   C2A 4232  10.054   8.002   9.781 -0.2356 -0.0759 -0.2196
  265loPI   C3A 4233   9.961   8.009   9.300  0.0522 -0.0095 -0.2439
  265loPI   C4A 4234  10.055   8.054   8.868 -0.1201 -0.0006  0.0270
  265loPI   C5A 4235  10.185   8.021   8.432  0.0117  0.1949 -0.2183
  265loPI   C6A 4236   9.994   8.243   8.099  0.0188 -0.3087  0.1405
  265loPI   C1B 4237  10.127   8.478  10.156  0.3789 -0.2627  0.1044
  265loPI   C2B 4238  10.126   8.515   9.736  0.0625  0.2902  0.1990
  265loPI   C3B 4239  10.124   8.508   9.326 -0.0904  0.2370 -0.1642
  265loPI   C4B 4240  10.168   8.512   8.931 -0.3502 -0.0389  0.0385
  266loPI    C1 4241  15.700   1.522  11.689  0.2868 -0.2339  0.1233
  266loPI    C2 4242  16.002   1.471  11.946  0.1808  0.1796  0.3388
  266loPI    C3 4243  15.633   1.541  12.083  0.0407 -0.0225  0.0740
  266loPI   PO4 4244  15.714   1.685  11.505  0.0743 -0.0846  0.1563
  266loPI   GL1 4245  15.619   1.650  11.143  0.1442 -0.1806  0.2386
  266loPI   GL2 4246  15.686   1.868  10.944 -0.1518  0.3362  0.1977
  266loPI   C1A 4247  15.754   1.383  10.739  0.1526 -0.2403 -0.0762
  266loPI   C2A 4248  15.746   1.476  10.344  0.2220  0.2205 -0.1588
  266loPI   C3A 4249  15.738   1.449   9.899 -0.0526  0.0781 -0.0378
  266loPI   C4A 4250  15.721   1.518   9.422  0.0544 -0.0117 -0.0226
  266loPI   C5A 4251  15.772   1.589   8.940 -0.0833 -0.0444  0.2492
  266loPI   C6A 4252  15.682   1.662   8.428 -0.1083 -0.0387  0.1928
  266loPI   C1B 4253  15.863   1.939  10.530  0.3171  0.0754  0.0099
  266loPI   C2B 4254  15.885   1.969  10.076  0.1010  0.0491 -0.0590
  266loPI   C3B 4255  15.832   1.976   9.616  0.1768 -0.3971  0.5659
  266loPI   C4B 4256  15.965   1.985   9.217 -0.0799 -0.0315  0.1560
  267loPI    C1 4257  17.524  17.111  11.442 -0.2123  0.2128 -0.3949
  267loPI    C2 4258  17.356  16.755  11.374  0.2970 -0.1783  0.2659
  267loPI    C3 4259  17.188  17.009  11.633  0.0766 -0.0424 -0.0055
  267loPI   PO4 4260  17.499  17.233  11.299 -0.4033  0.1112 -0.0536
  267loPI   GL1 4261  17.458  17.086  10.864  0.2615  0.0652 -0.0071
  267loPI   GL2 4262  17.412  16.865  10.793  0.2484  0.1377  0.0300
  267loPI   C1A 4263  17.584  17.395  10.525 -0.0622 -0.1093 -0.1103
  267loPI   C2A 4264  17.536  17.430  10.049 -0.1758  0.0755 -0.0239
  267loPI   C3A 4265  17.642  17.467   9.540  0.0102 -0.2520  0.1425
  267loPI   C4A 4266  17.680  17.376   9.095 -0.0491 -0.1766  0.2236
  267loPI   C5A 4267  17.815  17.133   8.753 -0.2894  0.0903 -0.1709
  267loPI   C6A 4268  17.964  17.076   8.356 -0.2765 -0.1704 -0.2017
  267loPI   C1B 4269  17.431  16.937  10.323  0.0324 -0.2632  0.3833
  267loPI   C2B 4270  17.472  16.931   9.800  0.0015 -0.0372 -0.1181
  267loPI   C3B 4271  17.520  16.969   9.354  0.1930  0.3546 -0.0142
  267loPI   C4B 4272  17.412  16.897   8.918 -0.0332 -0.1793 -0.2477
  268loPI    C1 4273  15.050   8.574  11.805  0.1023  0.1114  0.1692
  268loPI    C2 4274  15.368   8.397  11.970 -0.0128 -0.0956  0.1725
  268loPI    C3 4275  15.014   8.384  12.156 -0.0842 -0.1025  0.0368
  268loPI   PO4 4276  15.079   8.515  11.589 -0.0895 -0.0068  0.2483
  268loPI   GL1 4277  15.093   8.595  11.199  0.2584 -0.1087 -0.0372
  268loPI   GL2 4278  14.792   8.451  11.109  0.1638 -0.1190  0.0082
  268loPI   C1A 4279  15.323   8.549  10.783 -0.0161 -0.0033  0.1502
  268loPI   C2A 4280  15.287   8.671  10.314  0.0039  0.1376 -0.0345
  268loPI   C3A 4281  15.240   8.782   9.894 -0.0073  0.2237 -0.1645
  268loPI   C4A 4282  15.236   8.769   9.366  0.1251  0.0121 -0.0562
  268loPI   C5A 4283  15.209   8.836   8.986  0.2252  0.4079  0.1320
  268loPI   C6A 4284  15.255   8.498   8.672 -0.2366 -0.0233  0.1263
  268loPI   C1B 4285  14.751   8.435  10.724  0.0327  0.0298 -0.3907
  268loPI   C2B 4286  14.774   8.514  10.281  0.3602  0.1670 -0.1158
  268loPI   C3B 4287  14.788   8.569   9.853  0.1497  0.0524 -0.0080
  268loPI   C4B 4288  14.708   8.617   9.478  0.0566  0.0560 -0.0142
  269loPI    C1 4289   3.861   5.120  11.220 -0.0467 -0.2556  0.0689
  269loPI    C2 4290   4.130   4.869  11.377  0.0823 -0.1386  0.0369
  269loPI    C3 4291   4.182   5.265  11.411  0.0173 -0.1137 -0.1428
  269loPI   PO4 4292   3.847   5.001  10.948  0.1707 -0.0984  0.0459
  269loPI   GL1 4293   3.698   5.122  10.631  0.0624  0.2749 -0.1913
  269loPI   GL2 4294   3.408   4.966  10.533 -0.1582 -0.0079 -0.0449
  269loPI   C1A 4295   3.807   5.099  10.186  0.1867  0.0222  0.0555
  269loPI   C2A 4296   3.860   5.211   9.688 -0.0863 -0.1878  0.1656
  269loPI   C3A 4297   3.846   5.331   9.271 -0.0023  0.1385 -0.0783
  269loPI   C4A 4298   3.919   5.237   8.844  0.2767 -0.1195  0.0187
  269loPI   C5A 4299   3.901   4.992   8.500  0.1203  0.1095 -0.0098
  269loPI   C6A 4300   3.967   4.712   8.153  0.3045  0.0854 -0.1608
  269loPI   C1B 4301   3.250   4.969  10.117  0.0513  0.0340 -0.0575
  269loPI   C2B 4302   3.365   5.046   9.725  0.0243 -0.0186  0.0862
  269loPI   C3B 4303   3.407   5.076   9.328 -0.0547  0.1319  0.2670
  269loPI   C4B 4304   3.466   5.071   8.920  0.1719 -0.1943  0.1185
  270loPI    C1 4305   8.790   0.463  11.310  0.3678 -0.0873  0.0027
  270loPI    C2 4306   8.950   0.368  11.663  0.0625 -0.0352  0.1587
  270loPI    C3 4307   8.641   0.621  11.646 -0.0549 -0.1939 -0.1281
  270loPI   PO4 4308   8.810   0.175  11.176  0.0131  0.1004 -0.3007
  270loPI   GL1 4309   8.688  -0.047  10.904 -0.0796 -0.0683 -0.0643
  270loPI   GL2 4310   8.480  -0.287  10.880 -0.0751 -0.2648 -0.1107
  270loPI   C1A 4311   8.929  -0.209  10.602 -0.0406 -0.1529  0.0241
  270loPI   C2A 4312   8.886  -0.270  10.223 -0.0908 -0.0209  0.0580
  270loPI   C3A 4313   8.977  -0.258   9.800  0.0001 -0.0484  0.0803
  270loPI   C4A 4314   8.882  -0.217   9.353  0.0174 -0.3881 -0.4204
  270loPI   C5A 4315   8.896  -0.072   9.020 -0.0670 -0.0767 -0.1595
  270loPI   C6A 4316   8.895   0.373   8.687  0.2131  0.0528 -0.0980
  270loPI   C1B 4317   8.493  -0.440  10.542 -0.0823 -0.1141 -0.0587
  270loPI   C2B 4318   8.402  -0.452  10.055  0.2304  0.0095 -0.1130
  270loPI   C3B 4319   8.415  -0.386   9.578 -0.2076  0.0099  0.1561
  270loPI   C4B 4320   8.432  -0.275   9.190  0.0367  0.0520 -0.0947
  271loPI    C1 4321   4.128  14.105  11.621  0.2984  0.0180 -0.0037
  271loPI    C2 4322   4.178  13.735  11.764 -0.0834 -0.0207  0.0398
  271loPI    C3 4323   4.165  14.047  12.015  0.1047  0.0097  0.0138
  271loPI   PO4 4324   3.923  14.102  11.415 -0.1194 -0.0019 -0.1144
  271loPI   GL1 4325   4.024  14.202  11.058 -0.1223  0.0452  0.1542
  271loPI   GL2 4326   3.764  14.366  10.937 -0.0963 -0.1620 -0.3446
  271loPI   C1A 4327   4.149  14.063  10.627  0.0676 -0.1764  0.3884
  271loPI   C2A 4328   4.121  14.063  10.277  0.0428  0.0800  0.1005
  271loPI   C3A 4329   4.107  14.120   9.791 -0.1625  0.1236 -0.2795
  271loPI   C4A 4330   4.120  14.192   9.422  0.1107 -0.2097  0.3817
  271loPI   C5A 4331   4.169  14.228   8.929  0.2085 -0.0353 -0.2129
  271loPI   C6A 4332   3.847  14.206   8.578 -0.0037 -0.1967  0.1431
  271loPI   C1B 4333   3.742  14.453  10.437  0.0037  0.0662  0.1099
  271loPI   C2B 4334   3.670  14.389  10.014  0.0215 -0.2511  0.2429
  271loPI   C3B 4335   3.727  14.464   9.598 -0.0608  0.0511 -0.2085
  271loPI   C4B 4336   3.796  14.480   9.151  0.0834  0.0786 -0.0238
  272loPI    C1 4337   1.605  10.371  11.455  0.0790 -0.1776  0.1678
  272loPI    C2 4338   1.977  10.316  11.320 -0.0458  0.1846 -0.3547
  272loPI    C3 4339   1.918  10.483  11.678  0.2900 -0.1290 -0.1460
  272loPI   PO4 4340   1.492  10.456  11.239 -0.1111 -0.1072  0.2445
  272loPI   GL1 4341   1.430  10.652  10.856  0.0017  0.0860  0.1993
  272loPI   GL2 4342   1.345  10.382  10.739  0.1872  0.0163  0.2686
  272loPI   C1A 4343   1.076  10.783  10.498 -0.0782 -0.0293 -0.2417
  272loPI   C2A 4344   1.061  10.778  10.061 -0.3037  0.0552  0.0068
  272loPI   C3A 4345   0.961  10.812   9.696  0.2552  0.1400  0.0829
  272loPI   C4A 4346   1.024  10.846   9.273  0.0837  0.0087 -0.0068
  272loPI   C5A 4347   1.011  10.970   8.790 -0.1812  0.0591 -0.0712
  272loPI   C6A 4348   0.642  11.126   8.602 -0.0860 -0.0914  0.2537
  272loPI   C1B 4349   1.468  10.375  10.427 -0.1090  0.1027  0.1361
  272loPI   C2B 4350   1.406  10.428  10.106  0.1460  0.3987  0.3024
  272loPI   C3B 4351   1.343  10.473   9.749 -0.3552  0.0643 -0.1187
  272loPI   C4B 4352   1.457  10.545   9.270 -0.2367  0.2481 -0.2242
  273loPI    C1 4353  16.556   2.097  11.878  0.3276 -0.0857  0.0887
  273loPI    C2 4354  16.370   2.370  12.105  0.0343 -0.2787  0.0864
  273loPI    C3 4355  16.765   2.313  12.142  0.1741  0.4128 -0.1836
  273loPI   PO4 4356  16.558   2.131  11.572 -0.2122  0.3172  0.0604
  273loPI   GL1 4357  16.499   1.976  11.167 -0.2278  0.0482 -0.1871
  273loPI   GL2 4358  16.590   1.738  10.958 -0.2402  0.2932  0.0957
  273loPI   C1A 4359  16.340   2.177  10.841 -0.1510  0.0638  0.0920
  273loPI   C2A 4360  16.368   2.123  10.318  0.2005  0.0147 -0.0356
  273loPI   C3A 4361  16.342   2.059   9.875 -0.1746  0.1880  0.0978
  273loPI   C4A 4362  16.396   2.099   9.374  0.0575  0.0131  0.1736
  273loPI   C5A 4363  16.419   2.156   9.013  0.2780 -0.0260  0.2688
  273loPI   C6A 4364  16.580   1.970   8.676  0.1044  0.1867  0.2059
  273loPI   C1B 4365  16.708   1.798  10.483  0.3587 -0.3740  0.1264
  273loPI   C2B 4366  16.754   1.755  10.048 -0.1134  0.1253 -0.0189
  273loPI   C3B 4367  16.726   1.755   9.638  0.1155  0.0861  0.2466
  273loPI   C4B 4368  16.759   1.726   9.186 -0.1061  0.0640 -0.1663
  274loPI    C1 4369  15.652  12.830  11.650 -0.0517 -0.1000  0.1209
  274loPI    C2 4370  15.485  12.617  11.944 -0.0597 -0.1957  0.0474
  274loPI    C3 4371  15.879  12.684  11.945 -0.0525 -0.2374  0.0542
  274loPI   PO4 4372  15.619  12.722  11.423 -0.1036 -0.0089 -0.0217
  274loPI   GL1 4373  15.631  12.593  11.010  0.1896  0.3441 -0.2797
  274loPI   GL2 4374  15.633  12.946  10.901  0.0553  0.2064  0.2935
  274loPI   C1A 4375  15.611  12.616  10.559  0.1463  0.0282  0.2512
  274loPI   C2A 4376  15.596  12.644  10.187  0.2268 -0.3385 -0.0848
  274loPI   C3A 4377  15.922  12.399   9.979 -0.0170 -0.1797 -0.0115
  274loPI   C4A 4378  16.059  12.241   9.517  0.0518  0.4031 -0.0744
  274loPI   C5A 4379  15.897  12.291   9.156 -0.0653  0.0643 -0.1289
  274loPI   C6A 4380  15.912  12.245   8.758 -0.0879 -0.0471 -0.3952
  274loPI   C1B 4381  15.772  13.107  10.487 -0.0544 -0.0896 -0.2302
  274loPI   C2B 4382  15.731  13.133  10.069  0.1112  0.1360  0.3167
  274loPI   C3B 4383  15.672  13.114   9.596  0.3036 -0.2069 -0.0179
  274loPI   C4B 4384  15.762  13.021   9.148 -0.0317 -0.0738 -0.0577
  275loPI    C1 4385   6.854   6.067  11.463  0.0591 -0.0700 -0.0255
  275loPI    C2 4386   6.583   5.778  11.516 -0.0294  0.0268  0.0582
  275loPI    C3 4387   6.970   5.704  11.584 -0.0529 -0.0679  0.0916
  275loPI   PO4 4388   6.753   6.222  11.302  0.0869  0.1843 -0.0073
  275loPI   GL1 4389   7.123   6.296  11.004  0.0339  0.1827  0.0502
  275loPI   GL2 4390   7.349   6.462  10.919  0.1194  0.0362  0.3305
  275loPI   C1A 4391   7.289   6.072  10.589 -0.2681 -0.2228  0.0113
  275loPI   C2A 4392   7.294   6.116  10.134 -0.0513 -0.0574 -0.1412
  275loPI   C3A 4393   7.324   6.237   9.678 -0.0832 -0.1425 -0.2191
  275loPI   C4A 4394   7.417   6.265   9.260  0.2295 -0.0510 -0.1078
  275loPI   C5A 4395   7.444   6.188   8.746 -0.4158  0.2510 -0.2508
  275loPI   C6A 4396   7.288   6.115   8.343 -0.1731  0.0247  0.1185
  275loPI   C1B 4397   7.427   6.568  10.332  0.1855  0.0278 -0.0213
  275loPI   C2B 4398   7.383   6.676  10.029  0.0972 -0.2892 -0.0932
  275loPI   C3B 4399   7.415   6.750   9.607 -0.0836  0.1793 -0.2381
  275loPI   C4B 4400   7.470   6.832   9.227 -0.2158 -0.3329  0.1519
  276loPI    C1 4401   3.554  12.221  11.464 -0.0281  0.0379 -0.0106
  276loPI    C2 4402   3.634  12.582  11.618  0.1369 -0.1045  0.2466
  276loPI    C3 4403   3.328  12.367  11.760 -0.0065 -0.0377  0.0435
  276loPI   PO4 4404   3.686  12.278  11.224  0.1065  0.2204 -0.0396
  276loPI   GL1 4405   3.615  12.535  10.952 -0.3231 -0.3220 -0.1117
  276loPI   GL2 4406   3.393  12.391  10.746 -0.0685 -0.2154 -0.0688
  276loPI   C1A 4407   3.824  12.578  10.529  0.4269 -0.1754 -0.3369
  276loPI   C2A 4408   3.867  12.598  10.100 -0.2718  0.0246 -0.0337
  276loPI   C3A 4409   3.715  12.589   9.692 -0.1651 -0.0914 -0.0813
  276loPI   C4A 4410   3.682  12.674   9.217 -0.0597  0.0589 -0.3674
  276loPI   C5A 4411   3.785  12.690   8.786  0.1276  0.0986  0.0877
  276loPI   C6A 4412   3.458  12.588   8.497  0.1668  0.0410 -0.1513
  276loPI   C1B 4413   3.406  12.400  10.305 -0.0666  0.5473  0.0706
  276loPI   C2B 4414   3.250  12.439   9.882  0.0891 -0.0216  0.1470
  276loPI   C3B 4415   3.227  12.441   9.417 -0.0847  0.0698  0.1551
  276loPI   C4B 4416   3.240  12.522   8.942  0.0100  0.0989 -0.1061
  277loPI    C1 4417   0.385   2.842  11.185  0.0720 -0.1620  0.0601
  277loPI    C2 4418   0.488   2.992  11.541 -0.1593 -0.0119  0.0655
  277loPI    C3 4419   0.362   2.613  11.513 -0.0801 -0.0436  0.1331
  277loPI   PO4 4420   0.322   3.016  11.059 -0.0468  0.0679 -0.0539
  277loPI   GL1 4421   0.369   3.101  10.706  0.1307  0.1751  0.3694
  277loPI   GL2 4422   0.667   3.190  10.710 -0.2063 -0.1307  0.2408
  277loPI   C1A 4423   0.126   3.081  10.290 -0.4505  0.0379 -0.2313
  277loPI   C2A 4424   0.215   3.091   9.830 -0.1212 -0.1882  0.1252
  277loPI   C3A 4425   0.249   3.101   9.404  0.1122 -0.0324 -0.1626
  277loPI   C4A 4426   0.221   3.211   8.985  0.1408 -0.0650 -0.2149
  277loPI   C5A 4427   0.400   2.978   8.697  0.2206  0.0013 -0.0861
  277loPI   C6A 4428   0.645   2.894   8.355 -0.1128  0.0497  0.0106
  277loPI   C1B 4429   0.664   3.229  10.286 -0.1403  0.0088 -0.1600
  277loPI   C2B 4430   0.762   3.147   9.890 -0.0986 -0.2857 -0.1157
  277loPI   C3B 4431   0.749   3.139   9.440 -0.0627 -0.1764 -0.1098
  277loPI   C4B 4432   0.742   3.236   8.997  0.0252 -0.1602  0.1112
  278loPI    C1 4433  13.122  15.202  11.650 -0.0449  0.1894 -0.0319
  278loPI    C2 4434  12.869  15.445  11.843 -0.2112 -0.1694  0.2128
  278loPI    C3 4435  13.068  15.163  12.045  0.1691 -0.0793 -0.0263
  278loPI   PO4 4436  13.019  15.314  11.377 -0.3849 -0.4159 -0.0637
  278loPI   GL1 4437  13.262  15.198  11.063 -0.0438 -0.2184 -0.2804
  278loPI   GL2 4438  13.554  15.042  10.972 -0.1502  0.0363 -0.3660
  278loPI   C1A 4439  13.018  15.426  10.775 -0.1359 -0.0283 -0.0630
  278loPI   C2A 4440  13.114  15.596  10.347  0.1636  0.3171 -0.0943
  278loPI   C3A 4441  13.078  15.524   9.940  0.0074  0.1296  0.3169
  278loPI   C4A 4442  13.141  15.606   9.622  0.0357 -0.0962 -0.0404
  278loPI   C5A 4443  13.097  15.663   9.177 -0.1463  0.0042  0.0131
  278loPI   C6A 4444  13.103  15.949   8.881  0.0324 -0.0031  0.0149
  278loPI   C1B 4445  13.457  15.167  10.596  0.1225  0.1028  0.0301
  278loPI   C2B 4446  13.471  15.194  10.166  0.2894 -0.0440  0.1621
  278loPI   C3B 4447  13.488  15.252   9.664 -0.0894 -0.0366 -0.0637
  278loPI   C4B 4448  13.473  15.266   9.248 -0.1781  0.0489 -0.0507
  279loPI    C1 4449   0.174  15.794  11.821 -0.0634 -0.0508  0.1705
  279loPI    C2 4450  -0.056  15.468  11.787 -0.0533 -0.0549  0.1415
  279loPI    C3 4451   0.331  15.431  11.882 -0.0289 -0.0578  0.0421
  279loPI   PO4 4452   0.190  15.856  11.599 -0.0529 -0.1913  0.1730
  279loPI   GL1 4453   0.235  16.009  11.161 -0.1025  0.1309  0.0662
  279loPI   GL2 4454   0.420  15.992  10.857  0.0066  0.0146  0.3956
  279loPI   C1A 4455  -0.043  16.082  10.733  0.1374  0.0678  0.1204
  279loPI   C2A 4456  -0.098  16.141  10.249  0.1154  0.2255 -0.2752
  279loPI   C3A 4457   0.039  16.067   9.820 -0.1396 -0.1548 -0.1283
  279loPI   C4A 4458   0.009  16.109   9.398  0.2299 -0.0030  0.1604
  279loPI   C5A 4459  -0.051  16.123   8.975  0.0071 -0.3978  0.0317
  279loPI   C6A 4460  -0.023  16.008   8.642 -0.1566 -0.1353 -0.0756
  279loPI   C1B 4461   0.388  15.737  10.559 -0.0999  0.3897  0.0500
  279loPI   C2B 4462   0.354  15.741  10.182 -0.0425  0.1676  0.2264
  279loPI   C3B 4463   0.415  15.747   9.715  0.1799 -0.1224  0.3034
  279loPI   C4B 4464   0.334  15.797   9.287  0.1866 -0.0736  0.3547
  280loPI    C1 4465  14.829  16.633  11.826  0.1017  0.0408 -0.1002
  280loPI    C2 4466  14.475  16.733  11.982 -0.0130 -0.1090 -0.2607
  280loPI    C3 4467  14.760  17.010  11.940 -0.0007 -0.0526  0.1537
  280loPI   PO4 4468  14.873  16.576  11.665 -0.0415  0.2733 -0.0614
  280loPI   GL1 4469  14.712  16.549  11.287  0.0919  0.0688  0.1086
  280loPI   GL2 4470  15.104  16.548  11.200 -0.0608 -0.1243  0.0868
  280loPI   C1A 4471  14.590  16.532  10.903  0.0347 -0.1016  0.2876
  280loPI   C2A 4472  14.652  16.506  10.444  0.1469 -0.1376  0.0325
  280loPI   C3A 4473  14.584  16.610  10.007 -0.2692 -0.0717 -0.1907
  280loPI   C4A 4474  14.640  16.610   9.561 -0.0544  0.2330 -0.3304
  280loPI   C5A 4475  14.734  16.666   9.083 -0.1701 -0.2892 -0.0764
  280loPI   C6A 4476  15.170  16.794   8.968 -0.1234  0.2900  0.1284
  280loPI   C1B 4477  15.070  16.611  10.731 -0.0891  0.1108 -0.1198
  280loPI   C2B 4478  15.174  16.712  10.422 -0.1505  0.2061  0.2268
  280loPI   C3B 4479  15.086  16.671   9.894  0.0109 -0.1623 -0.2484
  280loPI   C4B 4480  15.154  16.680   9.451 -0.1655 -0.3324 -0.1726
  281loPI    C1 4481   3.791   5.559  11.549  0.0944 -0.0098 -0.2806
  281loPI    C2 4482   3.446   5.357  11.521 -0.0861  0.2215  0.1706
  281loPI    C3 4483   3.766   5.186  11.690  0.0049  0.0321 -0.1840
  281loPI   PO4 4484   3.741   5.644  11.246 -0.0762  0.2831 -0.0951
  281loPI   GL1 4485   3.957   5.557  10.901 -0.0549 -0.1817 -0.0055
  281loPI   GL2 4486   4.186   5.350  10.755 -0.0660  0.2439 -0.0155
  281loPI   C1A 4487   3.848   5.555  10.442  0.1646  0.1287 -0.1800
  281loPI   C2A 4488   3.947   5.709  10.068 -0.1852 -0.0331 -0.0953
  281loPI   C3A 4489   4.025   5.786   9.652  0.0299  0.1323 -0.1762
  281loPI   C4A 4490   3.996   5.790   9.236  0.1758 -0.1240 -0.0094
  281loPI   C5A 4491   3.901   5.809   8.729  0.0258  0.3060 -0.2257
  281loPI   C6A 4492   3.907   5.551   8.380 -0.1194 -0.0969 -0.0524
  281loPI   C1B 4493   4.283   5.282  10.309 -0.1405 -0.0317 -0.0253
  281loPI   C2B 4494   4.311   5.308   9.928  0.0705  0.1938 -0.0769
  281loPI   C3B 4495   4.401   5.357   9.539 -0.1216  0.4054  0.1115
  281loPI   C4B 4496   4.348   5.408   9.152  0.1257  0.2863 -0.2790
  282loPI    C1 4497  16.819  12.331  11.204  0.1377 -0.0583 -0.0616
  282loPI    C2 4498  16.995  12.187  11.533  0.3183  0.0913 -0.0912
  282loPI    C3 4499  16.635  12.360  11.559  0.0846 -0.3824 -0.0593
  282loPI   PO4 4500  16.822  12.160  11.045  0.0943  0.0457 -0.1463
  282loPI   GL1 4501  16.713  12.280  10.635 -0.1013 -0.2827 -0.0736
  282loPI   GL2 4502  16.415  12.521  10.532  0.3177  0.1918  0.0223
  282loPI   C1A 4503  16.883  12.169  10.201 -0.1405  0.0816  0.1100
  282loPI   C2A 4504  16.886  12.106   9.738  0.0742  0.2084 -0.1754
  282loPI   C3A 4505  16.877  12.105   9.335 -0.1158 -0.1197 -0.0158
  282loPI   C4A 4506  16.774  12.035   8.837 -0.0776  0.2412  0.3611
  282loPI   C5A 4507  16.574  12.002   8.464  0.0759  0.1312 -0.0200
  282loPI   C6A 4508  16.878  11.955   8.146 -0.0994  0.1178  0.3352
  282loPI   C1B 4509  16.526  12.573  10.130 -0.2137  0.2789  0.2482
  282loPI   C2B 4510  16.513  12.476   9.681  0.1583  0.0272 -0.2306
  282loPI   C3B 4511  16.510  12.385   9.291  0.0173  0.1706 -0.5749
  282loPI   C4B 4512  16.406  12.339   8.858  0.1638 -0.0065  0.0903
  283loPI    C1 4513  17.533   1.672  11.526  0.1296  0.1220 -0.0524
  283loPI    C2 4514  17.746   1.695  11.864  0.0394 -0.0276  0.0155
  283loPI    C3 4515  17.465   1.968  11.786 -0.0062 -0.0479  0.1080
  283loPI   PO4 4516  17.667   1.648  11.279  0.0731  0.2713 -0.1319
  283loPI   GL1 4517  17.482   1.467  10.973  0.2286 -0.0894 -0.2086
  283loPI   GL2 4518  17.378   1.104  10.908 -0.3068 -0.0538  0.2826
  283loPI   C1A 4519  17.522   1.585  10.524 -0.0207 -0.2686 -0.0316
  283loPI   C2A 4520  17.497   1.541  10.092  0.1921 -0.0453 -0.0905
  283loPI   C3A 4521  17.590   1.536   9.713  0.1713 -0.1298 -0.0461
  283loPI   C4A 4522  17.589   1.542   9.275  0.4816 -0.2119 -0.1306
  283loPI   C5A 4523  17.715   1.714   8.895  0.0829 -0.0209  0.2919
  283loPI   C6A 4524  17.652   1.636   8.542 -0.2056  0.1827  0.0571
  283loPI   C1B 4525  17.410   1.031  10.463  0.0233 -0.0286 -0.3039
  283loPI   C2B 4526  17.449   1.031  10.014 -0.0468 -0.0408 -0.1632
  283loPI   C3B 4527  17.474   1.087   9.607 -0.2510  0.0163  0.0651
  283loPI   C4B 4528  17.500   1.059   9.142  0.0289  0.2210 -0.2644
  284loPI    C1 4529  13.984  14.644  11.647 -0.1909  0.0498 -0.0780
  284loPI    C2 4530  13.944  14.728  12.037 -0.1205  0.0730 -0.0757
  284loPI    C3 4531  13.950  14.347  11.913 -0.0543  0.0636 -0.0444
  284loPI   PO4 4532  13.894  14.819  11.534 -0.0086 -0.2621 -0.1056
  284loPI   GL1 4533  13.959  14.800  11.101  0.0822 -0.1956  0.0079
  284loPI   GL2 4534  14.263  14.905  10.856  0.1724  0.0246  0.1170
  284loPI   C1A 4535  13.862  14.767  10.670  0.1970  0.1814 -0.0108
  284loPI   C2A 4536  13.823  14.857  10.268  0.1200 -0.0652 -0.0443
  284loPI   C3A 4537  13.805  14.903   9.803 -0.0288  0.1642 -0.0796
  284loPI   C4A 4538  13.865  14.873   9.441  0.2275  0.1428  0.1098
  284loPI   C5A 4539  13.767  14.902   8.982 -0.1602 -0.1369 -0.1653
  284loPI   C6A 4540  13.815  15.253   8.658  0.1051 -0.0888 -0.3574
  284loPI   C1B 4541  14.406  14.998  10.417  0.1102 -0.1488  0.1344
  284loPI   C2B 4542  14.311  15.053   9.979  0.0642 -0.0431 -0.0077
  284loPI   C3B 4543  14.375  15.056   9.566 -0.0061 -0.1222 -0.0392
  284loPI   C4B 4544  14.277  14.982   9.187 -0.1584 -0.1037  0.0699
  285loPI    C1 4545  15.630  16.106  11.914 -0.0873 -0.2365  0.0439
  285loPI    C2 4546  15.966  15.898  11.975  0.1816  0.1740 -0.0009
  285loPI    C3 4547  15.846  16.168  12.245 -0.2172 -0.0999  0.1043
  285loPI   PO4 4548  15.639  16.102  11.567 -0.1055 -0.1004 -0.0534
  285loPI   GL1 4549  15.446  16.099  11.237  0.1215 -0.0109 -0.2601
  285loPI   GL2 4550  15.818  15.840  11.145  0.1835  0.0424  0.0268
  285loPI   C1A 4551  15.470  16.255  10.875 -0.2496  0.1766  0.0922
  285loPI   C2A 4552  15.541  16.371  10.521  0.5200 -0.1867  0.2941
  285loPI   C3A 4553  15.511  16.380  10.094  0.1927  0.0698  0.1357
  285loPI   C4A 4554  15.570  16.388   9.660 -0.0658 -0.3137  0.0081
  285loPI   C5A 4555  15.545  16.361   9.275 -0.1628  0.0368  0.3786
  285loPI   C6A 4556  15.517  16.363   8.853  0.1130 -0.3405  0.2177
  285loPI   C1B 4557  15.916  15.902  10.788  0.2994  0.0298 -0.1246
  285loPI   C2B 4558  15.868  16.025  10.345 -0.0895 -0.2579 -0.1453
  285loPI   C3B 4559  15.885  15.991   9.876  0.0162 -0.0577  0.1125
  285loPI   C4B 4560  15.871  16.026   9.500 -0.2440  0.2552 -0.1267
  286loPI    C1 4561   8.060   3.353  11.096 -0.2192 -0.0795  0.1347
  286loPI    C2 4562   7.729   3.331  11.318 -0.1707  0.0006  0.2156
  286loPI    C3 4563   8.035   3.084  11.391 -0.1798 -0.0166  0.1958
  286loPI   PO4 4564   7.993   3.423  10.895 -0.0386 -0.0494 -0.1475
  286loPI   GL1 4565   7.965   3.558  10.494 -0.1198 -0.1743 -0.0270
  286loPI   GL2 4566   7.738   3.429  10.460  0.1509  0.0752 -0.1878
  286loPI   C1A 4567   8.073   3.576  10.094  0.4634 -0.2260 -0.1538
  286loPI   C2A 4568   8.110   3.639   9.597 -0.2683 -0.1432  0.1442
  286loPI   C3A 4569   8.111   3.753   9.202 -0.0737 -0.0961 -0.4258
  286loPI   C4A 4570   7.969   3.810   8.782 -0.4145 -0.0816 -0.0547
  286loPI   C5A 4571   8.076   4.025   8.419 -0.2714 -0.2146 -0.1429
  286loPI   C6A 4572   7.942   4.082   8.042 -0.0620 -0.2336  0.0212
  286loPI   C1B 4573   7.550   3.434  10.073  0.0662 -0.0416  0.1690
  286loPI   C2B 4574   7.617   3.538   9.592 -0.3802 -0.0083 -0.0052
  286loPI   C3B 4575   7.613   3.635   9.223 -0.1588  0.0462  0.2035
  286loPI   C4B 4576   7.427   3.571   8.763  0.1401 -0.3746  0.2453
  287loPI    C1 4577   0.436   0.502  11.681  0.1156 -0.1127  0.1138
  287loPI    C2 4578   0.105   0.455  11.900 -0.0494  0.0263 -0.1026
  287loPI    C3 4579   0.464   0.395  12.065 -0.1840 -0.1987  0.1136
  287loPI   PO4 4580   0.301   0.572  11.399 -0.0355  0.3618 -0.0817
  287loPI   GL1 4581   0.390   0.572  10.985 -0.0100  0.2242  0.0859
  287loPI   GL2 4582   0.355   0.874  10.991  0.0230  0.0347  0.3836
  287loPI   C1A 4583   0.412   0.323  10.545  0.0604  0.1342 -0.1654
  287loPI   C2A 4584   0.409   0.306  10.107 -0.1823 -0.2247  0.0670
  287loPI   C3A 4585   0.366   0.381   9.705 -0.3322  0.2459  0.1663
  287loPI   C4A 4586   0.501   0.426   9.294  0.0144  0.3844  0.0594
  287loPI   C5A 4587   0.633   0.354   8.873 -0.1452 -0.0544 -0.4046
  287loPI   C6A 4588   0.743   0.333   8.389  0.0847  0.0364  0.1199
  287loPI   C1B 4589   0.458   0.900  10.538  0.1866 -0.2455 -0.0832
  287loPI   C2B 4590   0.514   0.848  10.055  0.1262 -0.0703 -0.2027
  287loPI   C3B 4591   0.532   0.834   9.644  0.1682 -0.0257  0.1741
  287loPI   C4B 4592   0.552   0.889   9.170  0.3011 -0.0844  0.0635
  288loPI    C1 4593   3.881   9.985  11.362  0.1057  0.0207 -0.0066
  288loPI    C2 4594   4.267  10.019  11.261  0.0553  0.3042 -0.1117
  288loPI    C3 4595   4.105  10.274  11.524 -0.0375  0.1250  0.0074
  288loPI   PO4 4596   3.754   9.899  11.181 -0.1562  0.0270 -0.1338
  288loPI   GL1 4597   3.717   9.852  10.845 -0.1221 -0.3577 -0.0159
  288loPI   GL2 4598   3.984   9.966  10.724  0.2486  0.0419 -0.0917
  288loPI   C1A 4599   3.631   9.731  10.412 -0.0877 -0.4599 -0.2864
  288loPI   C2A 4600   3.552   9.727  10.003 -0.0843  0.2062 -0.0374
  288loPI   C3A 4601   3.584   9.756   9.568 -0.0388  0.0736  0.1487
  288loPI   C4A 4602   3.546   9.731   9.178  0.1831  0.0312 -0.1325
  288loPI   C5A 4603   3.735   9.810   8.746 -0.1678  0.1566  0.1261
  288loPI   C6A 4604   4.079   9.988   8.478 -0.0158  0.1494  0.1946
  288loPI   C1B 4605   4.089   9.972  10.381  0.2253  0.1171 -0.2641
  288loPI   C2B 4606   4.064   9.927   9.983  0.1557  0.0383 -0.0212
  288loPI   C3B 4607   4.053   9.904   9.563  0.1408  0.3038  0.0704
  288loPI   C4B 4608   4.045   9.963   9.148  0.0367  0.0504 -0.1634
  289loPI    C1 4609   1.975  11.098  11.516 -0.0639  0.1179  0.0875
  289loPI    C2 4610   1.680  11.280  11.715 -0.2257 -0.1280  0.0770
  289loPI    C3 4611   2.044  11.252  11.879 -0.1185  0.4490 -0.0388
  289loPI   PO4 4612   1.924  11.279  11.268 -0.3205  0.1691 -0.1237
  289loPI   GL1 4613   2.110  11.341  10.906  0.0771  0.3036 -0.0917
  289loPI   GL2 4614   2.144  11.013  10.771  0.0280  0.3340  0.2617
  289loPI   C1A 4615   2.122  11.544  10.535 -0.0978 -0.0108  0.2099
  289loPI   C2A 4616   2.207  11.636  10.208 -0.0545  0.1078  0.0686
  289loPI   C3A 4617   2.155  11.641   9.808 -0.2744  0.0105  0.1128
  289loPI   C4A 4618   2.137  11.642   9.378  0.2868 -0.1852 -0.1408
  289loPI   C5A 4619   2.199  11.714   9.006  0.2782  0.0335 -0.0257
  289loPI   C6A 4620   2.416  11.688   8.633 -0.0384 -0.0301 -0.0918
  289loPI   C1B 4621   2.047  11.019  10.375 -0.4101  0.2253 -0.2960
  289loPI   C2B 4622   2.062  11.127   9.915 -0.3044 -0.2919  0.0033
  289loPI   C3B 4623   1.997  11.162   9.465 -0.0925  0.1165 -0.1689
  289loPI   C4B 4624   2.093  11.156   9.049  0.0600  0.2108  0.2452
  290loPI    C1 4625  16.460   9.196  11.451  0.0292 -0.1082 -0.0649
  290loPI    C2 4626  16.808   9.247  11.642  0.0807 -0.2929 -0.1067
  290loPI    C3 4627  16.477   9.159  11.849  0.0576 -0.1183 -0.0671
  290loPI   PO4 4628  16.474   9.128  11.217 -0.0330 -0.0743 -0.1289
  290loPI   GL1 4629  16.477   8.817  10.970  0.0038  0.2614  0.1896
  290loPI   GL2 4630  16.177   8.962  10.836 -0.1524 -0.0583  0.1632
  290loPI   C1A 4631  16.495   8.727  10.480  0.0259  0.2012 -0.1286
  290loPI   C2A 4632  16.514   8.714  10.025  0.0385 -0.1685 -0.2004
  290loPI   C3A 4633  16.488   8.748   9.698  0.0728 -0.1282  0.3635
  290loPI   C4A 4634  16.563   8.671   9.339  0.1318  0.4900  0.1147
  290loPI   C5A 4635  16.594   8.663   8.884  0.0178  0.1679  0.3179
  290loPI   C6A 4636  16.757   8.405   8.413  0.1387 -0.0999 -0.1458
  290loPI   C1B 4637  16.179   9.068  10.404 -0.0421 -0.2132  0.0648
  290loPI   C2B 4638  16.174   9.066   9.879 -0.3680 -0.1047  0.0195
  290loPI   C3B 4639  16.095   9.150   9.476 -0.2280  0.0753  0.2175
  290loPI   C4B 4640  16.230   8.964   9.086  0.3746 -0.2420 -0.0583
  291loPI    C1 4641  16.537   9.740  11.480 -0.1103  0.0943 -0.1170
  291loPI    C2 4642  16.437  10.020  11.748  0.1560 -0.0306  0.1184
  291loPI    C3 4643  16.584   9.668  11.871 -0.1385 -0.2631 -0.1759
  291loPI   PO4 4644  16.331   9.667  11.265  0.2661 -0.0803  0.1684
  291loPI   GL1 4645  16.426   9.431  10.860 -0.1553 -0.0917 -0.2963
  291loPI   GL2 4646  16.137   9.475  10.700 -0.0861  0.0630  0.1495
  291loPI   C1A 4647  16.598   9.295  10.512 -0.1528  0.1461 -0.3250
  291loPI   C2A 4648  16.625   9.251  10.089  0.0240  0.2185  0.1171
  291loPI   C3A 4649  16.642   9.269   9.676  0.0995  0.2612 -0.0126
  291loPI   C4A 4650  16.636   9.206   9.330 -0.1482 -0.1133 -0.1590
  291loPI   C5A 4651  16.686   9.194   8.925 -0.0969  0.2026  0.0438
  291loPI   C6A 4652  16.477   9.025   8.553  0.0188 -0.0574  0.1223
  291loPI   C1B 4653  16.191   9.535  10.309  0.0860  0.3638 -0.1187
  291loPI   C2B 4654  16.231   9.585   9.888 -0.0189 -0.2014 -0.0541
  291loPI   C3B 4655  16.314   9.608   9.487  0.1057 -0.0015  0.4966
  291loPI   C4B 4656  16.331   9.518   9.090  0.0981  0.0660 -0.5076
  292loPI    C1 4657   7.336  17.104  11.373 -0.2796 -0.0982  0.1568
  292loPI    C2 4658   7.106  17.283  11.646  0.0051  0.0055  0.3327
  292loPI    C3 4659   7.485  17.190  11.734  0.0977  0.0323 -0.0245
  292loPI   PO4 4660   7.260  16.924  11.287  0.3268  0.0099 -0.2751
  292loPI   GL1 4661   7.180  16.709  10.873  0.0459 -0.1128  0.2596
  292loPI   GL2 4662   7.103  16.950  10.812  0.3143  0.2898 -0.1099
  292loPI   C1A 4663   7.221  16.505  10.514 -0.0638 -0.2593  0.0063
  292loPI   C2A 4664   7.310  16.462  10.090 -0.0407 -0.1385  0.0573
  292loPI   C3A 4665   7.452  16.516   9.707  0.0318  0.0121  0.1755
  292loPI   C4A 4666   7.327  16.534   9.160 -0.1328 -0.0735  0.1485
  292loPI   C5A 4667   7.259  16.579   8.794 -0.3071  0.0475 -0.0712
  292loPI   C6A 4668   7.429  16.344   8.489 -0.0995  0.0167  0.1958
  292loPI   C1B 4669   6.925  16.877  10.391 -0.0756 -0.1056  0.0748
  292loPI   C2B 4670   6.990  16.817   9.952 -0.3067  0.1641  0.2484
  292loPI   C3B 4671   7.049  16.849   9.432 -0.1551  0.2628 -0.0010
  292loPI   C4B 4672   6.963  16.937   9.023 -0.2523  0.5801 -0.1310
  293loPI    C1 4673   6.233  13.413  11.232  0.1335 -0.1860 -0.0050
  293loPI    C2 4674   6.349  13.344  11.609 -0.1194  0.0106  0.1117
  293loPI    C3 4675   5.959  13.357  11.518 -0.0598 -0.1015 -0.1709
  293loPI   PO4 4676   6.376  13.296  11.103  0.0670  0.0210  0.4572
  293loPI   GL1 4677   6.384  13.228  10.687  0.1405  0.0514 -0.1216
  293loPI   GL2 4678   6.692  13.483  10.792  0.2128 -0.1207 -0.0342
  293loPI   C1A 4679   6.294  13.321  10.224 -0.0050 -0.2730  0.1434
  293loPI   C2A 4680   6.271  13.303   9.780 -0.2743  0.2192 -0.2219
  293loPI   C3A 4681   6.160  13.405   9.366  0.3642  0.1714  0.2508
  293loPI   C4A 4682   6.224  13.363   8.889 -0.0159 -0.3657  0.0755
  293loPI   C5A 4683   6.219  13.267   8.462  0.0650  0.3158 -0.0322
  293loPI   C6A 4684   6.402  13.195   8.155  0.1770 -0.0005 -0.0792
  293loPI   C1B 4685   6.806  13.453  10.387  0.1581 -0.1969  0.2180
  293loPI   C2B 4686   6.745  13.477   9.932 -0.1023 -0.2903 -0.4178
  293loPI   C3B 4687   6.696  13.481   9.423 -0.5913  0.0908 -0.2514
  293loPI   C4B 4688   6.706  13.623   9.071 -0.0648  0.1399 -0.0645
  294loPI    C1 4689   5.262   2.506  11.458  0.1674 -0.0566 -0.0292
  294loPI    C2 4690   5.579   2.704  11.598  0.1735 -0.0120 -0.1054
  294loPI    C3 4691   5.217   2.873  11.609  0.1312 -0.1131  0.0983
  294loPI   PO4 4692   5.240   2.453  11.232  0.0523 -0.2138  0.0576
  294loPI   GL1 4693   5.377   2.270  10.830  0.0217  0.1384 -0.0012
  294loPI   GL2 4694   5.083   2.219  10.751 -0.0884  0.1033 -0.0589
  294loPI   C1A 4695   5.472   2.442  10.500 -0.0809  0.1192  0.1994
  294loPI   C2A 4696   5.437   2.496  10.093  0.0222  0.0567  0.1140
  294loPI   C3A 4697   5.463   2.445   9.663  0.0656  0.0283 -0.2529
  294loPI   C4A 4698   5.505   2.503   9.233 -0.0794  0.1376  0.0961
  294loPI   C5A 4699   5.396   2.552   8.811  0.0312  0.0756  0.0375
  294loPI   C6A 4700   5.284   2.622   8.394  0.0165 -0.0900 -0.0618
  294loPI   C1B 4701   5.084   2.201  10.286 -0.2228  0.2150  0.0081
  294loPI   C2B 4702   5.014   2.271   9.884  0.1876 -0.0683  0.1548
  294loPI   C3B 4703   5.007   2.305   9.425  0.0696  0.1458  0.0656
  294loPI   C4B 4704   4.968   2.250   8.989 -0.3781 -0.3002  0.0796
  295loPI    C1 4705   9.194  15.936  11.759  0.0287  0.0524 -0.2569
  295loPI    C2 4706   9.284  16.256  11.981  0.2840 -0.2913  0.1513
  295loPI    C3 4707   8.921  16.090  12.007  0.0952  0.0549 -0.1844
  295loPI   PO4 4708   9.339  15.891  11.474  0.1973 -0.0389 -0.0715
  295loPI   GL1 4709   9.121  16.070  11.069 -0.1909 -0.0680 -0.0414
  295loPI   GL2 4710   9.430  16.266  10.967 -0.1062  0.3299 -0.2961
  295loPI   C1A 4711   9.113  16.141  10.615  0.0599  0.0023 -0.0743
  295loPI   C2A 4712   9.053  16.095  10.187  0.1513 -0.0613  0.0267
  295loPI   C3A 4713   9.152  16.175   9.754  0.3955  0.1437 -0.0031
  295loPI   C4A 4714   9.208  16.240   9.359 -0.0677 -0.0804 -0.3127
  295loPI   C5A 4715   8.978  16.028   8.963  0.0120  0.0632  0.0630
  295loPI   C6A 4716   9.128  15.622   8.857  0.3424  0.0646 -0.2476
  295loPI   C1B 4717   9.616  16.264  10.576 -0.2149  0.2631  0.3534
  295loPI   C2B 4718   9.560  16.246  10.105 -0.3079 -0.1392 -0.1219
  295loPI   C3B 4719   9.647  16.350   9.758  0.1718  0.1660  0.2846
  295loPI   C4B 4720   9.668  16.283   9.338  0.0705 -0.0970  0.3365
  296loPI    C1 4721   0.898  14.703  11.611 -0.2628 -0.0375  0.1665
  296loPI    C2 4722   1.075  15.061  11.636 -0.1583 -0.0765  0.0007
  296loPI    C3 4723   1.099  14.805  11.942 -0.1460  0.0178  0.0794
  296loPI   PO4 4724   0.740  14.770  11.447 -0.0129  0.2475 -0.1045
  296loPI   GL1 4725   0.707  14.864  11.113  0.0703 -0.0372  0.0959
  296loPI   GL2 4726   0.972  14.919  10.940 -0.0978  0.3545  0.2716
  296loPI   C1A 4727   0.549  14.893  10.585 -0.1918  0.1438  0.1243
  296loPI   C2A 4728   0.650  14.889  10.174 -0.4407 -0.0701 -0.1515
  296loPI   C3A 4729   0.637  14.907   9.772  0.0719 -0.0804 -0.0015
  296loPI   C4A 4730   0.730  14.842   9.366  0.1617 -0.0767  0.2835
  296loPI   C5A 4731   0.805  14.627   8.973 -0.4663 -0.0511 -0.2044
  296loPI   C6A 4732   0.578  14.367   8.725 -0.3607  0.0329  0.4037
  296loPI   C1B 4733   1.138  15.049  10.556 -0.1807 -0.0271  0.0348
  296loPI   C2B 4734   1.130  14.978  10.070 -0.1553 -0.1822 -0.1748
  296loPI   C3B 4735   1.126  15.044   9.547 -0.0885 -0.0798  0.3838
  296loPI   C4B 4736   1.150  14.987   9.098 -0.0431 -0.1308  0.0743
  297loPI    C1 4737   0.677  14.237  11.599  0.0051 -0.0640  0.0712
  297loPI    C2 4738   0.552  14.035  11.921  0.1880 -0.0677  0.1412
  297loPI    C3 4739   0.620  14.428  11.946 -0.0087 -0.0262  0.0481
  297loPI   PO4 4740   0.560  14.006  11.385  0.0637 -0.0645  0.1142
  297loPI   GL1 4741   0.621  13.772  10.955 -0.0479 -0.1622 -0.0272
  297loPI   GL2 4742   0.874  13.600  10.805 -0.1731 -0.0402  0.2311
  297loPI   C1A 4743   0.445  13.910  10.487  0.1894  0.0466 -0.0435
  297loPI   C2A 4744   0.412  13.834  10.145 -0.2610 -0.0383  0.0393
  297loPI   C3A 4745   0.447  13.964   9.792  0.3572 -0.0494 -0.0954
  297loPI   C4A 4746   0.370  13.913   9.310  0.0125 -0.0687  0.1024
  297loPI   C5A 4747   0.484  13.936   8.930 -0.1642 -0.1417 -0.0034
  297loPI   C6A 4748   0.477  13.990   8.440  0.2678 -0.1627 -0.3278
  297loPI   C1B 4749   0.816  13.538  10.384 -0.0992  0.2503  0.3204
  297loPI   C2B 4750   0.764  13.524   9.935 -0.0533  0.1379 -0.2591
  297loPI   C3B 4751   0.779  13.581   9.504  0.2173  0.1563  0.3257
  297loPI   C4B 4752   0.776  13.560   9.060 -0.2228 -0.1374  0.0443
  298loPI    C1 4753  13.603   4.441  11.460  0.1261  0.0930 -0.0285
  298loPI    C2 4754  13.937   4.332  11.651  0.1776  0.1171 -0.1044
  298loPI    C3 4755  13.581   4.217  11.791  0.2113  0.1950  0.0471
  298loPI   PO4 4756  13.718   4.359  11.178  0.2070 -0.3524 -0.2792
  298loPI   GL1 4757  13.930   4.548  10.906 -0.2359  0.1523 -0.0377
  298loPI   GL2 4758  13.581   4.635  10.783  0.1494  0.0542  0.1675
  298loPI   C1A 4759  14.155   4.648  10.508 -0.0536  0.0557  0.1758
  298loPI   C2A 4760  14.235   4.736  10.143 -0.2018 -0.2608 -0.3595
  298loPI   C3A 4761  14.222   4.730   9.729 -0.2125 -0.0780 -0.3356
  298loPI   C4A 4762  14.190   4.775   9.303  0.0361  0.1256  0.0112
  298loPI   C5A 4763  14.205   4.668   8.872  0.2180 -0.2755 -0.1209
  298loPI   C6A 4764  14.226   4.278   8.565  0.0304 -0.0503  0.0752
  298loPI   C1B 4765  13.690   4.504  10.377  0.1936 -0.2469 -0.1385
  298loPI   C2B 4766  13.624   4.529   9.951  0.2913 -0.3778 -0.1057
  298loPI   C3B 4767  13.754   4.603   9.588 -0.0621 -0.2157  0.0464
  298loPI   C4B 4768  13.728   4.521   9.129 -0.0844  0.0807 -0.1515
  299loPI    C1 4769   5.617  16.252  11.408  0.1154 -0.1954  0.0967
  299loPI    C2 4770   5.387  16.439  11.677  0.1250 -0.0683  0.0172
  299loPI    C3 4771   5.764  16.341  11.770  0.1456  0.0234  0.0317
  299loPI   PO4 4772   5.670  16.344  11.196 -0.0868 -0.0338  0.1386
  299loPI   GL1 4773   5.873  16.205  10.860 -0.2110  0.3031 -0.0462
  299loPI   GL2 4774   5.648  15.957  10.852 -0.2202 -0.0682  0.3086
  299loPI   C1A 4775   5.867  16.002  10.389 -0.1103 -0.0866 -0.0327
  299loPI   C2A 4776   5.857  16.082   9.941 -0.1273  0.2784  0.1706
  299loPI   C3A 4777   5.936  16.135   9.449 -0.1381 -0.1080  0.2799
  299loPI   C4A 4778   5.800  16.141   8.980 -0.2210 -0.2550  0.0798
  299loPI   C5A 4779   5.562  16.327   8.622 -0.2599 -0.1264  0.3188
  299loPI   C6A 4780   5.772  16.407   8.309  0.1742 -0.1395 -0.0288
  299loPI   C1B 4781   5.447  15.794  10.415 -0.1461 -0.2029  0.1256
  299loPI   C2B 4782   5.385  15.857   9.982  0.0390  0.1633 -0.0264
  299loPI   C3B 4783   5.407  15.941   9.555 -0.1672 -0.3861 -0.0292
  299loPI   C4B 4784   5.328  15.925   9.077  0.0575  0.0671  0.5390
  300loPI    C1 4785   1.804  14.599  11.613 -0.1199  0.0166 -0.0820
  300loPI    C2 4786   1.526  14.609  11.899 -0.0792  0.3790 -0.0512
  300loPI    C3 4787   1.909  14.552  11.996 -0.1251 -0.0054 -0.0833
  300loPI   PO4 4788   1.767  14.448  11.337 -0.2129  0.4196  0.1674
  300loPI   GL1 4789   1.723  14.735  10.998  0.2112 -0.1584  0.1897
  300loPI   GL2 4790   1.902  14.948  10.920  0.0235 -0.2560  0.1692
  300loPI   C1A 4791   1.497  14.679  10.689 -0.1541  0.0814  0.4335
  300loPI   C2A 4792   1.494  14.667  10.224  0.1283 -0.1641  0.2273
  300loPI   C3A 4793   1.500  14.712   9.821 -0.2777  0.0551  0.2648
  300loPI   C4A 4794   1.550  14.671   9.306  0.2446  0.0086  0.1968
  300loPI   C5A 4795   1.563  14.766   8.866  0.1875 -0.1305  0.0876
  300loPI   C6A 4796   1.480  14.619   8.390 -0.0385 -0.0661  0.2555
  300loPI   C1B 4797   1.980  14.814  10.421  0.0895 -0.1003  0.1349
  300loPI   C2B 4798   1.966  14.860   9.980  0.2774  0.1510  0.0248
  300loPI   C3B 4799   1.998  14.831   9.459  0.0643 -0.2041 -0.0262
  300loPI   C4B 4800   2.026  14.866   9.076  0.4170 -0.2196  0.1946
  301loPI    C1 4801   7.638   4.919  11.406 -0.2316 -0.4858 -0.1357
  301loPI    C2 4802   7.349   4.787  11.648 -0.1689 -0.1463  0.1322
  301loPI    C3 4803   7.656   4.995  11.798 -0.1218  0.0596 -0.2383
  301loPI   PO4 4804   7.742   4.768  11.230  0.0324  0.2227  0.1370
  301loPI   GL1 4805   7.625   4.700  10.844  0.1322 -0.0591  0.1004
  301loPI   GL2 4806   7.794   4.509  10.670 -0.3286 -0.2668 -0.0836
  301loPI   C1A 4807   7.483   4.786  10.406  0.3999 -0.2893 -0.0830
  301loPI   C2A 4808   7.351   4.805   9.967  0.3019  0.2812 -0.2704
  301loPI   C3A 4809   7.349   4.848   9.540  0.0927  0.1250 -0.0019
  301loPI   C4A 4810   7.422   4.992   9.205 -0.0316  0.0412 -0.4541
  301loPI   C5A 4811   7.364   4.974   8.787 -0.1545 -0.2796 -0.0068
  301loPI   C6A 4812   7.208   5.064   8.301 -0.2420  0.1326 -0.3323
  301loPI   C1B 4813   7.786   4.432  10.195 -0.1667 -0.3799  0.2957
  301loPI   C2B 4814   7.749   4.502   9.754  0.3353  0.0560  0.2074
  301loPI   C3B 4815   7.756   4.535   9.413 -0.2762  0.1580 -0.1629
  301loPI   C4B 4816   7.785   4.657   8.990  0.1605 -0.3207  0.2699
  302loPI    C1 4817  10.392   7.531  11.575  0.0177  0.0865 -0.0904
  302loPI    C2 4818  10.193   7.762  11.834 -0.1418 -0.0230 -0.1137
  302loPI    C3 4819  10.137   7.366  11.836 -0.2294 -0.0143 -0.3885
  302loPI   PO4 4820  10.264   7.465  11.358 -0.0081  0.0699 -0.0843
  302loPI   GL1 4821  10.400   7.591  10.964  0.1704 -0.0845  0.1277
  302loPI   GL2 4822  10.176   7.505  10.751  0.0219 -0.1677 -0.2192
  302loPI   C1A 4823  10.614   7.763  10.633 -0.1254 -0.1662 -0.0787
  302loPI   C2A 4824  10.889   7.728  10.240  0.0800 -0.1319  0.1642
  302loPI   C3A 4825  10.979   7.848   9.821 -0.1126 -0.1068  0.0634
  302loPI   C4A 4826  10.900   7.858   9.362 -0.1945 -0.1327 -0.0629
  302loPI   C5A 4827  10.909   7.914   8.933  0.0684  0.0113  0.0651
  302loPI   C6A 4828  10.587   8.045   8.682  0.0513 -0.2622 -0.1725
  302loPI   C1B 4829  10.380   7.543  10.294 -0.2105  0.0453  0.1453
  302loPI   C2B 4830  10.438   7.731   9.834  0.2652  0.0591 -0.1666
  302loPI   C3B 4831  10.374   7.636   9.371  0.1066  0.0669 -0.0494
  302loPI   C4B 4832  10.417   7.614   8.972  0.0505 -0.1907 -0.0705
  303loPI    C1 4833   3.094   0.448  11.742  0.2527 -0.1098 -0.0195
  303loPI    C2 4834   2.783   0.677  11.848  0.1759 -0.1321 -0.1927
  303loPI    C3 4835   2.807   0.299  11.977  0.3016 -0.0298  0.0919
  303loPI   PO4 4836   3.066   0.381  11.523  0.3131  0.2098  0.0504
  303loPI   GL1 4837   2.920   0.554  11.209 -0.0370  0.1841 -0.1635
  303loPI   GL2 4838   3.075   0.824  11.135 -0.0671 -0.1880  0.2746
  303loPI   C1A 4839   2.819   0.508  10.773 -0.1304  0.2184  0.0630
  303loPI   C2A 4840   2.870   0.591  10.289 -0.3178 -0.0717 -0.3693
  303loPI   C3A 4841   2.801   0.593   9.867  0.0659 -0.0074 -0.0577
  303loPI   C4A 4842   2.785   0.692   9.361 -0.1196  0.1061  0.0129
  303loPI   C5A 4843   2.584   0.532   8.940 -0.1758 -0.1302  0.2160
  303loPI   C6A 4844   2.539   0.273   8.549 -0.0371  0.1170  0.1442
  303loPI   C1B 4845   3.309   0.638  10.637  0.1294 -0.0851  0.3520
  303loPI   C2B 4846   3.336   0.753  10.264  0.1993 -0.5513 -0.1377
  303loPI   C3B 4847   3.290   0.828   9.806 -0.1250 -0.0008 -0.0556
  303loPI   C4B 4848   3.239   0.866   9.395 -0.2485 -0.2029 -0.0604
  304loPI    C1 4849  17.591  16.736  11.796 -0.1079 -0.0853 -0.1730
  304loPI    C2 4850  17.593  17.112  11.931  0.2266 -0.1421 -0.0089
  304loPI    C3 4851  17.327  16.850  12.074 -0.1038  0.0642 -0.2298
  304loPI   PO4 4852  17.783  16.742  11.638  0.0626 -0.3016  0.5162
  304loPI   GL1 4853  17.792  16.764  11.145  0.1040  0.1645 -0.1209
  304loPI   GL2 4854  17.892  17.020  11.016 -0.2720 -0.0854  0.1603
  304loPI   C1A 4855  17.832  16.588  10.784 -0.0104  0.1473 -0.0468
  304loPI   C2A 4856  17.803  16.601  10.374 -0.0629 -0.1442 -0.3291
  304loPI   C3A 4857  17.788  16.573   9.980 -0.2318 -0.1651 -0.1621
  304loPI   C4A 4858  17.884  16.666   9.574 -0.0664  0.0167 -0.1623
  304loPI   C5A 4859  17.870  16.608   9.158  0.1832 -0.1779  0.3362
  304loPI   C6A 4860  17.910  16.582   8.688 -0.0627  0.0176  0.2230
  304loPI   C1B 4861  17.906  17.017  10.551  0.0094 -0.2576  0.0557
  304loPI   C2B 4862  17.926  17.026  10.104  0.1832 -0.0286  0.1382
  304loPI   C3B 4863  18.007  17.148   9.725  0.0066  0.0305  0.1704
  304loPI   C4B 4864  18.013  17.082   9.282  0.2526  0.0205 -0.1413
  305loPI    C1 4865   4.184  17.475  11.445 -0.3910 -0.0231  0.2426
  305loPI    C2 4866   4.275  17.203  11.724  0.0557  0.0767  0.2019
  305loPI    C3 4867   4.378  17.586  11.776 -0.0202  0.1284 -0.0186
  305loPI   PO4 4868   4.264  17.458  11.223 -0.0208  0.1508  0.2352
  305loPI   GL1 4869   4.418  17.231  10.886  0.0041  0.1820  0.3240
  305loPI   GL2 4870   4.696  17.039  10.791  0.0475  0.3014 -0.1822
  305loPI   C1A 4871   4.353  17.301  10.412  0.0435  0.2256 -0.1417
  305loPI   C2A 4872   4.343  17.480  10.025  0.3018 -0.2965 -0.0123
  305loPI   C3A 4873   4.373  17.560   9.601  0.0057  0.3371 -0.1322
  305loPI   C4A 4874   4.432  17.500   9.182 -0.0394  0.1167  0.0760
  305loPI   C5A 4875   4.474  17.333   8.751 -0.1631  0.0197 -0.2002
  305loPI   C6A 4876   4.555  17.064   8.409 -0.5186  0.1847 -0.0440
  305loPI   C1B 4877   4.776  17.008  10.374  0.1836 -0.1069 -0.0811
  305loPI   C2B 4878   4.718  17.097   9.907  0.2755 -0.0075  0.1608
  305loPI   C3B 4879   4.714  17.085   9.481  0.0669 -0.4376  0.1309
  305loPI   C4B 4880   4.804  17.124   9.082 -0.1883  0.1423  0.1012
  306loPI    C1 4881   6.771  12.279  11.662 -0.1407 -0.2246  0.1020
  306loPI    C2 4882   7.072  12.361  11.913 -0.0837  0.1947 -0.0939
  306loPI    C3 4883   6.990  11.982  11.815  0.2415  0.0624  0.1292
  306loPI   PO4 4884   6.849  12.472  11.441 -0.1512  0.1533  0.2597
  306loPI   GL1 4885   6.736  12.372  10.970 -0.1365 -0.2600 -0.0727
  306loPI   GL2 4886   6.976  12.433  10.907 -0.0776 -0.2250 -0.0524
  306loPI   C1A 4887   6.573  12.394  10.545 -0.1409 -0.0431  0.0245
  306loPI   C2A 4888   6.616  12.501  10.144 -0.1461 -0.0003 -0.0836
  306loPI   C3A 4889   6.479  12.509   9.715 -0.2004 -0.1177 -0.0308
  306loPI   C4A 4890   6.457  12.520   9.281 -0.0718  0.0630  0.3068
  306loPI   C5A 4891   6.499  12.675   8.766 -0.0710  0.1600 -0.0708
  306loPI   C6A 4892   6.606  12.774   8.384 -0.1638 -0.0008 -0.0012
  306loPI   C1B 4893   7.015  12.620  10.435 -0.2581 -0.3392  0.0175
  306loPI   C2B 4894   7.098  12.678  10.029 -0.0213  0.2530 -0.2938
  306loPI   C3B 4895   7.054  12.663   9.600 -0.1255 -0.1613 -0.2532
  306loPI   C4B 4896   6.924  12.704   9.220  0.0192 -0.3716 -0.0799
  307loPI    C1 4897   6.764   7.751  11.403 -0.2198  0.1144  0.2367
  307loPI    C2 4898   7.093   7.552  11.515 -0.2531 -0.0288  0.0837
  307loPI    C3 4899   7.000   7.900  11.690  0.1391  0.1622 -0.0763
  307loPI   PO4 4900   6.816   7.738  11.080 -0.1467 -0.2105 -0.0281
  307loPI   GL1 4901   6.830   7.568  10.806 -0.1007  0.1613  0.0966
  307loPI   GL2 4902   6.723   7.423  10.612 -0.0050  0.1815  0.0402
  307loPI   C1A 4903   6.814   7.952  10.472  0.2473 -0.0853 -0.1415
  307loPI   C2A 4904   6.820   7.879  10.032 -0.0903  0.0022  0.1919
  307loPI   C3A 4905   6.789   7.958   9.613  0.3051 -0.2737  0.1326
  307loPI   C4A 4906   6.837   7.995   9.204  0.2082  0.0811  0.0860
  307loPI   C5A 4907   7.029   7.994   8.784 -0.0574  0.0741 -0.1192
  307loPI   C6A 4908   6.967   7.970   8.404 -0.0687  0.1249  0.3085
  307loPI   C1B 4909   6.727   7.421  10.118  0.0484  0.2371 -0.0471
  307loPI   C2B 4910   6.674   7.456   9.700 -0.2924 -0.0195  0.0606
  307loPI   C3B 4911   6.746   7.532   9.276  0.0726  0.2759 -0.1580
  307loPI   C4B 4912   6.753   7.599   8.867 -0.1921 -0.1754  0.1335
  308loPI    C1 4913  17.097   0.315  11.578  0.1815  0.1874 -0.0795
  308loPI    C2 4914  16.860   0.623  11.675  0.0444  0.0427  0.0519
  308loPI    C3 4915  17.013   0.391  11.962  0.2912  0.0931 -0.0363
  308loPI   PO4 4916  17.057   0.277  11.360  0.0474  0.1134 -0.2291
  308loPI   GL1 4917  16.954   0.087  10.961  0.0396 -0.1268 -0.1442
  308loPI   GL2 4918  16.875   0.433  10.826  0.0175  0.0807 -0.3615
  308loPI   C1A 4919  17.127   0.010  10.547 -0.0894 -0.0271  0.0859
  308loPI   C2A 4920  17.191   0.062  10.073  0.0799  0.3040  0.0083
  308loPI   C3A 4921  17.203  -0.007   9.649 -0.0759 -0.1272  0.4475
  308loPI   C4A 4922  17.277   0.052   9.211 -0.1860 -0.3958 -0.0307
  308loPI   C5A 4923  17.266  -0.008   8.796  0.2756 -0.2115 -0.3087
  308loPI   C6A 4924  17.221  -0.017   8.408 -0.0495  0.0135 -0.2480
  308loPI   C1B 4925  16.851   0.352  10.325 -0.2988  0.1983 -0.1870
  308loPI   C2B 4926  16.877   0.350   9.829  0.1149 -0.2388  0.1369
  308loPI   C3B 4927  16.790   0.352   9.471  0.0708  0.1988  0.1177
  308loPI   C4B 4928  16.911   0.427   9.006  0.0347 -0.1296 -0.2126
  309loPI    C1 4929   6.357  13.861  11.657 -0.0394 -0.0064 -0.0220
  309loPI    C2 4930   6.084  13.708  11.907 -0.0205 -0.0147 -0.0065
  309loPI    C3 4931   6.416  13.877  12.052 -0.0989  0.1520 -0.0190
  309loPI   PO4 4932   6.096  13.844  11.374  0.1342 -0.1987 -0.0935
  309loPI   GL1 4933   5.986  14.014  10.995 -0.1325  0.0258 -0.1665
  309loPI   GL2 4934   6.213  13.728  10.822 -0.1824  0.0707  0.0030
  309loPI   C1A 4935   5.975  14.132  10.635  0.0044 -0.0037  0.0593
  309loPI   C2A 4936   5.945  14.193  10.140 -0.0936  0.0504 -0.0164
  309loPI   C3A 4937   5.990  14.265   9.702 -0.0958  0.0812 -0.1389
  309loPI   C4A 4938   5.934  14.223   9.296  0.0122 -0.2584  0.0055
  309loPI   C5A 4939   5.940  14.198   8.813  0.1024 -0.1674 -0.1356
  309loPI   C6A 4940   5.751  14.172   8.392  0.3681  0.1524  0.4674
  309loPI   C1B 4941   6.388  13.768  10.521  0.0162 -0.1369  0.0880
  309loPI   C2B 4942   6.376  13.837  10.114  0.2988 -0.0619  0.1793
  309loPI   C3B 4943   6.300  13.855   9.801  0.2113 -0.2156  0.1246
  309loPI   C4B 4944   6.303  13.870   9.379  0.0864 -0.3052  0.0878
  310loPI    C1 4945   6.510   1.743  11.620 -0.1757  0.2144  0.0030
  310loPI    C2 4946   6.752   2.029  11.758  0.1217 -0.0391  0.0182
  310loPI    C3 4947   6.525   1.820  12.012 -0.0907  0.1743  0.0079
  310loPI   PO4 4948   6.542   1.683  11.381 -0.0501 -0.4017  0.0002
  310loPI   GL1 4949   6.522   1.796  10.988 -0.0947 -0.0931 -0.0486
  310loPI   GL2 4950   6.210   1.612  10.906  0.1850 -0.0671 -0.2488
  310loPI   C1A 4951   6.710   1.799  10.604 -0.0058  0.1152 -0.2440
  310loPI   C2A 4952   6.809   1.860  10.162 -0.0422 -0.2521  0.0254
  310loPI   C3A 4953   6.678   1.853   9.796  0.1421  0.0759  0.0874
  310loPI   C4A 4954   6.629   1.962   9.338 -0.5567 -0.0896  0.0833
  310loPI   C5A 4955   6.549   1.868   8.931 -0.0442  0.1572 -0.0555
  310loPI   C6A 4956   6.190   1.759   8.698  0.0688  0.0154 -0.2780
  310loPI   C1B 4957   6.239   1.698  10.489  0.0077  0.0598  0.3165
  310loPI   C2B 4958   6.210   1.777  10.027 -0.2669 -0.0742  0.0005
  310loPI   C3B 4959   6.135   1.728   9.646 -0.0673  0.1567  0.0824
  310loPI   C4B 4960   6.163   1.828   9.225 -0.0323  0.1631  0.1488
  311loPI    C1 4961   5.226  15.889  11.432 -0.0163 -0.1478 -0.0561
  311loPI    C2 4962   5.001  15.558  11.428 -0.1361 -0.0660 -0.1787
  311loPI    C3 4963   5.376  15.543  11.568 -0.1354 -0.2562 -0.1973
  311loPI   PO4 4964   5.259  15.928  11.160  0.0348  0.1263  0.6529
  311loPI   GL1 4965   5.117  16.155  10.782  0.1554 -0.0847 -0.0996
  311loPI   GL2 4966   4.857  16.149  10.879 -0.0960 -0.3261  0.0957
  311loPI   C1A 4967   5.037  16.219  10.341 -0.2701 -0.0934  0.1561
  311loPI   C2A 4968   5.009  16.233   9.895  0.0749 -0.0466  0.1777
  311loPI   C3A 4969   4.991  16.302   9.455 -0.0791 -0.1490 -0.2834
  311loPI   C4A 4970   4.967  16.329   9.024  0.1192  0.0890  0.0466
  311loPI   C5A 4971   5.081  16.109   8.680  0.1505 -0.0109  0.1425
  311loPI   C6A 4972   5.392  15.876   8.554 -0.1933  0.0545  0.1358
  311loPI   C1B 4973   4.564  15.993  10.521 -0.0479 -0.1754 -0.1425
  311loPI   C2B 4974   4.526  16.092  10.085  0.1574 -0.0160 -0.2269
  311loPI   C3B 4975   4.496  16.057   9.669 -0.0385 -0.2310 -0.1830
  311loPI   C4B 4976   4.462  16.124   9.228 -0.2436 -0.1432  0.2024
  312loPI    C1 4977   7.433   1.896  11.384  0.0731  0.1073  0.1386
  312loPI    C2 4978   7.241   2.009  11.716  0.0884  0.0434  0.1692
  312loPI    C3 4979   7.579   1.797  11.743  0.0294 -0.0590  0.1113
  312loPI   PO4 4980   7.308   2.061  11.205  0.1509  0.0406  0.0386
  312loPI   GL1 4981   7.152   2.023  10.822  0.3928  0.3081 -0.1613
  312loPI   GL2 4982   6.835   2.235  10.793 -0.2774 -0.0576 -0.1676
  312loPI   C1A 4983   7.176   1.932  10.455  0.0215 -0.2169  0.2451
  312loPI   C2A 4984   7.211   1.962   9.948  0.0987  0.1544  0.0958
  312loPI   C3A 4985   7.220   2.068   9.451 -0.0907 -0.1830  0.0509
  312loPI   C4A 4986   6.971   2.173   9.090  0.1858  0.2843  0.3064
  312loPI   C5A 4987   6.761   2.272   8.782 -0.1674 -0.3339 -0.0504
  312loPI   C6A 4988   6.693   2.614   8.679 -0.1482 -0.0120  0.2053
  312loPI   C1B 4989   6.861   2.290  10.414 -0.1106 -0.1188 -0.0923
  312loPI   C2B 4990   6.866   2.313   9.954 -0.0424  0.1888 -0.1123
  312loPI   C3B 4991   6.777   2.391   9.550 -0.2356 -0.1429 -0.0427
  312loPI   C4B 4992   6.779   2.609   9.244  0.0853  0.2981 -0.2196
  313loPI    C1 4993   9.591  10.266  11.543 -0.1852  0.1748 -0.0656
  313loPI    C2 4994   9.500  10.142  11.913 -0.0485  0.1962 -0.0244
  313loPI    C3 4995   9.612  10.521  11.851  0.0831  0.1516 -0.0630
  313loPI   PO4 4996   9.694  10.223  11.400 -0.0827 -0.5087  0.3013
  313loPI   GL1 4997   9.917  10.169  11.048 -0.3614 -0.0956 -0.0112
  313loPI   GL2 4998  10.155   9.973  10.930 -0.3119  0.0042 -0.0862
  313loPI   C1A 4999   9.724  10.070  10.669  0.1665 -0.2005  0.1901
  313loPI   C2A 5000   9.535  10.208  10.357  0.1670 -0.1266  0.0122
  313loPI   C3A 5001   9.643  10.223  10.009  0.0202 -0.2410 -0.2081
  313loPI   C4A 5002   9.610  10.294   9.619 -0.1926 -0.1482  0.0933
  313loPI   C5A 5003   9.588  10.324   9.204  0.4086 -0.0688 -0.0975
  313loPI   C6A 5004   9.559  10.291   8.861 -0.2637  0.1353 -0.1411
  313loPI   C1B 5005  10.424  10.026  10.560  0.3472  0.0724  0.0958
  313loPI   C2B 5006  10.513  10.005  10.131  0.1541  0.1810  0.0711
  313loPI   C3B 5007  10.452  10.067   9.658  0.1782 -0.1300  0.2434
  313loPI   C4B 5008  10.537  10.097   9.203  0.0430  0.0321 -0.0352
  314loPI    C1 5009   6.834   2.943  11.446  0.0318 -0.2203 -0.0355
  314loPI    C2 5010   6.740   3.113  11.796 -0.1352  0.2026 -0.2789
  314loPI    C3 5011   6.590   2.755  11.701  0.0125  0.0267  0.1318
  314loPI   PO4 5012   6.780   3.048  11.270  0.0115 -0.3137  0.0547
  314loPI   GL1 5013   6.849   2.938  10.823  0.1314 -0.1923 -0.0561
  314loPI   GL2 5014   7.095   3.043  10.864 -0.4076  0.0841 -0.1414
  314loPI   C1A 5015   6.952   2.751  10.465 -0.0814  0.1068 -0.0276
  314loPI   C2A 5016   7.007   2.889  10.026 -0.0284  0.1088 -0.0041
  314loPI   C3A 5017   6.954   2.902   9.596  0.1288 -0.0090 -0.1062
  314loPI   C4A 5018   6.946   3.063   9.170  0.3171 -0.2276  0.0837
  314loPI   C5A 5019   6.855   3.082   8.791  0.0145  0.1225  0.0087
  314loPI   C6A 5020   7.198   3.075   8.408  0.2164 -0.1604 -0.1363
  314loPI   C1B 5021   7.125   3.224  10.412  0.1369  0.0070  0.0188
  314loPI   C2B 5022   7.076   3.366   9.970 -0.0565  0.2645 -0.2126
  314loPI   C3B 5023   6.999   3.472   9.528  0.3239 -0.0912  0.1386
  314loPI   C4B 5024   7.076   3.520   9.142 -0.2334 -0.1818  0.0006
  315loPI    C1 5025   9.677   8.867  11.484  0.0469  0.0888 -0.1635
  315loPI    C2 5026   9.772   8.511  11.641 -0.1264 -0.0025 -0.2627
  315loPI    C3 5027   9.565   8.777  11.857 -0.1387 -0.0262 -0.2453
  315loPI   PO4 5028   9.544   8.847  11.292  0.1188  0.1833  0.1018
  315loPI   GL1 5029   9.385   8.737  10.911 -0.0639 -0.3367  0.0436
  315loPI   GL2 5030   9.665   8.756  10.742 -0.0415  0.1962 -0.0020
  315loPI   C1A 5031   9.279   8.643  10.439  0.1833 -0.2023 -0.3083
  315loPI   C2A 5032   9.275   8.587   9.989 -0.2836 -0.1626 -0.1186
  315loPI   C3A 5033   9.250   8.749   9.569 -0.2730 -0.2532  0.2347
  315loPI   C4A 5034   9.274   8.749   9.099  0.1596  0.2829  0.0883
  315loPI   C5A 5035   9.525   8.792   8.711  0.3168  0.0818 -0.0086
  315loPI   C6A 5036   9.874   8.679   8.548 -0.0847  0.1833 -0.1873
  315loPI   C1B 5037   9.835   8.797  10.434 -0.0694  0.0080 -0.0998
  315loPI   C2B 5038   9.769   8.820   9.952 -0.0245  0.1271 -0.2193
  315loPI   C3B 5039   9.781   8.848   9.461 -0.0937 -0.0431 -0.1816
  315loPI   C4B 5040   9.827   8.892   9.093 -0.1376  0.0956  0.0322
  316loPI    C1 5041   2.101  16.660  11.643  0.2228 -0.0165  0.2096
  316loPI    C2 5042   1.780  16.545  11.853 -0.1856  0.1443 -0.3039
  316loPI    C3 5043   2.144  16.528  12.018 -0.4242 -0.2682  0.2089
  316loPI   PO4 5044   1.872  16.834  11.396  0.0532 -0.2700 -0.2889
  316loPI   GL1 5045   1.755  17.015  10.998  0.1832  0.2047 -0.0996
  316loPI   GL2 5046   2.089  17.109  10.831  0.1134  0.0022  0.1751
  316loPI   C1A 5047   1.562  16.890  10.659  0.0798  0.2084 -0.0020
  316loPI   C2A 5048   1.459  17.032  10.206 -0.2651 -0.0142 -0.0968
  316loPI   C3A 5049   1.545  17.032   9.788  0.3118  0.0745 -0.3775
  316loPI   C4A 5050   1.632  17.174   9.400  0.0130  0.2142 -0.0219
  316loPI   C5A 5051   1.564  17.038   9.029  0.1568 -0.0388  0.1623
  316loPI   C6A 5052   1.733  17.006   8.654  0.0382  0.2671  0.1910
  316loPI   C1B 5053   2.012  17.214  10.350 -0.0831  0.3191 -0.0274
  316loPI   C2B 5054   2.031  17.187   9.957  0.2269  0.0226  0.0606
  316loPI   C3B 5055   2.085  17.081   9.570 -0.1542 -0.0977  0.2622
  316loPI   C4B 5056   2.029  17.224   9.132  0.3062  0.1145  0.0030
  317loPI    C1 5057   9.507  12.575  11.349 -0.1927 -0.1599  0.2082
  317loPI    C2 5058   9.296  12.891  11.472 -0.1451 -0.0273 -0.0429
  317loPI    C3 5059   9.674  12.844  11.593 -0.1264  0.0559 -0.0689
  317loPI   PO4 5060   9.487  12.651  11.110 -0.0124  0.1166 -0.0171
  317loPI   GL1 5061   9.700  12.727  10.777 -0.1840 -0.1500  0.3132
  317loPI   GL2 5062   9.406  12.857  10.571  0.1985 -0.0079  0.1077
  317loPI   C1A 5063   9.735  12.644  10.329  0.2613  0.2640  0.0469
  317loPI   C2A 5064   9.693  12.565   9.864 -0.1394 -0.3246 -0.1793
  317loPI   C3A 5065   9.715  12.600   9.411 -0.2744 -0.1714  0.1551
  317loPI   C4A 5066   9.661  12.642   9.004  0.0868 -0.2320 -0.0968
  317loPI   C5A 5067   9.550  12.579   8.631  0.0696  0.0349  0.1302
  317loPI   C6A 5068   9.495  12.761   8.276 -0.1597 -0.2424 -0.1134
  317loPI   C1B 5069   9.388  12.981  10.210  0.0446 -0.1833 -0.0370
  317loPI   C2B 5070   9.366  12.903   9.698  0.2872  0.0852  0.1517
  317loPI   C3B 5071   9.364  12.930   9.290  0.1071  0.2221 -0.1437
  317loPI   C4B 5072   9.346  13.009   8.898 -0.0051  0.2482  0.1601
  318loPI    C1 5073   3.777   3.603  11.557 -0.3570  0.0457 -0.1326
  318loPI    C2 5074   3.596   3.338  11.797 -0.0414  0.0027  0.0631
  318loPI    C3 5075   3.931   3.521  11.917 -0.1077  0.2919 -0.1805
  318loPI   PO4 5076   3.774   3.552  11.299 -0.0937 -0.0401  0.3138
  318loPI   GL1 5077   3.606   3.648  10.959  0.0250 -0.0575 -0.1476
  318loPI   GL2 5078   3.893   3.654  10.759 -0.0879 -0.1112  0.2984
  318loPI   C1A 5079   3.490   3.566  10.525 -0.2787 -0.1176  0.0823
  318loPI   C2A 5080   3.557   3.611  10.061  0.0634 -0.0077  0.1700
  318loPI   C3A 5081   3.515   3.654   9.617  0.0025  0.0109 -0.1889
  318loPI   C4A 5082   3.528   3.783   9.111  0.2604  0.0791 -0.4328
  318loPI   C5A 5083   3.616   3.726   8.712  0.0194 -0.0207 -0.0304
  318loPI   C6A 5084   3.530   3.804   8.273 -0.0419  0.0499  0.0590
  318loPI   C1B 5085   3.998   3.744  10.272  0.0264 -0.1030 -0.0985
  318loPI   C2B 5086   3.976   3.852   9.853 -0.0980 -0.1467 -0.1602
  318loPI   C3B 5087   4.001   3.936   9.433  0.0329  0.1211 -0.1676
  318loPI   C4B 5088   4.063   3.923   9.011  0.0795 -0.1400  0.0504
  319loPI    C1 5089  15.404  15.058  11.728  0.2205  0.1674  0.2443
  319loPI    C2 5090  15.145  15.289  11.927  0.0271  0.0162  0.1716
  319loPI    C3 5091  15.139  14.892  11.977  0.1663  0.0014  0.0784
  319loPI   PO4 5092  15.574  15.153  11.650 -0.1879  0.1357  0.2109
  319loPI   GL1 5093  15.674  15.213  11.291 -0.0237  0.0190 -0.0256
  319loPI   GL2 5094  15.588  14.918  11.198  0.0562  0.0185 -0.0349
  319loPI   C1A 5095  15.791  15.437  10.868 -0.1998  0.2789 -0.0126
  319loPI   C2A 5096  15.821  15.506  10.477 -0.0322 -0.2744  0.1444
  319loPI   C3A 5097  15.823  15.495  10.050 -0.1672  0.1616 -0.2191
  319loPI   C4A 5098  15.901  15.522   9.602 -0.1357 -0.2668 -0.2201
  319loPI   C5A 5099  15.876  15.608   9.195  0.1389  0.3393  0.4448
  319loPI   C6A 5100  15.882  15.407   8.705  0.0431 -0.1275 -0.1321
  319loPI   C1B 5101  15.674  14.945  10.774 -0.1074  0.1459  0.0398
  319loPI   C2B 5102  15.671  14.987  10.329 -0.3554  0.0356 -0.0430
  319loPI   C3B 5103  15.709  15.021   9.922  0.3877  0.0866 -0.1211
  319loPI   C4B 5104  15.730  15.055   9.489 -0.1080 -0.0709  0.0902
  320loPI    C1 5105  14.913   2.923  11.597  0.0223  0.1105 -0.0442
  320loPI    C2 5106  14.981   3.231  11.843  0.0643  0.1129 -0.0588
  320loPI    C3 5107  15.005   2.857  11.981 -0.2238  0.1202  0.0185
  320loPI   PO4 5108  14.996   3.089  11.333 -0.0096 -0.1793 -0.1821
  320loPI   GL1 5109  15.141   3.083  10.949 -0.0583  0.1350  0.0093
  320loPI   GL2 5110  14.924   3.320  10.883 -0.3065  0.0548 -0.2111
  320loPI   C1A 5111  15.244   3.130  10.521 -0.0221 -0.0425  0.0910
  320loPI   C2A 5112  15.216   3.152  10.058  0.2306 -0.2890  0.2089
  320loPI   C3A 5113  15.307   3.260   9.586 -0.1147  0.1339 -0.0454
  320loPI   C4A 5114  15.261   3.197   9.156 -0.0199 -0.0893  0.0519
  320loPI   C5A 5115  15.331   3.199   8.876  0.0537  0.0896 -0.1491
  320loPI   C6A 5116  15.284   3.133   8.436  0.0755 -0.0729 -0.2196
  320loPI   C1B 5117  14.810   3.423  10.517 -0.1278  0.0214  0.0502
  320loPI   C2B 5118  14.725   3.446  10.097  0.2329  0.0673 -0.0070
  320loPI   C3B 5119  14.895   3.498   9.712  0.1582 -0.0143 -0.1944
  320loPI   C4B 5120  14.932   3.548   9.313 -0.3966  0.4058 -0.0822
  321loPI    C1 5121   2.326  13.654  11.816  0.1545 -0.0058  0.0032
  321loPI    C2 5122   2.485  13.372  12.050  0.1805  0.0407  0.0418
  321loPI    C3 5123   2.248  13.653  12.208  0.2819  0.1335  0.0302
  321loPI   PO4 5124   2.315  13.574  11.621 -0.3619 -0.1110  0.2603
  321loPI   GL1 5125   2.370  13.531  11.229  0.1821  0.0101  0.3441
  321loPI   GL2 5126   2.622  13.418  11.124 -0.4476  0.1225 -0.2695
  321loPI   C1A 5127   2.257  13.390  10.810  0.1457 -0.0855  0.1157
  321loPI   C2A 5128   2.129  13.447  10.377 -0.0119 -0.0261  0.2847
  321loPI   C3A 5129   2.174  13.518   9.939 -0.0932 -0.1710 -0.0983
  321loPI   C4A 5130   2.077  13.405   9.485  0.0722 -0.3546  0.1537
  321loPI   C5A 5131   2.188  13.597   9.106 -0.2314  0.2106  0.0714
  321loPI   C6A 5132   2.590  13.827   8.936 -0.3545 -0.0276 -0.0299
  321loPI   C1B 5133   2.699  13.554  10.683  0.0008  0.0920 -0.1801
  321loPI   C2B 5134   2.687  13.602  10.293  0.3080 -0.0454  0.0597
  321loPI   C3B 5135   2.631  13.745   9.891 -0.1965 -0.1803 -0.1973
  321loPI   C4B 5136   2.629  13.626   9.471  0.1269  0.0723 -0.2143
  322loPI    C1 5137  17.266  10.935  11.593 -0.1990 -0.0719  0.2527
  322loPI    C2 5138  17.616  10.983  11.780  0.0153  0.3352 -0.2294
  322loPI    C3 5139  17.359  11.289  11.756 -0.3310  0.0723  0.0206
  322loPI   PO4 5140  17.454  10.854  11.281 -0.3903 -0.0577  0.1416
  322loPI   GL1 5141  17.307  10.948  10.903  0.0659 -0.0092 -0.0666
  322loPI   GL2 5142  17.501  11.005  10.574  0.0044  0.0697  0.0411
  322loPI   C1A 5143  17.277  10.556  10.610  0.1318  0.1528  0.0650
  322loPI   C2A 5144  17.361  10.423  10.170 -0.0185  0.1103 -0.1990
  322loPI   C3A 5145  17.304  10.379   9.717 -0.0303 -0.0257 -0.1020
  322loPI   C4A 5146  17.390  10.362   9.325  0.3273 -0.2009  0.0204
  322loPI   C5A 5147  17.233  10.348   8.944  0.0978  0.0562  0.4704
  322loPI   C6A 5148  17.097  10.365   8.555  0.1089  0.1934 -0.0709
  322loPI   C1B 5149  17.422  10.956  10.231  0.1467  0.0570 -0.1554
  322loPI   C2B 5150  17.478  10.855   9.852 -0.0369  0.3691  0.2883
  322loPI   C3B 5151  17.452  10.850   9.408 -0.3623 -0.3874 -0.4647
  322loPI   C4B 5152  17.319  10.964   9.001 -0.0538  0.0996 -0.2895
  323loPI    C1 5153   1.801   7.063  11.531  0.1728 -0.0801  0.0026
  323loPI    C2 5154   1.425   6.930  11.564  0.1404 -0.0111 -0.0846
  323loPI    C3 5155   1.634   7.023  11.892  0.1182 -0.1509 -0.0302
  323loPI   PO4 5156   1.907   6.924  11.374 -0.1776  0.2208  0.0536
  323loPI   GL1 5157   1.972   6.826  10.927  0.1108 -0.0510 -0.3404
  323loPI   GL2 5158   2.281   6.842  11.019  0.0256  0.1221  0.2187
  323loPI   C1A 5159   1.970   6.925  10.579 -0.1365  0.3221 -0.1876
  323loPI   C2A 5160   2.060   6.923  10.196  0.1637 -0.0919  0.1732
  323loPI   C3A 5161   1.969   6.880   9.766 -0.0071  0.1825  0.4190
  323loPI   C4A 5162   2.032   6.922   9.299 -0.2034  0.0573 -0.0746
  323loPI   C5A 5163   2.016   7.033   8.845  0.0218  0.0348 -0.0960
  323loPI   C6A 5164   2.209   7.479   8.711 -0.1313 -0.1288  0.0424
  323loPI   C1B 5165   2.507   7.020  10.592  0.2653  0.0871  0.0840
  323loPI   C2B 5166   2.574   7.085  10.081 -0.2694  0.2917  0.3026
  323loPI   C3B 5167   2.461   7.034   9.648  0.1515  0.0729  0.1868
  323loPI   C4B 5168   2.495   7.105   9.176 -0.2277  0.0114 -0.2143
  324loPI    C1 5169   9.844   9.687  11.272  0.2064 -0.1020  0.0461
  324loPI    C2 5170  10.157   9.845  11.464  0.0009  0.1887  0.1484
  324loPI    C3 5171   9.839   9.717  11.670  0.0372 -0.0780  0.0428
  324loPI   PO4 5172   9.953   9.538  11.074 -0.0900  0.0809  0.0602
  324loPI   GL1 5173   9.877   9.579  10.721 -0.1832 -0.0398 -0.1057
  324loPI   GL2 5174  10.041   9.240  10.602  0.1403  0.0507  0.0089
  324loPI   C1A 5175   9.988   9.861  10.319  0.0542 -0.1488  0.2614
  324loPI   C2A 5176  10.002   9.896   9.915 -0.0325 -0.0191 -0.0341
  324loPI   C3A 5177   9.923   9.969   9.454 -0.1772  0.2210 -0.2756
  324loPI   C4A 5178   9.888   9.940   9.115  0.1326  0.0327 -0.0040
  324loPI   C5A 5179   9.968   9.975   8.676  0.0683  0.0603 -0.0888
  324loPI   C6A 5180  10.097  10.024   8.203 -0.0482  0.1108 -0.2198
  324loPI   C1B 5181   9.883   9.321  10.210 -0.0924 -0.0384  0.2153
  324loPI   C2B 5182   9.911   9.390   9.765 -0.1886  0.0093  0.0326
  324loPI   C3B 5183   9.895   9.461   9.298 -0.3316  0.1509 -0.2318
  324loPI   C4B 5184  10.015   9.460   8.906 -0.1185  0.0651  0.0032
  325loPI    C1 5185   6.647  10.045  11.338 -0.0373 -0.0409  0.2362
  325loPI    C2 5186   6.677   9.687  11.162  0.2014  0.0394  0.1093
  325loPI    C3 5187   6.899   9.771  11.484 -0.0591 -0.0226  0.3089
  325loPI   PO4 5188   6.599  10.184  11.133 -0.0005 -0.0278 -0.0530
  325loPI   GL1 5189   6.589  10.275  10.695 -0.3181  0.0052  0.0568
  325loPI   GL2 5190   6.435   9.953  10.701 -0.1790  0.2894  0.2048
  325loPI   C1A 5191   6.510  10.540  10.450 -0.2604  0.0492 -0.2925
  325loPI   C2A 5192   6.493  10.617  10.000 -0.4085  0.3306 -0.1762
  325loPI   C3A 5193   6.484  10.708   9.562 -0.0940 -0.3513  0.1502
  325loPI   C4A 5194   6.438  10.659   9.181 -0.0220 -0.2966  0.1648
  325loPI   C5A 5195   6.426  10.748   8.760  0.1473 -0.4218  0.1311
  325loPI   C6A 5196   6.441  10.970   8.306  0.1065  0.0007 -0.2230
  325loPI   C1B 5197   6.425  10.086  10.189  0.0751  0.2507 -0.2691
  325loPI   C2B 5198   6.430  10.142   9.791 -0.0864 -0.1323 -0.2987
  325loPI   C3B 5199   6.392  10.124   9.357  0.2755 -0.0479  0.3681
  325loPI   C4B 5200   6.383  10.138   8.993 -0.0033 -0.0379 -0.0580
  326loPI    C1 5201  12.524   1.917  11.595 -0.0318  0.0531  0.3266
  326loPI    C2 5202  12.724   2.248  11.696 -0.0780  0.2953 -0.3285
  326loPI    C3 5203  12.414   2.127  11.918  0.3411  0.3130  0.2907
  326loPI   PO4 5204  12.598   1.913  11.354  0.1076  0.0690 -0.2144
  326loPI   GL1 5205  12.581   2.069  10.916  0.2395 -0.0863  0.1210
  326loPI   GL2 5206  12.720   2.340  10.940  0.0517  0.2589  0.0826
  326loPI   C1A 5207  12.607   1.837  10.480 -0.0075 -0.2236 -0.1158
  326loPI   C2A 5208  12.644   1.892  10.052  0.3140  0.0335 -0.1824
  326loPI   C3A 5209  12.653   1.890   9.616  0.2392 -0.2405 -0.0012
  326loPI   C4A 5210  12.637   1.907   9.180  0.0252 -0.3020  0.0113
  326loPI   C5A 5211  12.566   1.878   8.769  0.1271 -0.0996 -0.3498
  326loPI   C6A 5212  12.560   1.681   8.469 -0.3138 -0.0467  0.1633
  326loPI   C1B 5213  12.755   2.358  10.540 -0.3032  0.1409  0.0432
  326loPI   C2B 5214  12.759   2.379  10.057  0.0652  0.3120  0.1555
  326loPI   C3B 5215  12.671   2.356   9.539  0.1568  0.0467  0.0139
  326loPI   C4B 5216  12.712   2.390   9.149  0.2368  0.0558  0.0633
  327loPI    C1 5217  15.545  17.010  11.768  0.0644 -0.0646  0.0204
  327loPI    C2 5218  15.263  16.846  12.000 -0.1492  0.1942 -0.0513
  327loPI    C3 5219  15.288  17.244  11.967  0.1402  0.1698 -0.1534
  327loPI   PO4 5220  15.561  16.962  11.514  0.0626  0.2371 -0.5242
  327loPI   GL1 5221  15.634  17.189  11.220  0.0060 -0.0587  0.0244
  327loPI   GL2 5222  15.287  16.999  11.082 -0.0289 -0.0377 -0.0910
  327loPI   C1A 5223  15.671  17.236  10.771  0.1436 -0.2455  0.0580
  327loPI   C2A 5224  15.762  17.334  10.382 -0.2199 -0.2357  0.2009
  327loPI   C3A 5225  15.729  17.314   9.948 -0.1846  0.0399 -0.2204
  327loPI   C4A 5226  15.804  17.349   9.480  0.0141 -0.0897 -0.0149
  327loPI   C5A 5227  15.761  17.375   9.007 -0.1077 -0.1826 -0.1377
  327loPI   C6A 5228  15.759  17.328   8.624  0.0409 -0.1306 -0.0669
  327loPI   C1B 5229  15.187  17.100  10.685 -0.1367  0.1852 -0.0102
  327loPI   C2B 5230  15.325  17.181  10.306  0.0994 -0.0618 -0.2446
  327loPI   C3B 5231  15.226  17.189   9.825  0.0830  0.0791  0.0284
  327loPI   C4B 5232  15.262  17.259   9.371  0.2510 -0.1060 -0.3427
  328loPI    C1 5233   0.692   6.468  11.484 -0.0777  0.0984 -0.0672
  328loPI    C2 5234   0.751   6.299  11.842  0.0703  0.0002 -0.1366
  328loPI    C3 5235   0.393   6.452  11.749  0.0658  0.1376  0.0991
  328loPI   PO4 5236   0.719   6.329  11.336  0.3047  0.0910 -0.0543
  328loPI   GL1 5237   0.710   6.386  10.877  0.3818 -0.0114 -0.0146
  328loPI   GL2 5238   0.643   6.707  10.954  0.0360 -0.1699 -0.1280
  328loPI   C1A 5239   0.576   6.362  10.425  0.2414  0.2175 -0.2085
  328loPI   C2A 5240   0.604   6.464  10.023 -0.0374  0.0028 -0.1587
  328loPI   C3A 5241   0.552   6.520   9.538 -0.2408 -0.3411 -0.0527
  328loPI   C4A 5242   0.592   6.468   9.127  0.2768 -0.1183  0.0876
  328loPI   C5A 5243   0.531   6.592   8.765 -0.4062 -0.2418 -0.2819
  328loPI   C6A 5244   0.571   6.948   8.732  0.1402  0.0509 -0.0062
  328loPI   C1B 5245   0.667   6.852  10.502 -0.1901  0.2213 -0.0139
  328loPI   C2B 5246   0.675   6.925  10.101  0.0463  0.1820  0.2761
  328loPI   C3B 5247   0.698   6.949   9.692 -0.0177 -0.0810 -0.0904
  328loPI   C4B 5248   0.709   7.034   9.206 -0.3160  0.1738  0.1497
  329loPI    C1 5249   0.750   9.040  11.705  0.1961 -0.2329 -0.2587
  329loPI    C2 5250   1.028   8.981  11.987 -0.1924 -0.1569  0.1530
  329loPI    C3 5251   0.737   9.249  12.046 -0.2580 -0.1079 -0.3458
  329loPI   PO4 5252   0.806   8.775  11.566  0.0565  0.0577  0.0168
  329loPI   GL1 5253   0.768   8.621  11.185  0.2116 -0.0141 -0.0424
  329loPI   GL2 5254   0.467   8.539  11.069 -0.2666  0.2225 -0.1984
  329loPI   C1A 5255   0.921   8.461  10.697  0.1078  0.1383  0.0582
  329loPI   C2A 5256   1.026   8.485  10.223  0.0281 -0.1239 -0.1862
  329loPI   C3A 5257   1.063   8.460   9.775 -0.0542 -0.0419 -0.0145
  329loPI   C4A 5258   1.090   8.386   9.363  0.0285 -0.1797 -0.2044
  329loPI   C5A 5259   1.037   8.509   8.927  0.1331 -0.1481 -0.1776
  329loPI   C6A 5260   0.624   8.292   8.768 -0.0020 -0.0695 -0.4271
  329loPI   C1B 5261   0.615   8.840  10.773 -0.0195  0.1538  0.3552
  329loPI   C2B 5262   0.602   8.736  10.348 -0.0882  0.0089 -0.2454
  329loPI   C3B 5263   0.633   8.804   9.914  0.2567  0.3109  0.1269
  329loPI   C4B 5264   0.638   8.851   9.459 -0.0655  0.2153  0.1627
  330loPI    C1 5265   4.535  10.600  11.360 -0.2583  0.1155 -0.0516
  330loPI    C2 5266   4.606  10.258  11.555  0.0984  0.1590 -0.0968
  330loPI    C3 5267   4.683  10.609  11.731  0.0563  0.2083 -0.1758
  330loPI   PO4 5268   4.417  10.494  11.099 -0.0164  0.0736  0.0414
  330loPI   GL1 5269   4.542  10.485  10.696 -0.0813  0.1363 -0.0286
  330loPI   GL2 5270   4.213  10.418  10.617  0.0604 -0.0511  0.0287
  330loPI   C1A 5271   4.682  10.502  10.341 -0.0030 -0.0500 -0.2955
  330loPI   C2A 5272   4.680  10.535   9.869  0.1024 -0.3189  0.2468
  330loPI   C3A 5273   4.679  10.550   9.491  0.0029 -0.2999  0.0004
  330loPI   C4A 5274   4.658  10.490   9.022  0.1662  0.1409  0.1695
  330loPI   C5A 5275   4.704  10.524   8.584 -0.1639 -0.1345  0.0497
  330loPI   C6A 5276   4.806  10.692   8.136 -0.1083 -0.0597  0.1784
  330loPI   C1B 5277   4.239  10.463  10.103  0.0019  0.1289 -0.1307
  330loPI   C2B 5278   4.147  10.416   9.669 -0.1643 -0.2396  0.0399
  330loPI   C3B 5279   4.220  10.489   9.236 -0.1943 -0.3690 -0.1559
  330loPI   C4B 5280   4.199  10.463   8.774 -0.0986  0.0964 -0.2490
  331loPI    C1 5281  10.843   3.159  11.482 -0.1702 -0.0732  0.1629
  331loPI    C2 5282  10.899   3.335  11.838  0.2871 -0.1803  0.1503
  331loPI    C3 5283  10.984   2.946  11.790 -0.1231 -0.2586  0.0152
  331loPI   PO4 5284  10.855   3.324  11.227 -0.0298 -0.2827 -0.2511
  331loPI   GL1 5285  10.812   3.319  10.808 -0.0379  0.3062 -0.0838
  331loPI   GL2 5286  11.103   3.162  10.707 -0.3495  0.3526  0.0945
  331loPI   C1A 5287  10.640   3.287  10.433  0.0047  0.1307  0.0363
  331loPI   C2A 5288  10.669   3.126  10.068  0.0539  0.1763  0.1289
  331loPI   C3A 5289  10.602   3.098   9.603 -0.1682 -0.0828  0.0625
  331loPI   C4A 5290  10.581   3.042   9.091  0.0419 -0.2300 -0.0048
  331loPI   C5A 5291  10.626   3.118   8.670 -0.1733  0.0669 -0.2605
  331loPI   C6A 5292  10.882   3.354   8.447  0.1385  0.1919 -0.2142
  331loPI   C1B 5293  11.146   3.293  10.227 -0.2299 -0.1904  0.0887
  331loPI   C2B 5294  11.168   3.220   9.746  0.0075  0.2668  0.1121
  331loPI   C3B 5295  11.116   3.187   9.358 -0.4140  0.1307 -0.1387
  331loPI   C4B 5296  11.164   3.167   8.859 -0.1564 -0.0676  0.2008
  332loPI    C1 5297   1.817   8.429  11.482 -0.1270 -0.0748  0.0136
  332loPI    C2 5298   1.575   8.355  11.793 -0.2257  0.0151 -0.0411
  332loPI    C3 5299   1.922   8.546  11.850 -0.1122 -0.2163  0.0550
  332loPI   PO4 5300   1.648   8.384  11.308 -0.2091  0.0638 -0.0944
  332loPI   GL1 5301   1.351   8.496  11.085 -0.3916  0.0003 -0.0169
  332loPI   GL2 5302   1.321   8.201  10.922  0.1843 -0.2117  0.3376
  332loPI   C1A 5303   1.415   8.574  10.610 -0.2588 -0.1923  0.0981
  332loPI   C2A 5304   1.496   8.634  10.123  0.0837  0.0681 -0.2513
  332loPI   C3A 5305   1.502   8.656   9.548  0.0879  0.0746  0.0681
  332loPI   C4A 5306   1.491   8.580   9.025 -0.0525  0.1812  0.4282
  332loPI   C5A 5307   1.429   8.616   8.561 -0.2510  0.1982 -0.0971
  332loPI   C6A 5308   1.593   8.775   8.146 -0.0828  0.2746 -0.2306
  332loPI   C1B 5309   1.306   8.106  10.454  0.1294 -0.1164  0.0549
  332loPI   C2B 5310   1.339   8.046   9.986  0.3413  0.1888  0.0163
  332loPI   C3B 5311   1.387   8.080   9.570  0.2357  0.0471 -0.0033
  332loPI   C4B 5312   1.463   8.144   9.163  0.2159 -0.3294  0.2644
  333loPI    C1 5313   7.978   5.219  11.173 -0.0501  0.1037  0.0943
  333loPI    C2 5314   7.851   5.409  11.501 -0.4487 -0.0478  0.0334
  333loPI    C3 5315   8.080   5.083  11.535 -0.3018  0.0667  0.1535
  333loPI   PO4 5316   7.867   5.293  10.999  0.1252  0.0378  0.2686
  333loPI   GL1 5317   7.616   5.233  10.572  0.1683  0.1867  0.2920
  333loPI   GL2 5318   7.938   5.058  10.562  0.1018  0.1336  0.0485
  333loPI   C1A 5319   7.528   5.296  10.100  0.0747  0.1887  0.0726
  333loPI   C2A 5320   7.521   5.448   9.564  0.0412  0.1341 -0.0340
  333loPI   C3A 5321   7.589   5.451   9.177 -0.0713  0.0630  0.2801
  333loPI   C4A 5322   7.724   5.511   8.746 -0.1463 -0.2062 -0.1664
  333loPI   C5A 5323   7.766   5.831   8.530  0.1331 -0.0155 -0.0211
  333loPI   C6A 5324   7.714   5.925   8.075 -0.2719  0.0324 -0.1502
  333loPI   C1B 5325   7.949   4.901  10.123  0.2181  0.1227 -0.1089
  333loPI   C2B 5326   7.950   5.027   9.768  0.0319  0.0998  0.0085
  333loPI   C3B 5327   7.973   5.167   9.338  0.2909 -0.1858 -0.2796
  333loPI   C4B 5328   7.926   5.114   8.989 -0.2538 -0.3360  0.1597
  334loPI    C1 5329  16.289   5.072  11.256  0.0577  0.1200 -0.0158
  334loPI    C2 5330  16.607   5.251  11.419  0.0008  0.0846  0.1362
  334loPI    C3 5331  16.283   5.180  11.641 -0.0648  0.0033  0.0155
  334loPI   PO4 5332  16.438   4.870  11.136 -0.2192 -0.2407 -0.1470
  334loPI   GL1 5333  16.483   4.612  10.780  0.3730 -0.1733 -0.1346
  334loPI   GL2 5334  16.423   4.332  10.759 -0.2880  0.2678 -0.0264
  334loPI   C1A 5335  16.440   4.914  10.530 -0.0314 -0.1532  0.3594
  334loPI   C2A 5336  16.568   4.929  10.212 -0.1511  0.2431 -0.1393
  334loPI   C3A 5337  16.558   4.888   9.851 -0.1863  0.0026  0.1978
  334loPI   C4A 5338  16.570   4.958   9.465  0.3040  0.1184 -0.0439
  334loPI   C5A 5339  16.569   4.938   8.998  0.0202  0.3088 -0.0036
  334loPI   C6A 5340  16.568   4.831   8.629  0.0921  0.1223 -0.1826
  334loPI   C1B 5341  16.449   4.425  10.320  0.2383  0.1859  0.1073
  334loPI   C2B 5342  16.447   4.417   9.905 -0.1247  0.2332  0.2147
  334loPI   C3B 5343  16.450   4.459   9.440  0.1165 -0.1221 -0.0426
  334loPI   C4B 5344  16.494   4.460   8.971  0.0989 -0.0853  0.2003
  335loPI    C1 5345  16.876  11.180  11.430 -0.2221  0.1373  0.0099
  335loPI    C2 5346  16.686  11.033  11.750 -0.1366  0.3200  0.1462
  335loPI    C3 5347  16.587  11.393  11.607 -0.1416  0.2592 -0.0044
  335loPI   PO4 5348  16.938  11.030  11.258 -0.1412  0.0835  0.1551
  335loPI   GL1 5349  16.781  10.905  10.843  0.0955 -0.2735 -0.0387
  335loPI   GL2 5350  16.546  11.130  10.649  0.1174 -0.0794  0.1245
  335loPI   C1A 5351  16.912  10.809  10.429  0.0248  0.0036 -0.0807
  335loPI   C2A 5352  16.980  10.747  10.017  0.0111 -0.1081  0.0643
  335loPI   C3A 5353  16.965  10.737   9.583  0.1888 -0.0036  0.0748
  335loPI   C4A 5354  16.949  10.674   9.256  0.2248  0.0431  0.2510
  335loPI   C5A 5355  16.839  10.750   8.792 -0.2707 -0.0076 -0.2265
  335loPI   C6A 5356  16.868  11.151   8.611 -0.2116  0.1472 -0.1627
  335loPI   C1B 5357  16.551  11.182  10.239  0.4634  0.1105 -0.2758
  335loPI   C2B 5358  16.707  11.111   9.824 -0.1589 -0.0402 -0.1359
  335loPI   C3B 5359  16.565  11.032   9.424  0.0847  0.1127 -0.0885
  335loPI   C4B 5360  16.584  11.113   9.056  0.0291  0.0430  0.1452
  336loPI    C1 5361   3.558  15.588  11.730 -0.0138 -0.0321  0.1121
  336loPI    C2 5362   3.628  15.245  11.923  0.2472 -0.0081  0.0638
  336loPI    C3 5363   3.349  15.497  12.059 -0.0150 -0.2814  0.0444
  336loPI   PO4 5364   3.669  15.559  11.463  0.0696  0.1467  0.1485
  336loPI   GL1 5365   3.771  15.329  11.036 -0.2512 -0.1494  0.1798
  336loPI   GL2 5366   4.046  15.351  10.864 -0.1917  0.3380  0.0068
  336loPI   C1A 5367   3.518  15.190  10.760 -0.0211 -0.0571  0.0332
  336loPI   C2A 5368   3.508  15.169  10.360 -0.0802 -0.2320 -0.0487
  336loPI   C3A 5369   3.462  15.264  10.004 -0.2882 -0.1134 -0.0258
  336loPI   C4A 5370   3.376  15.321   9.526 -0.3843  0.1379 -0.2150
  336loPI   C5A 5371   3.470  15.327   9.134  0.0966  0.1759  0.1288
  336loPI   C6A 5372   3.106  15.316   8.848  0.0651 -0.2421  0.1865
  336loPI   C1B 5373   3.938  15.405  10.479 -0.0428  0.0826  0.0121
  336loPI   C2B 5374   3.937  15.482   9.978  0.0891 -0.0868 -0.1734
  336loPI   C3B 5375   3.870  15.499   9.538  0.1139 -0.4204 -0.0790
  336loPI   C4B 5376   3.924  15.575   9.123  0.0583 -0.0282  0.3365
  337loPI    C1 5377   7.979  16.258  11.473 -0.0687 -0.2607 -0.4271
  337loPI    C2 5378   7.886  15.955  11.717  0.2236  0.1218  0.1834
  337loPI    C3 5379   7.664  16.287  11.718  0.0690  0.0275 -0.2801
  337loPI   PO4 5380   7.909  16.152  11.246 -0.1503  0.1382  0.2655
  337loPI   GL1 5381   7.583  16.090  10.980 -0.1636  0.0364  0.0769
  337loPI   GL2 5382   7.549  15.738  10.882 -0.0509  0.0010  0.0826
  337loPI   C1A 5383   7.725  16.275  10.563  0.2178 -0.1881  0.0054
  337loPI   C2A 5384   7.749  16.184  10.111  0.0292  0.0225  0.1475
  337loPI   C3A 5385   7.770  16.154   9.633  0.1193  0.0996  0.1972
  337loPI   C4A 5386   7.671  16.183   9.134  0.1300 -0.5273  0.1284
  337loPI   C5A 5387   7.855  16.266   8.799  0.1569  0.2558  0.1633
  337loPI   C6A 5388   8.133  16.565   8.779  0.0758 -0.0321  0.2394
  337loPI   C1B 5389   7.603  15.595  10.401  0.2498 -0.1567 -0.2841
  337loPI   C2B 5390   7.670  15.681   9.982  0.1798 -0.4125 -0.1077
  337loPI   C3B 5391   7.549  15.643   9.592  0.0651  0.3079  0.2238
  337loPI   C4B 5392   7.655  15.633   9.188  0.2377 -0.1630 -0.1810
  338loPI    C1 5393  13.682   6.928  11.371  0.0176  0.0869  0.1818
  338loPI    C2 5394  13.555   6.663  11.643  0.0537 -0.2513 -0.1225
  338loPI    C3 5395  13.944   6.755  11.619  0.0245 -0.0714  0.0658
  338loPI   PO4 5396  13.493   6.800  11.122  0.2371  0.1675 -0.1887
  338loPI   GL1 5397  13.517   6.518  10.819 -0.2726 -0.1864  0.3538
  338loPI   GL2 5398  13.842   6.342  10.714  0.7565 -0.4001  0.1687
  338loPI   C1A 5399  13.275   6.665  10.448 -0.0071  0.0726  0.3296
  338loPI   C2A 5400  13.371   6.826  10.005 -0.0505 -0.0366 -0.1135
  338loPI   C3A 5401  13.361   6.913   9.631 -0.1793 -0.0248  0.1489
  338loPI   C4A 5402  13.287   6.853   9.222 -0.1771 -0.3895  0.2155
  338loPI   C5A 5403  13.141   6.800   8.809  0.0760  0.1918 -0.0893
  338loPI   C6A 5404  13.235   6.443   8.508  0.0510 -0.0721 -0.0913
  338loPI   C1B 5405  13.688   6.339  10.259  0.0968 -0.1532  0.3148
  338loPI   C2B 5406  13.728   6.461   9.785 -0.1036  0.3743  0.0101
  338loPI   C3B 5407  13.635   6.540   9.381  0.1687 -0.0944  0.0098
  338loPI   C4B 5408  13.482   6.356   8.959 -0.0634  0.4235  0.1786
  339loPI    C1 5409  14.813   4.521  11.367  0.1648 -0.1076 -0.1350
  339loPI    C2 5410  14.909   4.909  11.381 -0.2223 -0.0136  0.0495
  339loPI    C3 5411  14.973   4.676  11.699 -0.4975  0.0263  0.1365
  339loPI   PO4 5412  14.931   4.497  11.091 -0.3026  0.1702  0.2930
  339loPI   GL1 5413  14.966   4.403  10.702  0.1979  0.0136  0.0307
  339loPI   GL2 5414  15.259   4.219  10.837  0.0026  0.1808 -0.0009
  339loPI   C1A 5415  14.973   4.443  10.294  0.1327 -0.2085  0.0275
  339loPI   C2A 5416  15.095   4.513   9.915 -0.0074  0.1469 -0.0102
  339loPI   C3A 5417  15.104   4.516   9.490 -0.0470 -0.1764 -0.2348
  339loPI   C4A 5418  15.120   4.532   9.048 -0.0318  0.0715 -0.0166
  339loPI   C5A 5419  14.849   4.592   8.692 -0.1961 -0.0868 -0.2226
  339loPI   C6A 5420  14.508   4.707   8.467  0.0034 -0.2078  0.0179
  339loPI   C1B 5421  15.363   4.172  10.477  0.0754  0.3100  0.0090
  339loPI   C2B 5422  15.483   4.135  10.047  0.0006  0.1457 -0.0310
  339loPI   C3B 5423  15.488   4.157   9.630 -0.0760  0.1855 -0.0674
  339loPI   C4B 5424  15.485   4.228   9.198 -0.0208 -0.2814 -0.1202
  340loPI    C1 5425  10.846  11.425  11.850 -0.0881 -0.1890  0.1499
  340loPI    C2 5426  10.481  11.435  11.686 -0.1538 -0.1826  0.2955
  340loPI    C3 5427  10.537  11.257  12.040 -0.0061 -0.2264  0.2509
  340loPI   PO4 5428  10.998  11.551  11.591  0.0035  0.0706  0.0711
  340loPI   GL1 5429  11.130  11.473  11.175  0.0656  0.0751  0.0389
  340loPI   GL2 5430  10.880  11.550  11.045  0.2975 -0.4868  0.1043
  340loPI   C1A 5431  11.206  11.209  10.787 -0.2146  0.0951  0.0786
  340loPI   C2A 5432  11.239  11.107  10.326  0.0879 -0.1276  0.0424
  340loPI   C3A 5433  11.238  11.197   9.850  0.0153  0.1707 -0.1341
  340loPI   C4A 5434  11.263  11.209   9.400 -0.3442 -0.2860  0.2886
  340loPI   C5A 5435  11.063  11.205   8.890 -0.0317  0.0193 -0.2063
  340loPI   C6A 5436  10.723  10.949   8.703  0.0293  0.1705  0.2735
  340loPI   C1B 5437  10.867  11.509  10.618  0.1560  0.4594 -0.1916
  340loPI   C2B 5438  10.886  11.565  10.235 -0.2256  0.0786  0.1346
  340loPI   C3B 5439  10.925  11.551   9.710  0.0488  0.1852  0.1836
  340loPI   C4B 5440  10.804  11.514   9.333 -0.1116  0.1968  0.0596
  341loPI    C1 5441  12.909  16.202  11.657 -0.3966  0.1705  0.0338
  341loPI    C2 5442  13.199  16.142  11.926 -0.1853  0.1509 -0.1943
  341loPI    C3 5443  12.859  15.932  11.947 -0.1368  0.0902  0.0063
  341loPI   PO4 5444  12.967  16.135  11.395  0.1730  0.0863 -0.1566
  341loPI   GL1 5445  13.115  16.299  10.990  0.0644 -0.0273 -0.1067
  341loPI   GL2 5446  13.292  16.469  11.119  0.1817 -0.3299 -0.0864
  341loPI   C1A 5447  12.858  16.354  10.631 -0.0414 -0.3704 -0.0297
  341loPI   C2A 5448  12.785  16.395  10.225  0.0249  0.2414 -0.1883
  341loPI   C3A 5449  12.736  16.511   9.813  0.0110  0.2321 -0.4465
  341loPI   C4A 5450  12.807  16.508   9.366 -0.1364  0.1010 -0.1639
  341loPI   C5A 5451  13.051  16.504   8.947 -0.2371 -0.1523  0.0010
  341loPI   C6A 5452  13.366  16.756   8.750  0.0086 -0.0412  0.1140
  341loPI   C1B 5453  13.337  16.459  10.574  0.1511 -0.1651  0.1472
  341loPI   C2B 5454  13.310  16.508  10.140 -0.0659 -0.4730  0.0672
  341loPI   C3B 5455  13.349  16.591   9.740 -0.1086  0.1032 -0.0090
  341loPI   C4B 5456  13.390  16.641   9.330 -0.2974 -0.0249  0.2437
  342loPI    C1 5457   0.893  12.679  11.540  0.1246 -0.1048 -0.0806
  342loPI    C2 5458   0.853  13.072  11.602  0.2044 -0.0703 -0.2405
  342loPI    C3 5459   1.154  12.872  11.773  0.0089 -0.1155  0.0592
  342loPI   PO4 5460   0.929  12.636  11.326  0.0475 -0.2045  0.0002
  342loPI   GL1 5461   0.671  12.567  10.842  0.3083 -0.0905  0.0222
  342loPI   GL2 5462   0.828  12.270  11.001 -0.1129 -0.2259 -0.0283
  342loPI   C1A 5463   0.636  12.510  10.360 -0.0598 -0.2452  0.0975
  342loPI   C2A 5464   0.632  12.494   9.955  0.0381  0.2681  0.1300
  342loPI   C3A 5465   0.496  12.565   9.562  0.3107 -0.1158  0.0627
  342loPI   C4A 5466   0.475  12.546   9.071 -0.1588 -0.0440  0.0104
  342loPI   C5A 5467   0.623  12.681   8.641 -0.0124  0.1174  0.2582
  342loPI   C6A 5468   0.500  12.949   8.359  0.1506 -0.0656  0.0179
  342loPI   C1B 5469   0.971  12.199  10.533 -0.3498 -0.0639  0.2006
  342loPI   C2B 5470   0.972  12.130  10.069 -0.2012  0.0733  0.0400
  342loPI   C3B 5471   0.922  12.175   9.620 -0.0399  0.1911  0.1479
  342loPI   C4B 5472   0.856  12.249   9.105 -0.1136 -0.2788 -0.0863
  343loPI    C1 5473   4.125   4.463  11.737  0.1989 -0.0407 -0.0988
  343loPI    C2 5474   4.461   4.550  11.936  0.1625 -0.0335 -0.0403
  343loPI    C3 5475   4.249   4.225  12.034  0.3242 -0.2175 -0.2898
  343loPI   PO4 5476   4.261   4.421  11.458  0.0224 -0.1983 -0.0342
  343loPI   GL1 5477   4.138   4.394  10.968  0.0949 -0.0169  0.1740
  343loPI   GL2 5478   4.252   4.684  10.905  0.0008  0.0484  0.2797
  343loPI   C1A 5479   4.114   4.226  10.556  0.2102  0.3846 -0.2050
  343loPI   C2A 5480   4.065   4.312  10.188 -0.3455 -0.4373  0.0147
  343loPI   C3A 5481   4.049   4.366   9.706  0.2351 -0.0360  0.1553
  343loPI   C4A 5482   4.168   4.404   9.276 -0.2173  0.0435  0.0327
  343loPI   C5A 5483   4.156   4.494   8.917 -0.5239 -0.1745 -0.0717
  343loPI   C6A 5484   4.297   4.816   8.681 -0.1119  0.0876 -0.0641
  343loPI   C1B 5485   4.141   4.715  10.422 -0.1235 -0.0745 -0.0162
  343loPI   C2B 5486   4.167   4.822  10.040  0.1334  0.1423  0.1950
  343loPI   C3B 5487   4.342   4.842   9.668 -0.1259 -0.3178 -0.0131
  343loPI   C4B 5488   4.256   4.911   9.294 -0.1566  0.0121  0.2972
  344loPI    C1 5489  13.962  17.091  11.752 -0.0094 -0.0859 -0.2226
  344loPI    C2 5490  14.330  17.209  11.855 -0.0859 -0.1054  0.0855
  344loPI    C3 5491  14.098  17.025  12.123 -0.2469 -0.2761 -0.1671
  344loPI   PO4 5492  13.992  17.037  11.479 -0.2972 -0.0918 -0.2883
  344loPI   GL1 5493  14.151  17.113  11.159 -0.2498 -0.0415 -0.0253
  344loPI   GL2 5494  14.356  17.278  11.009 -0.1424  0.2345  0.1254
  344loPI   C1A 5495  14.199  16.863  10.765 -0.1248  0.0693 -0.1407
  344loPI   C2A 5496  14.218  16.846  10.352 -0.0055  0.0897  0.0877
  344loPI   C3A 5497  14.252  16.925   9.978 -0.1658 -0.0759  0.0671
  344loPI   C4A 5498  14.274  16.932   9.595 -0.1469  0.0099  0.1290
  344loPI   C5A 5499  14.326  16.950   9.078 -0.4903  0.1110  0.0166
  344loPI   C6A 5500  14.442  16.804   8.646  0.2688  0.2833  0.1398
  344loPI   C1B 5501  14.342  17.283  10.546 -0.2035 -0.3211 -0.2427
  344loPI   C2B 5502  14.412  17.304  10.158 -0.1138 -0.0373 -0.0174
  344loPI   C3B 5503  14.423  17.426   9.688  0.1244  0.1235  0.3686
  344loPI   C4B 5504  14.404  17.414   9.280  0.0301 -0.1007 -0.3224
  345loPI    C1 5505  17.030   1.760  11.244  0.0081  0.1602 -0.0715
  345loPI    C2 5506  16.979   1.841  11.632  0.2127  0.1315 -0.0376
  345loPI    C3 5507  16.744   1.573  11.451  0.0120  0.2622  0.0268
  345loPI   PO4 5508  16.970   1.980  11.127 -0.1629 -0.1202 -0.0823
  345loPI   GL1 5509  17.063   2.105  10.698 -0.0603 -0.0562 -0.0790
  345loPI   GL2 5510  16.854   2.376  10.757 -0.3488  0.0263 -0.0504
  345loPI   C1A 5511  17.192   1.945  10.263  0.1438  0.1688  0.0882
  345loPI   C2A 5512  17.200   1.843   9.827  0.1838 -0.0010  0.0490
  345loPI   C3A 5513  17.273   1.915   9.532  0.0006 -0.0753  0.0633
  345loPI   C4A 5514  17.265   1.970   9.074 -0.1173  0.0939 -0.2215
  345loPI   C5A 5515  17.127   1.846   8.674  0.2545 -0.0215  0.0562
  345loPI   C6A 5516  16.931   1.653   8.341  0.0136  0.2091 -0.1701
  345loPI   C1B 5517  16.831   2.280  10.280 -0.0923 -0.1444 -0.2792
  345loPI   C2B 5518  16.868   2.280   9.893  0.1765  0.0126  0.2298
  345loPI   C3B 5519  16.882   2.229   9.471 -0.1920 -0.3765  0.1628
  345loPI   C4B 5520  16.875   2.274   9.028 -0.0510 -0.1925  0.0147
  346loPI    C1 5521   6.876   0.073  11.453  0.0945 -0.1124  0.0645
  346loPI    C2 5522   6.862   0.434  11.625  0.0299 -0.0934  0.0193
  346loPI    C3 5523   6.961   0.113  11.842 -0.2024 -0.0930  0.1294
  346loPI   PO4 5524   7.040   0.134  11.254  0.0147 -0.3761  0.3946
  346loPI   GL1 5525   6.896   0.227  10.905  0.1180 -0.0933 -0.0264
  346loPI   GL2 5526   7.020  -0.018  10.764  0.2889  0.2832  0.0135
  346loPI   C1A 5527   6.847   0.424  10.470 -0.2790 -0.0719  0.1291
  346loPI   C2A 5528   6.882   0.534  10.073 -0.5127 -0.2364 -0.0376
  346loPI   C3A 5529   6.896   0.543   9.604  0.1503  0.0686  0.2539
  346loPI   C4A 5530   6.861   0.597   9.222 -0.0987 -0.1089 -0.1019
  346loPI   C5A 5531   6.712   0.531   8.798  0.0104 -0.1007  0.1991
  346loPI   C6A 5532   6.547   0.513   8.497  0.2029  0.1793 -0.0206
  346loPI   C1B 5533   6.789  -0.081  10.401  0.1334  0.1615  0.0164
  346loPI   C2B 5534   6.754  -0.042   9.929  0.1674 -0.2573 -0.1653
  346loPI   C3B 5535   6.670   0.073   9.503 -0.0039 -0.0360  0.1660
  346loPI   C4B 5536   6.705   0.074   9.081 -0.3137 -0.3495 -0.1871
  347loPI    C1 5537   8.949  12.488  11.414  0.1343  0.0446 -0.0017
  347loPI    C2 5538   8.582  12.517  11.571  0.0350  0.0815 -0.2367
  347loPI    C3 5539   8.895  12.675  11.763 -0.0531 -0.0574  0.0254
  347loPI   PO4 5540   8.893  12.565  11.142 -0.1566 -0.0860 -0.1041
  347loPI   GL1 5541   8.966  12.592  10.727 -0.0596 -0.1118  0.3710
  347loPI   GL2 5542   9.228  12.427  10.748  0.1390  0.1154  0.1757
  347loPI   C1A 5543   8.827  12.783  10.322  0.5225  0.0366 -0.1631
  347loPI   C2A 5544   8.779  12.778   9.929 -0.3411 -0.1006  0.2136
  347loPI   C3A 5545   8.821  12.833   9.539  0.3233  0.3129 -0.0628
  347loPI   C4A 5546   8.780  12.859   9.160  0.1359 -0.0105 -0.0933
  347loPI   C5A 5547   8.751  12.852   8.790 -0.0739 -0.0771 -0.1394
  347loPI   C6A 5548   8.367  13.013   8.557  0.0578  0.0315  0.1565
  347loPI   C1B 5549   9.220  12.479  10.296 -0.2133 -0.0881 -0.0337
  347loPI   C2B 5550   9.238  12.436   9.871 -0.1855 -0.0241 -0.1337
  347loPI   C3B 5551   9.137  12.483   9.356 -0.0456  0.1021  0.0990
  347loPI   C4B 5552   9.171  12.520   8.924  0.1362 -0.0272 -0.1502
  348loPI    C1 5553   0.591  13.443  11.369  0.0496  0.2527 -0.0912
  348loPI    C2 5554   0.708  13.580  11.727 -0.2392  0.1361  0.0512
  348loPI    C3 5555   0.406  13.319  11.701 -0.1504  0.0604 -0.2715
  348loPI   PO4 5556   0.909  13.303  11.196  0.1849  0.0316  0.3811
  348loPI   GL1 5557   0.909  13.030  10.928 -0.1722  0.1257  0.0945
  348loPI   GL2 5558   1.149  12.767  10.802  0.1192 -0.0322  0.0499
  348loPI   C1A 5559   0.733  13.010  10.609  0.0085  0.1390  0.3539
  348loPI   C2A 5560   0.723  13.012  10.232 -0.1041  0.0754 -0.0629
  348loPI   C3A 5561   0.703  12.992   9.731  0.1608 -0.1401 -0.0418
  348loPI   C4A 5562   0.592  13.069   9.252 -0.1017  0.1479  0.0363
  348loPI   C5A 5563   0.429  13.154   8.861  0.0108 -0.2024  0.0587
  348loPI   C6A 5564   0.484  13.456   8.577 -0.1900  0.1573 -0.0753
  348loPI   C1B 5565   1.089  12.680  10.347 -0.0633  0.0138 -0.0105
  348loPI   C2B 5566   1.054  12.655   9.832 -0.2380 -0.0566 -0.1191
  348loPI   C3B 5567   1.012  12.652   9.420  0.0396  0.1601 -0.1464
  348loPI   C4B 5568   1.085  12.713   8.973  0.0753 -0.2577  0.2267
  349loPI    C1 5569   0.759   7.164  11.127 -0.1907  0.3634  0.0392
  349loPI    C2 5570   0.867   7.001  11.476  0.1165 -0.0385 -0.2345
  349loPI    C3 5571   0.604   7.302  11.469 -0.1418 -0.2384  0.3167
  349loPI   PO4 5572   0.963   7.155  10.954 -0.1418  0.1344 -0.0508
  349loPI   GL1 5573   1.119   6.862  10.711  0.0513  0.2059 -0.0456
  349loPI   GL2 5574   1.108   6.619  10.539  0.2350 -0.2922  0.0569
  349loPI   C1A 5575   1.128   7.093  10.308 -0.2472 -0.0902  0.1695
  349loPI   C2A 5576   1.147   7.035   9.861 -0.2500 -0.1412  0.0900
  349loPI   C3A 5577   1.141   7.058   9.518  0.1203 -0.2602 -0.0348
  349loPI   C4A 5578   1.275   7.159   9.059  0.0265 -0.0381  0.1956
  349loPI   C5A 5579   1.052   7.158   8.593 -0.2007 -0.0390  0.1751
  349loPI   C6A 5580   1.013   7.312   8.186  0.1871 -0.1618 -0.1070
  349loPI   C1B 5581   1.056   6.550  10.179  0.0244 -0.1306 -0.2356
  349loPI   C2B 5582   1.062   6.564   9.767 -0.3624  0.0753  0.1146
  349loPI   C3B 5583   1.001   6.637   9.278 -0.0055  0.2502 -0.0395
  349loPI   C4B 5584   1.131   6.675   8.919 -0.1579 -0.0089 -0.1144
  350loPI    C1 5585   8.290   8.166  11.030 -0.1359 -0.2416 -0.1466
  350loPI    C2 5586   8.594   8.319  11.240 -0.1181 -0.3342 -0.1044
  350loPI    C3 5587   8.281   8.159  11.430 -0.2368 -0.1561 -0.1468
  350loPI   PO4 5588   8.208   8.231  10.857  0.0152  0.1877 -0.0468
  350loPI   GL1 5589   8.275   8.259  10.486  0.0704  0.4193  0.0708
  350loPI   GL2 5590   8.262   8.549  10.500  0.0253  0.0701  0.1012
  350loPI   C1A 5591   8.258   8.351   9.981  0.3545 -0.2520  0.2419
  350loPI   C2A 5592   8.271   8.439   9.539 -0.2869  0.0898 -0.0299
  350loPI   C3A 5593   8.205   8.428   9.101  0.0689 -0.2240  0.4140
  350loPI   C4A 5594   8.226   8.342   8.764 -0.0893 -0.0740 -0.0198
  350loPI   C5A 5595   8.436   8.335   8.418 -0.0792  0.2114  0.0243
  350loPI   C6A 5596   8.571   8.153   8.026 -0.1829 -0.1090 -0.1796
  350loPI   C1B 5597   7.967   8.670  10.227 -0.0550 -0.0798 -0.2630
  350loPI   C2B 5598   7.913   8.746   9.766 -0.0368  0.1855 -0.0938
  350loPI   C3B 5599   7.883   8.830   9.299  0.1400 -0.0034  0.0594
  350loPI   C4B 5600   7.882   8.799   8.822 -0.1739  0.3459  0.0308
  351loPI    C1 5601  12.838  12.032  11.517 -0.1034 -0.5955 -0.0012
  351loPI    C2 5602  12.450  12.083  11.438 -0.0258  0.0588 -0.0122
  351loPI    C3 5603  12.592  12.164  11.803  0.1061 -0.1662 -0.0118
  351loPI   PO4 5604  12.865  11.785  11.462 -0.0670  0.3742 -0.0199
  351loPI   GL1 5605  12.662  11.414  11.225 -0.1766  0.0380 -0.0665
  351loPI   GL2 5606  12.603  11.115  11.018 -0.0767 -0.2054 -0.0195
  351loPI   C1A 5607  12.611  11.683  10.753 -0.0199 -0.2326 -0.1772
  351loPI   C2A 5608  12.711  11.711  10.308 -0.1028  0.0283 -0.1956
  351loPI   C3A 5609  12.703  11.687   9.938  0.0259  0.2366 -0.2268
  351loPI   C4A 5610  12.665  11.655   9.548 -0.1766  0.0242  0.1286
  351loPI   C5A 5611  12.728  11.655   9.150 -0.3572  0.0208  0.2286
  351loPI   C6A 5612  12.570  11.752   8.742 -0.0683  0.1279  0.0302
  351loPI   C1B 5613  12.541  11.204  10.589  0.1754 -0.1670 -0.1563
  351loPI   C2B 5614  12.558  11.117  10.124  0.2644  0.1429 -0.0768
  351loPI   C3B 5615  12.590  11.174   9.654 -0.0129 -0.0224 -0.0173
  351loPI   C4B 5616  12.590  11.179   9.134 -0.1706 -0.3495 -0.0308
  352loPI    C1 5617   4.550  16.498  11.529 -0.0014 -0.0298  0.1093
  352loPI    C2 5618   4.871  16.515  11.766  0.0371  0.1717  0.0442
  352loPI    C3 5619   4.610  16.818  11.761 -0.2282 -0.0505  0.1994
  352loPI   PO4 5620   4.653  16.494  11.282 -0.0122  0.1295  0.0690
  352loPI   GL1 5621   4.528  16.510  10.844  0.1256  0.1835 -0.3367
  352loPI   GL2 5622   4.317  16.736  10.889 -0.0863 -0.1486  0.1160
  352loPI   C1A 5623   4.664  16.501  10.442  0.0913  0.2426 -0.1261
  352loPI   C2A 5624   4.645  16.627  10.074 -0.4746  0.0336  0.3671
  352loPI   C3A 5625   4.622  16.624   9.651 -0.0638 -0.0710  0.1624
  352loPI   C4A 5626   4.630  16.624   9.200 -0.0801 -0.0030 -0.0279
  352loPI   C5A 5627   4.769  16.718   8.781 -0.1703  0.2504  0.0201
  352loPI   C6A 5628   4.931  16.766   8.431  0.1178 -0.2059 -0.0333
  352loPI   C1B 5629   4.300  16.843  10.498 -0.1366 -0.0782  0.2379
  352loPI   C2B 5630   4.183  16.934  10.022  0.1513  0.0632  0.0972
  352loPI   C3B 5631   4.235  16.957   9.523 -0.0258  0.0540  0.1606
  352loPI   C4B 5632   4.330  16.958   9.053  0.2228 -0.0263  0.2895
  353loPI    C1 5633   6.864  16.584  11.491  0.1259  0.1597  0.0195
  353loPI    C2 5634   6.653  16.269  11.620 -0.1382  0.2465 -0.1911
  353loPI    C3 5635   6.852  16.497  11.881 -0.0294 -0.0326 -0.0261
  353loPI   PO4 5636   6.894  16.471  11.222 -0.2635  0.1876  0.2427
  353loPI   GL1 5637   6.602  16.467  10.919 -0.0644 -0.2895 -0.0072
  353loPI   GL2 5638   6.267  16.479  10.887  0.1276 -0.1093 -0.2905
  353loPI   C1A 5639   6.747  16.380  10.592  0.0367  0.2207  0.1247
  353loPI   C2A 5640   6.833  16.328  10.149  0.2949  0.0892  0.1058
  353loPI   C3A 5641   6.986  16.327   9.724  0.1070  0.4050  0.0026
  353loPI   C4A 5642   6.875  16.334   9.258 -0.3250 -0.0457 -0.1135
  353loPI   C5A 5643   6.722  16.526   8.864 -0.2769 -0.0837 -0.0627
  353loPI   C6A 5644   6.846  16.722   8.610  0.2672 -0.4362  0.1520
  353loPI   C1B 5645   5.988  16.560  10.540 -0.1872  0.0084 -0.0646
  353loPI   C2B 5646   5.987  16.484  10.128 -0.0512 -0.0581  0.0745
  353loPI   C3B 5647   6.030  16.590   9.804 -0.2973 -0.0822 -0.0275
  353loPI   C4B 5648   5.997  16.657   9.340 -0.2440 -0.2757 -0.0811
  354loPI    C1 5649   6.346  16.644  11.338 -0.2212  0.1448  0.0515
  354loPI    C2 5650   6.251  16.517  11.705 -0.0916 -0.1927 -0.0274
  354loPI    C3 5651   6.138  16.306  11.385  0.0541 -0.0605 -0.1678
  354loPI   PO4 5652   6.253  16.978  11.339 -0.0832 -0.1091 -0.0130
  354loPI   GL1 5653   6.086  17.195  10.917 -0.1885  0.4422  0.2279
  354loPI   GL2 5654   6.335  16.988  10.866  0.1854  0.0743 -0.1663
  354loPI   C1A 5655   6.029  17.074  10.450 -0.0009  0.0497  0.0362
  354loPI   C2A 5656   6.072  17.011  10.098  0.0880  0.2093  0.3702
  354loPI   C3A 5657   6.114  17.071   9.660 -0.0153  0.2833  0.2304
  354loPI   C4A 5658   6.060  17.172   9.225  0.2486 -0.1308 -0.0407
  354loPI   C5A 5659   6.062  17.121   8.836  0.0129 -0.0548  0.0175
  354loPI   C6A 5660   6.408  16.909   8.695  0.1943  0.1167 -0.1129
  354loPI   C1B 5661   6.441  16.738  10.465 -0.0381 -0.3920 -0.0431
  354loPI   C2B 5662   6.512  16.687  10.013  0.0547 -0.0247 -0.2841
  354loPI   C3B 5663   6.600  16.685   9.657  0.2531  0.0571 -0.0287
  354loPI   C4B 5664   6.521  16.812   9.195 -0.0458 -0.2864  0.3559
  355loPI    C1 5665  10.104  17.149  11.526 -0.0948 -0.2688  0.1208
  355loPI    C2 5666  10.374  16.943  11.739 -0.2542 -0.2583  0.3367
  355loPI    C3 5667  10.146  17.219  11.918 -0.1655 -0.0170  0.0849
  355loPI   PO4 5668  10.196  17.229  11.314 -0.1784  0.0449 -0.1587
  355loPI   GL1 5669  10.054  17.416  10.924 -0.2518 -0.0728  0.0108
  355loPI   GL2 5670   9.754  17.321  10.756  0.1058  0.1584 -0.1294
  355loPI   C1A 5671  10.221  17.495  10.469  0.1042 -0.2997 -0.0279
  355loPI   C2A 5672  10.247  17.428   9.994  0.1519  0.0932  0.1591
  355loPI   C3A 5673  10.356  17.562   9.573 -0.2275  0.1301  0.2414
  355loPI   C4A 5674  10.380  17.520   9.197  0.1316  0.1762 -0.0012
  355loPI   C5A 5675  10.352  17.610   8.791  0.2365 -0.0721  0.0379
  355loPI   C6A 5676  10.353  17.931   8.467 -0.0911  0.0029 -0.0190
  355loPI   C1B 5677   9.813  17.221  10.320  0.0593  0.1368  0.1926
  355loPI   C2B 5678   9.731  17.376   9.919 -0.0817  0.2170  0.0958
  355loPI   C3B 5679   9.792  17.396   9.439 -0.1911 -0.1321 -0.1127
  355loPI   C4B 5680   9.904  17.417   9.003  0.1012 -0.1986  0.0576
  356loPI    C1 5681   2.683   7.219  11.645 -0.0982 -0.0896  0.0764
  356loPI    C2 5682   2.918   7.172  11.965 -0.0867 -0.2004  0.0521
  356loPI    C3 5683   2.530   7.256  12.012 -0.0253  0.0693  0.0915
  356loPI   PO4 5684   2.828   7.399  11.439 -0.1292 -0.1679 -0.0208
  356loPI   GL1 5685   3.099   7.546  11.070  0.2634 -0.0713 -0.0281
  356loPI   GL2 5686   3.188   7.272  11.144 -0.1226 -0.0140 -0.0479
  356loPI   C1A 5687   3.169   7.683  10.721  0.2103 -0.1816 -0.1805
  356loPI   C2A 5688   3.097   7.684  10.295 -0.0403  0.2435  0.0312
  356loPI   C3A 5689   3.141   7.805   9.800  0.2693 -0.1878 -0.0154
  356loPI   C4A 5690   3.145   7.719   9.425  0.1293 -0.0397 -0.0070
  356loPI   C5A 5691   3.164   7.699   9.044  0.1053 -0.0498 -0.1329
  356loPI   C6A 5692   3.215   7.775   8.576  0.1650 -0.2562  0.0400
  356loPI   C1B 5693   3.031   7.171  10.701 -0.1657  0.0792  0.1219
  356loPI   C2B 5694   3.008   7.205  10.278  0.0102 -0.1238 -0.1821
  356loPI   C3B 5695   2.994   7.285   9.865  0.1833  0.3815 -0.0437
  356loPI   C4B 5696   3.011   7.261   9.429  0.0750 -0.0127  0.2785
  357loPI    C1 5697   5.177   9.785  11.269 -0.2622 -0.0338 -0.0756
  357loPI    C2 5698   5.408   9.504  11.434 -0.0335  0.1205 -0.1275
  357loPI    C3 5699   5.136   9.696  11.656 -0.1646 -0.1125 -0.0832
  357loPI   PO4 5700   5.159   9.733  11.064  0.0452 -0.0840 -0.0635
  357loPI   GL1 5701   5.307   9.783  10.765  0.0936 -0.2316  0.2538
  357loPI   GL2 5702   5.497   9.834  10.599  0.1840 -0.2101 -0.0454
  357loPI   C1A 5703   5.000   9.670  10.431  0.0647 -0.0396  0.1902
  357loPI   C2A 5704   4.999   9.623  10.045 -0.0806  0.2986 -0.1705
  357loPI   C3A 5705   4.954   9.682   9.586 -0.0347  0.1211 -0.1730
  357loPI   C4A 5706   4.917   9.738   9.166 -0.3784 -0.3095  0.0815
  357loPI   C5A 5707   5.021   9.635   8.760 -0.2340 -0.2712 -0.1400
  357loPI   C6A 5708   5.396   9.422   8.652  0.2481 -0.2919  0.1494
  357loPI   C1B 5709   5.427   9.831  10.231  0.0459  0.0541  0.0931
  357loPI   C2B 5710   5.438   9.817   9.877 -0.1261 -0.0353 -0.2221
  357loPI   C3B 5711   5.430   9.870   9.402  0.1182 -0.1917 -0.3759
  357loPI   C4B 5712   5.426   9.793   8.982  0.1453 -0.1115  0.1564
  358loPI    C1 5713   1.505   1.826  11.647  0.1439  0.0793  0.0535
  358loPI    C2 5714   1.587   2.196  11.777  0.0831  0.0740  0.1074
  358loPI    C3 5715   1.295   1.984  11.949  0.0833  0.0206  0.0420
  358loPI   PO4 5716   1.538   1.845  11.397 -0.0986  0.1124 -0.2824
  358loPI   GL1 5717   1.608   2.024  11.036 -0.0271 -0.1153 -0.0065
  358loPI   GL2 5718   1.362   1.953  10.904 -0.1287 -0.1344 -0.1866
  358loPI   C1A 5719   1.861   2.210  10.698  0.0429 -0.1663 -0.0149
  358loPI   C2A 5720   1.797   2.117  10.268  0.3709  0.1567 -0.0729
  358loPI   C3A 5721   1.800   2.136   9.873 -0.0847 -0.3228 -0.0434
  358loPI   C4A 5722   1.811   2.201   9.459  0.3624  0.0944  0.1885
  358loPI   C5A 5723   1.784   2.235   9.091  0.0354  0.0309 -0.2011
  358loPI   C6A 5724   1.857   2.402   8.675  0.2028 -0.2082 -0.4889
  358loPI   C1B 5725   1.327   2.025  10.571 -0.1072 -0.1944 -0.1734
  358loPI   C2B 5726   1.326   1.945  10.100 -0.0991 -0.1905 -0.0456
  358loPI   C3B 5727   1.332   1.990   9.711 -0.0230  0.1380 -0.1051
  358loPI   C4B 5728   1.351   2.073   9.291 -0.1232 -0.1514 -0.0112
  359loPI    C1 5729   6.310  12.452  11.630 -0.1227  0.0685  0.1109
  359loPI    C2 5730   6.506  12.786  11.732 -0.1959  0.1066  0.1272
  359loPI    C3 5731   6.120  12.743  11.828 -0.2006  0.0398  0.0787
  359loPI   PO4 5732   6.311  12.424  11.384  0.0835 -0.0151 -0.1050
  359loPI   GL1 5733   6.196  12.488  10.989  0.0023  0.1887 -0.1055
  359loPI   GL2 5734   6.271  12.734  10.874 -0.0579 -0.0231  0.0883
  359loPI   C1A 5735   6.060  12.254  10.674  0.1883  0.0695 -0.1379
  359loPI   C2A 5736   6.141  12.311  10.206  0.1246  0.0362 -0.3206
  359loPI   C3A 5737   6.010  12.359   9.851  0.2101  0.0028 -0.0867
  359loPI   C4A 5738   5.947  12.387   9.361  0.2754 -0.1090 -0.0910
  359loPI   C5A 5739   6.028  12.411   8.872 -0.2311 -0.1038  0.2419
  359loPI   C6A 5740   6.105  11.982   8.617 -0.0196 -0.0129 -0.0263
  359loPI   C1B 5741   6.235  12.754  10.476  0.0534 -0.1174 -0.0762
  359loPI   C2B 5742   6.143  12.838  10.064  0.2439  0.1553 -0.1128
  359loPI   C3B 5743   6.074  12.886   9.526  0.0242 -0.2889 -0.3006
  359loPI   C4B 5744   6.052  12.889   9.065  0.0829  0.3743 -0.1850
  360loPI    C1 5745  13.307   9.107  11.388  0.0567 -0.1397 -0.2930
  360loPI    C2 5746  13.248   8.712  11.411 -0.0564 -0.1041  0.0882
  360loPI    C3 5747  13.289   8.928  11.745 -0.0754  0.2199 -0.1149
  360loPI   PO4 5748  13.488   9.067  11.161 -0.1073 -0.1346 -0.0744
  360loPI   GL1 5749  13.407   9.018  10.805  0.0864  0.2535 -0.2385
  360loPI   GL2 5750  13.255   8.641  10.915  0.0372  0.2841  0.0294
  360loPI   C1A 5751  13.429   9.087  10.330 -0.0218 -0.1179 -0.1201
  360loPI   C2A 5752  13.457   9.105  10.016  0.1633  0.1722  0.0203
  360loPI   C3A 5753  13.403   9.247   9.587  0.1682 -0.0978 -0.0297
  360loPI   C4A 5754  13.460   9.208   9.130  0.1157  0.0979  0.0009
  360loPI   C5A 5755  13.464   9.324   8.731 -0.3533  0.2909 -0.1963
  360loPI   C6A 5756  13.203   9.373   8.397  0.0957 -0.4547 -0.0637
  360loPI   C1B 5757  13.353   8.584  10.412  0.0073  0.2161  0.0365
  360loPI   C2B 5758  13.370   8.626  10.102  0.0263 -0.0052  0.3963
  360loPI   C3B 5759  13.428   8.721   9.717 -0.2401 -0.0290  0.1456
  360loPI   C4B 5760  13.324   8.669   9.301  0.2088 -0.0147 -0.0246
  361loPI    C1 5761   2.664  10.601  11.552 -0.0129  0.1686  0.1611
  361loPI    C2 5762   2.762  10.445  11.907  0.1018  0.0333  0.0713
  361loPI    C3 5763   3.041  10.489  11.624 -0.0044  0.0709 -0.0283
  361loPI   PO4 5764   2.440  10.398  11.451  0.0146  0.1961 -0.1627
  361loPI   GL1 5765   2.289  10.537  10.928 -0.2243  0.0921 -0.0339
  361loPI   GL2 5766   2.383  10.238  10.735 -0.1034  0.0618 -0.0048
  361loPI   C1A 5767   2.409  10.720  10.521  0.2126 -0.0337 -0.0111
  361loPI   C2A 5768   2.494  10.710  10.126  0.3304  0.1316  0.1345
  361loPI   C3A 5769   2.336  10.754   9.634 -0.1063 -0.1238 -0.1320
  361loPI   C4A 5770   2.465  10.751   9.196 -0.0165 -0.1748 -0.0460
  361loPI   C5A 5771   2.373  10.739   8.864  0.0362  0.1279 -0.2221
  361loPI   C6A 5772   2.457  10.317   8.689  0.1083  0.0039 -0.1920
  361loPI   C1B 5773   2.313  10.127  10.361 -0.0922 -0.0712  0.0991
  361loPI   C2B 5774   2.332  10.250   9.947  0.2275  0.0794 -0.3483
  361loPI   C3B 5775   2.219  10.226   9.569  0.0832  0.0701 -0.3251
  361loPI   C4B 5776   2.287  10.237   9.166 -0.0150 -0.0369 -0.2785
  362loPI    C1 5777  10.318   3.036  11.442  0.0272 -0.1195  0.1554
  362loPI    C2 5778  10.570   2.760  11.585  0.1735 -0.0187  0.0957
  362loPI    C3 5779  10.474   3.077  11.809  0.1877 -0.0001  0.0754
  362loPI   PO4 5780  10.423   3.095  11.217  0.0711 -0.2203  0.1703
  362loPI   GL1 5781  10.343   3.057  10.792 -0.0257  0.3088  0.3648
  362loPI   GL2 5782  10.545   2.831  10.580 -0.1652  0.0053 -0.3701
  362loPI   C1A 5783  10.153   3.049  10.336  0.1029 -0.0567  0.0908
  362loPI   C2A 5784  10.182   2.902   9.929  0.0726  0.3409 -0.0244
  362loPI   C3A 5785  10.125   2.932   9.451 -0.1722  0.2713  0.0886
  362loPI   C4A 5786  10.081   2.963   9.113 -0.0569 -0.0005 -0.2723
  362loPI   C5A 5787  10.194   2.926   8.716 -0.2203 -0.0058 -0.0323
  362loPI   C6A 5788  10.129   3.094   8.294 -0.2226  0.0529  0.1439
  362loPI   C1B 5789  10.514   2.627  10.224 -0.3691 -0.1972  0.1418
  362loPI   C2B 5790  10.547   2.615   9.688  0.1788  0.2146  0.0433
  362loPI   C3B 5791  10.498   2.565   9.246 -0.2405 -0.0001 -0.0630
  362loPI   C4B 5792  10.461   2.566   8.850 -0.1252  0.0383 -0.1407
  363loPI    C1 5793   7.942   1.067  11.638  0.1110  0.1442  0.0162
  363loPI    C2 5794   8.288   0.948  11.800 -0.0414  0.0234  0.2590
  363loPI    C3 5795   8.105   1.275  11.939 -0.0006  0.1159  0.0970
  363loPI   PO4 5796   7.975   1.080  11.376  0.1976  0.0663 -0.1276
  363loPI   GL1 5797   7.809   0.881  10.997 -0.1374 -0.0737 -0.0130
  363loPI   GL2 5798   7.468   1.078  10.939 -0.3123  0.0737  0.0284
  363loPI   C1A 5799   7.765   0.790  10.598 -0.3743  0.3912  0.2894
  363loPI   C2A 5800   7.870   0.794  10.202 -0.3298 -0.0673  0.0279
  363loPI   C3A 5801   7.757   0.772   9.708 -0.0056  0.0490 -0.0768
  363loPI   C4A 5802   7.798   0.852   9.253 -0.4412 -0.3658  0.2046
  363loPI   C5A 5803   7.715   0.978   8.824  0.0462 -0.1458  0.0830
  363loPI   C6A 5804   7.387   1.270   8.706 -0.1772  0.1456  0.0284
  363loPI   C1B 5805   7.432   1.130  10.516 -0.2966  0.2125  0.0026
  363loPI   C2B 5806   7.454   1.087  10.106  0.0632 -0.3108  0.4150
  363loPI   C3B 5807   7.431   1.198   9.686 -0.0311  0.4010  0.0737
  363loPI   C4B 5808   7.401   1.320   9.273 -0.6418  0.1446 -0.0655
  364loPI    C1 5809   7.001   5.288  11.331 -0.0328 -0.2714 -0.0933
  364loPI    C2 5810   7.059   5.192  11.715  0.0433 -0.0822 -0.0565
  364loPI    C3 5811   7.365   5.321  11.492 -0.0093 -0.1516 -0.1700
  364loPI   PO4 5812   6.896   5.031  11.187 -0.0397  0.2747 -0.2686
  364loPI   GL1 5813   6.672   4.994  10.850  0.3360 -0.2679 -0.1068
  364loPI   GL2 5814   6.976   4.857  10.705 -0.0039  0.0382  0.1167
  364loPI   C1A 5815   6.607   4.942  10.354  0.2713  0.1470 -0.1496
  364loPI   C2A 5816   6.576   5.079   9.932  0.0240  0.0542 -0.0982
  364loPI   C3A 5817   6.512   5.158   9.534 -0.2901  0.2845 -0.0504
  364loPI   C4A 5818   6.566   5.335   9.115 -0.1757  0.0110  0.2182
  364loPI   C5A 5819   6.380   5.246   8.732 -0.1881 -0.3196  0.1057
  364loPI   C6A 5820   6.268   5.256   8.234 -0.2247 -0.2105  0.1935
  364loPI   C1B 5821   6.984   4.595  10.328  0.0917  0.0671 -0.1149
  364loPI   C2B 5822   6.903   4.653   9.951  0.1437  0.0805  0.0456
  364loPI   C3B 5823   6.859   4.767   9.599  0.3022 -0.3600  0.2032
  364loPI   C4B 5824   6.906   4.888   9.143  0.2030 -0.0681  0.0835
  365loPI    C1 5825   8.877   1.072  11.752 -0.1023  0.0365 -0.0056
  365loPI    C2 5826   8.687   0.976  12.090 -0.2694 -0.1331 -0.1454
  365loPI    C3 5827   8.975   0.738  11.948  0.0136  0.0940  0.0355
  365loPI   PO4 5828   8.747   1.122  11.571 -0.3715 -0.1465  0.0969
  365loPI   GL1 5829   8.730   1.199  11.064  0.1667  0.0562  0.1538
  365loPI   GL2 5830   8.744   0.920  10.924 -0.2413 -0.1873 -0.1753
  365loPI   C1A 5831   8.883   1.221  10.588  0.1154 -0.0765 -0.0057
  365loPI   C2A 5832   8.885   1.084  10.165  0.2178 -0.0523 -0.1359
  365loPI   C3A 5833   8.816   1.086   9.823 -0.1843 -0.0241  0.1538
  365loPI   C4A 5834   8.784   1.127   9.451  0.0372 -0.0740 -0.1649
  365loPI   C5A 5835   8.810   1.215   9.034  0.0777 -0.0356  0.1634
  365loPI   C6A 5836   8.445   1.499   8.906  0.3671  0.1009  0.0816
  365loPI   C1B 5837   8.746   0.678  10.483  0.0982 -0.5002 -0.2596
  365loPI   C2B 5838   8.681   0.614  10.029  0.0673 -0.0646 -0.0437
  365loPI   C3B 5839   8.657   0.614   9.631 -0.1373 -0.0406  0.1146
  365loPI   C4B 5840   8.708   0.658   9.141  0.0512  0.1977  0.0084
  366loPI    C1 5841   6.823  14.108  11.603  0.1662 -0.0107  0.0283
  366loPI    C2 5842   6.942  13.761  11.762 -0.1803 -0.1415  0.0096
  366loPI    C3 5843   6.903  14.085  11.995 -0.0016 -0.1518  0.0552
  366loPI   PO4 5844   6.932  14.148  11.422  0.0407  0.0249 -0.2342
  366loPI   GL1 5845   6.948  14.144  10.874 -0.2660  0.1758 -0.2169
  366loPI   GL2 5846   6.679  14.022  10.864 -0.1392 -0.2415  0.1580
  366loPI   C1A 5847   6.952  14.459  10.521 -0.2247  0.1136 -0.0094
  366loPI   C2A 5848   6.967  14.488  10.130 -0.1518  0.0781 -0.2994
  366loPI   C3A 5849   6.870  14.469   9.752 -0.1992 -0.0354 -0.0756
  366loPI   C4A 5850   6.834  14.571   9.411 -0.0304  0.1793 -0.0290
  366loPI   C5A 5851   6.847  14.595   9.010 -0.2229 -0.0357 -0.0317
  366loPI   C6A 5852   7.036  14.514   8.682 -0.0331  0.0491 -0.1066
  366loPI   C1B 5853   6.912  13.912  10.423 -0.1057  0.1965  0.2098
  366loPI   C2B 5854   6.843  14.008  10.002  0.2678  0.0017 -0.2752
  366loPI   C3B 5855   6.741  13.925   9.593 -0.4607 -0.2919  0.4372
  366loPI   C4B 5856   6.792  14.071   9.161  0.4025 -0.0610 -0.1672
  367loPI    C1 5857  14.669  17.606  11.726  0.2126 -0.0115  0.1242
  367loPI    C2 5858  14.692  17.445  12.091  0.1473 -0.0399  0.1160
  367loPI    C3 5859  14.374  17.666  11.990  0.2289  0.0814  0.1218
  367loPI   PO4 5860  14.787  17.405  11.604  0.0661  0.0451  0.0321
  367loPI   GL1 5861  14.851  17.311  11.147 -0.0585  0.2037  0.0800
  367loPI   GL2 5862  14.808  16.999  11.003 -0.0753  0.0125  0.0100
  367loPI   C1A 5863  14.906  17.557  10.814 -0.1044  0.1200 -0.3010
  367loPI   C2A 5864  14.881  17.447  10.439 -0.0230  0.1791 -0.1176
  367loPI   C3A 5865  14.843  17.537   9.935 -0.1484  0.1231  0.3242
  367loPI   C4A 5866  14.843  17.560   9.500 -0.0820  0.1772 -0.2747
  367loPI   C5A 5867  14.940  17.471   9.096 -0.0744  0.3812  0.0825
  367loPI   C6A 5868  14.923  17.661   8.615 -0.0994 -0.2254  0.0423
  367loPI   C1B 5869  14.704  16.975  10.548  0.0970 -0.3316  0.1639
  367loPI   C2B 5870  14.829  17.025  10.082 -0.0083  0.1996  0.0139
  367loPI   C3B 5871  14.689  17.081   9.818  0.2010 -0.0188  0.1870
  367loPI   C4B 5872  14.800  17.085   9.380 -0.0698  0.1366 -0.1201
  368loPI    C1 5873  11.508  16.114  11.673 -0.1818  0.1110 -0.0102
  368loPI    C2 5874  11.806  16.020  11.923 -0.0350  0.1065 -0.1844
  368loPI    C3 5875  11.429  16.034  12.057  0.0444  0.1278  0.0412
  368loPI   PO4 5876  11.506  16.030  11.421  0.0002 -0.1140 -0.0011
  368loPI   GL1 5877  11.222  15.966  11.148 -0.3082  0.1181 -0.5364
  368loPI   GL2 5878  11.040  16.169  11.044 -0.2282  0.0863 -0.2084
  368loPI   C1A 5879  11.278  15.899  10.658 -0.1629  0.0272  0.3805
  368loPI   C2A 5880  11.278  15.862  10.322 -0.0437 -0.0090 -0.0188
  368loPI   C3A 5881  11.320  15.890   9.863  0.0176 -0.2902 -0.1822
  368loPI   C4A 5882  11.305  15.871   9.429  0.2121  0.1578 -0.0505
  368loPI   C5A 5883  11.205  16.195   9.045 -0.1329 -0.0244  0.0442
  368loPI   C6A 5884  10.855  16.381   9.128  0.0958  0.1023  0.1788
  368loPI   C1B 5885  10.835  16.317  10.667 -0.2031 -0.3199  0.0975
  368loPI   C2B 5886  10.922  16.260  10.314 -0.0268 -0.1146 -0.0252
  368loPI   C3B 5887  10.999  16.258   9.947  0.1702  0.2933  0.2769
  368loPI   C4B 5888  11.010  16.223   9.565  0.0072  0.0750  0.2382
  369loPI    C1 5889  14.687   1.259  11.758  0.0846  0.0584 -0.0940
  369loPI    C2 5890  14.692   0.935  11.523  0.1550 -0.0238  0.0197
  369loPI    C3 5891  14.504   0.923  11.876 -0.0709  0.1425 -0.0920
  369loPI   PO4 5892  14.721   1.455  11.550 -0.2722  0.2389 -0.3395
  369loPI   GL1 5893  14.744   1.559  11.113 -0.0435 -0.2814  0.0412
  369loPI   GL2 5894  14.471   1.550  11.111  0.0391 -0.2766  0.0624
  369loPI   C1A 5895  14.892   1.573  10.715  0.0207  0.1627 -0.0654
  369loPI   C2A 5896  14.829   1.674  10.285  0.0732 -0.0182 -0.2693
  369loPI   C3A 5897  14.934   1.650   9.871  0.1575 -0.3083 -0.0020
  369loPI   C4A 5898  14.924   1.783   9.541  0.0785 -0.1199  0.2151
  369loPI   C5A 5899  14.939   1.674   9.006  0.1979 -0.0379 -0.2053
  369loPI   C6A 5900  14.783   1.763   8.594  0.0271  0.0395 -0.1966
  369loPI   C1B 5901  14.245   1.426  10.750  0.2066  0.0559  0.0809
  369loPI   C2B 5902  14.329   1.494  10.380 -0.1474 -0.1180 -0.0540
  369loPI   C3B 5903  14.450   1.453   9.943  0.1033  0.1539  0.0180
  369loPI   C4B 5904  14.440   1.545   9.558  0.0660 -0.1719 -0.1867
  370loPI    C1 5905   2.733  13.964  11.722 -0.0503 -0.3581 -0.1568
  370loPI    C2 5906   2.895  13.615  11.833  0.1026 -0.2505 -0.0384
  370loPI    C3 5907   2.696  13.837  12.099  0.0366 -0.2298 -0.1047
  370loPI   PO4 5908   2.612  13.949  11.490 -0.0612 -0.0665  0.2299
  370loPI   GL1 5909   2.816  14.096  11.085  0.3616  0.2211  0.2787
  370loPI   GL2 5910   2.582  13.975  11.002  0.3626 -0.2372 -0.0625
  370loPI   C1A 5911   2.801  14.037  10.575  0.1215  0.1987 -0.2785
  370loPI   C2A 5912   2.737  14.132  10.186  0.0225 -0.0756  0.1149
  370loPI   C3A 5913   2.720  14.192   9.678  0.1310  0.3369  0.3038
  370loPI   C4A 5914   2.769  14.207   9.259  0.1341 -0.1101  0.0503
  370loPI   C5A 5915   2.524  14.343   8.870  0.0996  0.1551 -0.1063
  370loPI   C6A 5916   2.361  14.638   8.722  0.0243 -0.1551  0.3652
  370loPI   C1B 5917   2.281  13.916  10.659 -0.1226 -0.1030  0.1434
  370loPI   C2B 5918   2.262  13.950  10.246  0.1610  0.0784 -0.0118
  370loPI   C3B 5919   1.827  13.804  10.169  0.1754  0.3372 -0.1643
  370loPI   C4B 5920   1.691  13.720   9.661  0.0570  0.1487 -0.1104
  371loPI    C1 5921   3.004   6.379  11.504 -0.2089 -0.0444 -0.2380
  371loPI    C2 5922   2.852   6.253  11.852 -0.0075 -0.0035 -0.1334
  371loPI    C3 5923   3.025   6.613  11.828  0.0729 -0.0495 -0.2503
  371loPI   PO4 5924   3.127   6.240  11.437  0.0680  0.0250 -0.1931
  371loPI   GL1 5925   3.136   6.229  11.061  0.1557  0.2841  0.1069
  371loPI   GL2 5926   2.832   6.143  10.918  0.0093 -0.2436 -0.2063
  371loPI   C1A 5927   3.280   6.346  10.689  0.2213  0.0138  0.0145
  371loPI   C2A 5928   3.241   6.375  10.199 -0.2265 -0.1311 -0.0109
  371loPI   C3A 5929   3.264   6.360   9.721 -0.1042 -0.2983 -0.2484
  371loPI   C4A 5930   3.236   6.333   9.257 -0.1087  0.0186  0.2728
  371loPI   C5A 5931   3.117   6.445   8.859 -0.0887 -0.0738  0.0229
  371loPI   C6A 5932   3.069   6.682   8.496 -0.5286  0.1932  0.1608
  371loPI   C1B 5933   2.780   6.264  10.542  0.0771  0.1442 -0.0291
  371loPI   C2B 5934   2.764   6.263  10.136  0.2285 -0.3457 -0.3093
  371loPI   C3B 5935   2.759   6.218   9.737 -0.1001  0.0428  0.3686
  371loPI   C4B 5936   2.757   6.161   9.216  0.0268 -0.4358  0.0104
  372loPI    C1 5937  11.658  12.684  11.573 -0.0002  0.1172  0.1930
  372loPI    C2 5938  11.537  13.033  11.728  0.1088  0.1055  0.3058
  372loPI    C3 5939  11.829  12.826  11.906 -0.0139 -0.0858  0.2879
  372loPI   PO4 5940  11.657  12.675  11.315 -0.0520  0.2121 -0.1571
  372loPI   GL1 5941  11.850  12.873  11.005  0.1608  0.0574  0.1437
  372loPI   GL2 5942  11.473  12.796  10.887  0.0033 -0.1767 -0.2617
  372loPI   C1A 5943  12.047  12.819  10.614 -0.2323  0.0764 -0.0905
  372loPI   C2A 5944  12.010  12.861  10.256  0.2739  0.2455 -0.1316
  372loPI   C3A 5945  11.994  12.851   9.789 -0.0293  0.2545 -0.1373
  372loPI   C4A 5946  11.978  12.819   9.397  0.2602  0.0128 -0.3786
  372loPI   C5A 5947  12.054  12.958   8.987 -0.0997 -0.0500  0.2878
  372loPI   C6A 5948  12.289  13.166   8.695 -0.1737 -0.1792  0.4390
  372loPI   C1B 5949  11.538  12.778  10.476  0.3426  0.0736 -0.0432
  372loPI   C2B 5950  11.505  12.702  10.066  0.0893  0.0965  0.2409
  372loPI   C3B 5951  11.562  12.696   9.653 -0.1916 -0.0822 -0.1674
  372loPI   C4B 5952  11.510  12.631   9.263  0.0547 -0.0864  0.0671
  373loPI    C1 5953   2.354  14.465  11.659 -0.0664  0.4108  0.2001
  373loPI    C2 5954   2.230  14.136  11.849  0.0700  0.2484  0.0112
  373loPI    C3 5955   2.554  14.330  11.978  0.1055  0.1943  0.0040
  373loPI   PO4 5956   2.367  14.367  11.356 -0.0421  0.1400 -0.2405
  373loPI   GL1 5957   2.227  14.406  10.928  0.1376  0.0563  0.1969
  373loPI   GL2 5958   1.896  14.220  10.907 -0.3665  0.2211  0.2865
  373loPI   C1A 5959   2.458  14.399  10.557 -0.3738 -0.3051  0.1803
  373loPI   C2A 5960   2.365  14.449  10.112  0.1249 -0.2280 -0.1374
  373loPI   C3A 5961   2.340  14.553   9.754  0.0824 -0.0508  0.0767
  373loPI   C4A 5962   2.365  14.514   9.329  0.0517 -0.1891 -0.2491
  373loPI   C5A 5963   2.234  14.101   9.288 -0.4214  0.1973  0.0674
  373loPI   C6A 5964   2.217  13.989   9.692 -0.0576 -0.1953  0.1734
  373loPI   C1B 5965   1.947  14.297  10.466  0.0711  0.4235  0.0800
  373loPI   C2B 5966   1.849  14.296   9.997  0.3808 -0.2425  0.2882
  373loPI   C3B 5967   1.846  14.346   9.534  0.4880  0.2127  0.2119
  373loPI   C4B 5968   1.859  14.389   9.087 -0.1812 -0.1514  0.2354
  374loPI    C1 5969  16.002  10.788  11.369  0.0316 -0.0532 -0.1406
  374loPI    C2 5970  16.090  10.469  11.594  0.4029  0.1567  0.0221
  374loPI    C3 5971  16.211  10.833  11.708 -0.0348  0.3628 -0.1496
  374loPI   PO4 5972  15.954  10.650  11.152  0.1973 -0.2533 -0.0144
  374loPI   GL1 5973  16.002  10.761  10.779  0.1252  0.3145  0.4477
  374loPI   GL2 5974  15.923  10.321  10.795 -0.1371  0.0314 -0.0680
  374loPI   C1A 5975  16.109  10.942  10.316 -0.1052  0.1977  0.0526
  374loPI   C2A 5976  16.225  11.009   9.905  0.0176  0.3083 -0.3416
  374loPI   C3A 5977  16.067  10.971   9.434  0.1032 -0.1216 -0.1856
  374loPI   C4A 5978  16.023  10.875   9.037  0.1831  0.0559 -0.1451
  374loPI   C5A 5979  16.366  10.936   8.640 -0.0271 -0.0275  0.0731
  374loPI   C6A 5980  16.261  10.711   8.270 -0.1092  0.2322 -0.3167
  374loPI   C1B 5981  15.989  10.377  10.391 -0.1538  0.0371  0.0282
  374loPI   C2B 5982  16.027  10.430   9.882  0.0139 -0.2789 -0.1982
  374loPI   C3B 5983  15.978  10.431   9.417 -0.1678 -0.1075  0.4966
  374loPI   C4B 5984  15.990  10.340   9.000  0.1584 -0.3728  0.3781
  375loPI    C1 5985   3.171   9.344  11.249  0.0258 -0.1817  0.0394
  375loPI    C2 5986   2.877   9.512  11.461  0.0084 -0.1538 -0.0064
  375loPI    C3 5987   3.253   9.521  11.598  0.0275  0.0336 -0.0682
  375loPI   PO4 5988   3.094   9.399  10.967  0.0159 -0.2276  0.4321
  375loPI   GL1 5989   2.898   9.424  10.611  0.1027 -0.0301 -0.3636
  375loPI   GL2 5990   2.556   9.295  10.463 -0.1167  0.2268  0.0082
  375loPI   C1A 5991   3.099   9.603  10.301  0.2446 -0.0748  0.0145
  375loPI   C2A 5992   3.028   9.628   9.906 -0.0440  0.0726 -0.2236
  375loPI   C3A 5993   3.035   9.587   9.433  0.3940  0.1196  0.3315
  375loPI   C4A 5994   3.093   9.559   9.039 -0.0660 -0.1365 -0.0522
  375loPI   C5A 5995   3.088   9.665   8.631 -0.2488  0.0075 -0.2253
  375loPI   C6A 5996   3.051   9.639   8.161 -0.0261 -0.1625 -0.1910
  375loPI   C1B 5997   2.535   9.480  10.068 -0.0785  0.1503 -0.5488
  375loPI   C2B 5998   2.562   9.435   9.646  0.0459 -0.1383  0.0735
  375loPI   C3B 5999   2.517   9.444   9.108  0.1719  0.2278 -0.0055
  375loPI   C4B 6000   2.277   9.347   8.783  0.2094  0.2536  0.1197
  376loPI    C1 6001  12.383  11.086  11.722 -0.0190  0.0278 -0.0057
  376loPI    C2 6002  12.066  10.901  11.881 -0.1491  0.2465 -0.0058
  376loPI    C3 6003  12.372  11.010  12.115 -0.0709  0.0332 -0.0061
  376loPI   PO4 6004  12.340  11.123  11.457 -0.1942  0.0409  0.2165
  376loPI   GL1 6005  12.200  10.856  11.078 -0.0346  0.1709  0.0536
  376loPI   GL2 6006  12.429  10.589  11.041  0.3611  0.0054 -0.3116
  376loPI   C1A 6007  12.065  11.041  10.696 -0.0168 -0.1421  0.0249
  376loPI   C2A 6008  12.126  10.987  10.310  0.0345  0.0075 -0.2115
  376loPI   C3A 6009  12.014  11.032   9.897 -0.2880 -0.3109  0.2936
  376loPI   C4A 6010  12.059  10.951   9.483  0.1163  0.1517  0.0637
  376loPI   C5A 6011  12.041  10.988   9.081 -0.2413  0.3622 -0.0718
  376loPI   C6A 6012  12.202  11.085   8.592  0.1299 -0.1050  0.0876
  376loPI   C1B 6013  12.502  10.726  10.587  0.0110  0.2995 -0.1815
  376loPI   C2B 6014  12.455  10.666  10.144  0.1815 -0.0686 -0.1461
  376loPI   C3B 6015  12.430  10.653   9.731 -0.3649 -0.2463 -0.0012
  376loPI   C4B 6016  12.465  10.687   9.255  0.2806  0.2413 -0.0990
  377loPI    C1 6017   7.360  15.931  11.421  0.0869  0.0283  0.0409
  377loPI    C2 6018   7.167  16.190  11.657 -0.2132  0.0461 -0.2169
  377loPI    C3 6019   7.370  15.885  11.819 -0.2131  0.1952  0.0708
  377loPI   PO4 6020   7.164  15.929  11.212  0.0258 -0.2025  0.1169
  377loPI   GL1 6021   7.084  16.102  10.773 -0.0762  0.2352  0.1638
  377loPI   GL2 6022   6.906  15.850  10.759 -0.2212 -0.0237 -0.3118
  377loPI   C1A 6023   7.250  15.997  10.375 -0.2434 -0.1026  0.1649
  377loPI   C2A 6024   7.253  15.980   9.910 -0.1988 -0.2069  0.2493
  377loPI   C3A 6025   7.279  16.058   9.464 -0.1866 -0.3138  0.0291
  377loPI   C4A 6026   7.205  15.951   9.030  0.0365  0.2641  0.0679
  377loPI   C5A 6027   7.013  16.182   8.751  0.0612 -0.1962 -0.0746
  377loPI   C6A 6028   6.915  16.250   8.305  0.2366  0.3060 -0.0839
  377loPI   C1B 6029   6.774  15.865  10.326  0.0907  0.1482  0.0259
  377loPI   C2B 6030   6.762  15.906   9.867  0.1782  0.0503 -0.0075
  377loPI   C3B 6031   6.840  15.844   9.510 -0.0943 -0.0054  0.3124
  377loPI   C4B 6032   6.690  15.919   9.107  0.0458 -0.0860 -0.1025
  378loPI    C1 6033   1.823   3.548  11.302  0.0520  0.2475 -0.0664
  378loPI    C2 6034   1.696   3.584  11.680  0.1575 -0.1718  0.0142
  378loPI    C3 6035   2.006   3.802  11.551 -0.1101  0.2445  0.0571
  378loPI   PO4 6036   1.607   3.586  11.204 -0.2311 -0.0820 -0.0745
  378loPI   GL1 6037   1.371   3.816  11.009 -0.0360 -0.2149  0.0324
  378loPI   GL2 6038   1.184   3.466  10.962  0.1629  0.1761 -0.2799
  378loPI   C1A 6039   1.291   3.845  10.571  0.0007 -0.3680  0.0763
  378loPI   C2A 6040   1.301   3.831  10.170  0.0885  0.1089  0.0555
  378loPI   C3A 6041   1.277   3.828   9.660  0.1002  0.4301 -0.0224
  378loPI   C4A 6042   1.334   3.960   9.266  0.0243  0.0817  0.1108
  378loPI   C5A 6043   1.289   4.031   8.946 -0.1773  0.1136  0.0798
  378loPI   C6A 6044   1.298   4.152   8.427 -0.2520 -0.0009 -0.0298
  378loPI   C1B 6045   1.179   3.365  10.560 -0.0569 -0.2955  0.0337
  378loPI   C2B 6046   1.163   3.328  10.187 -0.0926  0.3785 -0.0356
  378loPI   C3B 6047   1.214   3.326   9.691 -0.2318 -0.2469  0.0552
  378loPI   C4B 6048   1.153   3.393   9.297 -0.1989  0.0943 -0.0266
  379loPI    C1 6049  16.045   6.657  11.404  0.0868  0.0591 -0.1551
  379loPI    C2 6050  16.297   6.527  11.122  0.0806 -0.4247  0.0529
  379loPI    C3 6051  16.439   6.659  11.472  0.0639 -0.3159  0.0187
  379loPI   PO4 6052  15.840   6.757  11.300  0.2023  0.4699  0.0689
  379loPI   GL1 6053  15.731   6.826  10.910 -0.1090  0.0443 -0.0933
  379loPI   GL2 6054  16.020   6.696  10.780  0.1652 -0.1968  0.0976
  379loPI   C1A 6055  15.683   7.069  10.578 -0.1476 -0.2224  0.0960
  379loPI   C2A 6056  15.708   7.107  10.141 -0.1866  0.0400  0.1167
  379loPI   C3A 6057  15.638   6.994   9.707 -0.3272  0.0343  0.0947
  379loPI   C4A 6058  15.676   7.063   9.303  0.1549  0.2736 -0.1324
  379loPI   C5A 6059  15.682   7.101   8.945 -0.1363  0.1619 -0.0833
  379loPI   C6A 6060  15.523   7.144   8.506 -0.0306 -0.1187 -0.2811
  379loPI   C1B 6061  16.145   6.554  10.407  0.0861 -0.2236  0.0133
  379loPI   C2B 6062  16.098   6.673   9.957  0.2259  0.1964 -0.0487
  379loPI   C3B 6063  16.045   6.654   9.482  0.2765 -0.1217 -0.2097
  379loPI   C4B 6064  16.040   6.761   9.014  0.2113 -0.1689 -0.0627
  380loPI    C1 6065   5.691  11.306  11.372 -0.1727 -0.1157 -0.0484
  380loPI    C2 6066   5.518  11.020  11.592  0.1919 -0.1840  0.1568
  380loPI    C3 6067   5.747  11.297  11.768 -0.1251  0.2170 -0.0443
  380loPI   PO4 6068   5.644  11.386  11.177  0.0757 -0.2561 -0.2163
  380loPI   GL1 6069   5.520  11.476  10.779 -0.0320  0.1112 -0.0672
  380loPI   GL2 6070   5.215  11.255  10.719 -0.1504 -0.2124 -0.0821
  380loPI   C1A 6071   5.427  11.681  10.455  0.0696  0.0773 -0.1357
  380loPI   C2A 6072   5.379  11.631  10.008 -0.1682 -0.1255  0.0507
  380loPI   C3A 6073   5.403  11.708   9.651  0.0246 -0.2773 -0.3218
  380loPI   C4A 6074   5.392  11.688   9.118  0.0861  0.0063 -0.3536
  380loPI   C5A 6075   5.248  11.658   8.667  0.1491 -0.1953  0.3289
  380loPI   C6A 6076   5.329  11.772   8.215 -0.0284 -0.2544 -0.0666
  380loPI   C1B 6077   5.334  11.158  10.361 -0.0315  0.2360  0.2397
  380loPI   C2B 6078   5.241  11.118   9.880  0.0853 -0.1338 -0.1858
  380loPI   C3B 6079   5.335  11.211   9.414 -0.1352  0.3489  0.0472
  380loPI   C4B 6080   5.256  11.206   8.959 -0.0514  0.1362  0.0056
  381loPI    C1 6081  11.197  16.936  11.563  0.1323 -0.0852  0.0315
  381loPI    C2 6082  10.933  17.174  11.747  0.1987 -0.0120  0.0325
  381loPI    C3 6083  10.862  16.781  11.718  0.0188  0.0285 -0.0973
  381loPI   PO4 6084  11.216  17.007  11.353  0.4617  0.0048 -0.0267
  381loPI   GL1 6085  11.387  17.238  10.989 -0.0937 -0.1989 -0.0223
  381loPI   GL2 6086  11.508  17.042  10.884  0.1884  0.1167 -0.2886
  381loPI   C1A 6087  11.327  17.631  10.735 -0.2590  0.1403  0.1253
  381loPI   C2A 6088  11.219  17.774  10.248 -0.2866  0.1482  0.2536
  381loPI   C3A 6089  11.267  17.847   9.818  0.1739 -0.2919 -0.1020
  381loPI   C4A 6090  11.307  17.833   9.441  0.0991  0.1349  0.0099
  381loPI   C5A 6091  11.289  17.785   8.999  0.1687  0.0885 -0.0611
  381loPI   C6A 6092  11.312  17.986   8.531  0.0728  0.2534 -0.1235
  381loPI   C1B 6093  11.548  16.828  10.441  0.1580  0.1983 -0.4522
  381loPI   C2B 6094  11.585  16.848   9.990 -0.1895 -0.0328 -0.1949
  381loPI   C3B 6095  11.562  16.885   9.605  0.2547 -0.0872 -0.1114
  381loPI   C4B 6096  11.534  16.906   9.171  0.1067  0.0655  0.0972
  382loPI    C1 6097  15.866  12.288  11.274 -0.1696 -0.1216  0.1306
  382loPI    C2 6098  15.763  12.269  11.660 -0.2578 -0.3400  0.0972
  382loPI    C3 6099  16.149  12.271  11.556 -0.2326 -0.1718  0.1909
  382loPI   PO4 6100  15.750  12.092  11.139  0.0184  0.0599 -0.1792
  382loPI   GL1 6101  15.552  11.961  10.856 -0.1106 -0.2553  0.0918
  382loPI   GL2 6102  15.766  11.735  10.733 -0.2628 -0.0825 -0.0339
  382loPI   C1A 6103  15.411  12.099  10.441 -0.1387  0.0826  0.1675
  382loPI   C2A 6104  15.519  12.029   9.994 -0.0726 -0.1244 -0.0336
  382loPI   C3A 6105  15.551  12.182   9.696 -0.1020  0.0182  0.0162
  382loPI   C4A 6106  15.730  12.645   9.531  0.1867 -0.0251 -0.0900
  382loPI   C5A 6107  16.077  12.863   9.809  0.0566 -0.0595  0.1327
  382loPI   C6A 6108  16.129  12.833  10.224  0.1127 -0.0987 -0.0118
  382loPI   C1B 6109  15.846  11.770  10.270  0.0953 -0.3095  0.1930
  382loPI   C2B 6110  15.905  11.778   9.826 -0.0797  0.0665  0.2712
  382loPI   C3B 6111  15.887  11.700   9.463 -0.1431  0.0121 -0.0594
  382loPI   C4B 6112  15.866  11.797   9.021  0.0680 -0.0095  0.3163
  383loPI    C1 6113  16.806   4.444  11.584 -0.0023  0.0449 -0.1659
  383loPI    C2 6114  16.654   4.812  11.620 -0.4660 -0.1424 -0.1397
  383loPI    C3 6115  16.802   4.625  11.941 -0.0233  0.1005 -0.1942
  383loPI   PO4 6116  16.814   4.446  11.249  0.0904  0.0887 -0.1603
  383loPI   GL1 6117  16.999   4.508  10.936 -0.2265 -0.3007 -0.0230
  383loPI   GL2 6118  16.954   4.163  10.865 -0.3548  0.1656 -0.0304
  383loPI   C1A 6119  16.866   4.613  10.470 -0.1452 -0.2312  0.1029
  383loPI   C2A 6120  16.909   4.580  10.074  0.0208  0.2664 -0.0811
  383loPI   C3A 6121  17.037   4.611   9.658  0.2120 -0.1935  0.1124
  383loPI   C4A 6122  16.925   4.636   9.207  0.0754 -0.2065 -0.2515
  383loPI   C5A 6123  16.950   4.597   8.824  0.0868  0.5857  0.1460
  383loPI   C6A 6124  17.001   4.428   8.430  0.0610 -0.0481  0.2465
  383loPI   C1B 6125  16.832   4.028  10.490  0.0215  0.1563 -0.4190
  383loPI   C2B 6126  16.782   4.069  10.143 -0.0661 -0.0472  0.1586
  383loPI   C3B 6127  16.847   4.141   9.707  0.1712 -0.0863  0.2203
  383loPI   C4B 6128  16.855   4.165   9.229 -0.0307 -0.2537  0.1231
  384loPI    C1 6129  17.394   0.628  11.759  0.0727 -0.0492 -0.0165
  384loPI    C2 6130  17.599   0.840  12.030 -0.0087 -0.2659  0.2184
  384loPI    C3 6131  17.200   0.830  12.045 -0.0363  0.0455 -0.1561
  384loPI   PO4 6132  17.544   0.670  11.543 -0.2320 -0.1010 -0.0771
  384loPI   GL1 6133  17.615   0.658  11.099  0.0784  0.0205  0.1635
  384loPI   GL2 6134  17.401   0.393  10.971  0.0169  0.0295 -0.2624
  384loPI   C1A 6135  17.758   0.675  10.682 -0.0743 -0.0908 -0.2157
  384loPI   C2A 6136  17.758   0.619  10.324 -0.1346  0.3069 -0.1390
  384loPI   C3A 6137  17.797   0.708   9.883  0.1084  0.0639  0.1207
  384loPI   C4A 6138  17.844   0.689   9.441 -0.0880 -0.3066  0.2111
  384loPI   C5A 6139  17.779   0.653   9.016  0.2160  0.0592  0.3153
  384loPI   C6A 6140  17.438   0.507   8.730 -0.1984 -0.3317  0.3986
  384loPI   C1B 6141  17.255   0.477  10.538  0.0632  0.2007 -0.1558
  384loPI   C2B 6142  17.295   0.571  10.075  0.0663 -0.2040 -0.0897
  384loPI   C3B 6143  17.294   0.533   9.643 -0.3262  0.1322 -0.0559
  384loPI   C4B 6144  17.314   0.630   9.236  0.2244 -0.1710 -0.0747
  385loPI    C1 6145  15.949   9.955  11.628 -0.2165  0.1109  0.0547
  385loPI    C2 6146  15.698   9.789  11.890 -0.0572 -0.0943  0.0806
  385loPI    C3 6147  16.037   9.958  12.018  0.0558 -0.2592  0.0019
  385loPI   PO4 6148  15.921   9.827  11.436 -0.0986  0.1718 -0.1169
  385loPI   GL1 6149  15.857   9.863  11.035  0.1815 -0.1768 -0.2057
  385loPI   GL2 6150  15.531   9.663  11.035  0.1242 -0.0491 -0.0522
  385loPI   C1A 6151  15.869   9.842  10.611 -0.0226 -0.1374  0.1870
  385loPI   C2A 6152  15.896   9.945  10.180  0.1045  0.2029  0.0638
  385loPI   C3A 6153  15.897   9.922   9.771 -0.1347 -0.1627  0.1291
  385loPI   C4A 6154  15.851   9.973   9.348 -0.2079  0.1492  0.1677
  385loPI   C5A 6155  15.747   9.880   8.952  0.3049 -0.1002 -0.0824
  385loPI   C6A 6156  15.752   9.981   8.539 -0.1695 -0.0187 -0.1278
  385loPI   C1B 6157  15.339   9.668  10.623 -0.2699  0.2856 -0.1931
  385loPI   C2B 6158  15.453   9.743  10.217  0.3094 -0.2608 -0.1341
  385loPI   C3B 6159  15.376   9.741   9.816  0.2763 -0.0535  0.1137
  385loPI   C4B 6160  15.357   9.754   9.382  0.0124 -0.1530 -0.0409
  386loPI    C1 6161   2.270  15.379  11.577 -0.2833  0.2533 -0.1500
  386loPI    C2 6162   2.632  15.399  11.746 -0.1567 -0.0247 -0.3795
  386loPI    C3 6163   2.343  15.649  11.863 -0.0548 -0.1592  0.1952
  386loPI   PO4 6164   2.338  15.324  11.353  0.3181  0.0143  0.2099
  386loPI   GL1 6165   2.380  15.494  10.942  0.0195  0.0878  0.0768
  386loPI   GL2 6166   2.644  15.750  10.873 -0.2611 -0.1941  0.3082
  386loPI   C1A 6167   2.184  15.260  10.623 -0.1323 -0.1690 -0.1565
  386loPI   C2A 6168   2.093  15.323  10.235 -0.2243  0.1173 -0.2272
  386loPI   C3A 6169   2.075  15.367   9.882 -0.1225  0.0180 -0.1341
  386loPI   C4A 6170   2.104  15.344   9.409 -0.3464 -0.2558 -0.0921
  386loPI   C5A 6171   2.120  15.321   8.973 -0.1967  0.0697 -0.3402
  386loPI   C6A 6172   2.021  15.067   8.587 -0.0161  0.0130 -0.1028
  386loPI   C1B 6173   2.724  15.976  10.581 -0.3832  0.1866  0.0440
  386loPI   C2B 6174   2.729  15.950  10.167 -0.2567  0.0539 -0.1200
  386loPI   C3B 6175   2.691  16.023   9.634 -0.1909  0.0515 -0.0181
  386loPI   C4B 6176   2.692  16.034   9.160 -0.0445  0.0363 -0.2449
  387loPI    C1 6177   5.434  15.075  11.556 -0.0287 -0.1157  0.0494
  387loPI    C2 6178   5.073  15.057  11.385  0.0750 -0.1892 -0.1661
  387loPI    C3 6179   5.108  15.025  11.782 -0.1531 -0.1988 -0.1452
  387loPI   PO4 6180   5.566  15.119  11.360  0.0803  0.1041  0.2989
  387loPI   GL1 6181   5.328  14.939  10.993 -0.0778  0.0344  0.1427
  387loPI   GL2 6182   5.211  14.756  10.818 -0.0742  0.2392 -0.0405
  387loPI   C1A 6183   5.310  15.297  10.630 -0.2633 -0.0692  0.3296
  387loPI   C2A 6184   5.353  15.340  10.186  0.0259  0.1830 -0.1660
  387loPI   C3A 6185   5.289  15.355   9.767  0.4075  0.2131 -0.1654
  387loPI   C4A 6186   5.256  15.490   9.376  0.0095 -0.1618  0.3724
  387loPI   C5A 6187   5.421  15.363   8.893  0.1328 -0.0632 -0.0710
  387loPI   C6A 6188   5.309  15.280   8.423  0.3351  0.1628  0.0216
  387loPI   C1B 6189   5.209  14.882  10.445 -0.0776 -0.0529  0.0543
  387loPI   C2B 6190   5.208  14.901   9.944  0.0483 -0.1460 -0.1292
  387loPI   C3B 6191   5.230  14.958   9.500 -0.0355 -0.3571 -0.0998
  387loPI   C4B 6192   5.203  14.972   9.092 -0.2785 -0.2092  0.0927
  388loPI    C1 6193   7.750  11.504  11.423 -0.0408 -0.0903  0.1523
  388loPI    C2 6194   7.929  11.709  11.716  0.1422 -0.1459  0.0808
  388loPI    C3 6195   7.548  11.787  11.621  0.1038 -0.0787  0.2851
  388loPI   PO4 6196   7.956  11.501  11.185 -0.1499 -0.3786 -0.2537
  388loPI   GL1 6197   7.782  11.537  10.725  0.2146  0.1043 -0.1109
  388loPI   GL2 6198   8.117  11.554  10.566 -0.3607  0.1322 -0.0080
  388loPI   C1A 6199   7.682  11.429  10.329 -0.1181  0.1233  0.0358
  388loPI   C2A 6200   7.626  11.455   9.916 -0.0349 -0.1818  0.0029
  388loPI   C3A 6201   7.596  11.508   9.470  0.2509 -0.0337 -0.1933
  388loPI   C4A 6202   7.543  11.542   8.997  0.1492 -0.0259  0.2292
  388loPI   C5A 6203   7.647  11.712   8.600  0.0311  0.0950  0.1059
  388loPI   C6A 6204   7.613  11.773   8.193  0.1848  0.0125  0.0368
  388loPI   C1B 6205   8.136  11.641  10.127 -0.1728  0.0900 -0.0753
  388loPI   C2B 6206   8.078  11.631   9.751 -0.1108 -0.2782 -0.2106
  388loPI   C3B 6207   8.082  11.645   9.375  0.0712  0.1760 -0.2617
  388loPI   C4B 6208   8.064  11.687   8.859  0.1278 -0.2183 -0.2088
  389loPI    C1 6209  12.228  16.861  11.414  0.0820 -0.1023 -0.0018
  389loPI    C2 6210  12.058  17.008  11.745  0.2790 -0.2428  0.1639
  389loPI    C3 6211  12.420  17.136  11.633  0.1354 -0.0607 -0.1004
  389loPI   PO4 6212  12.170  16.660  11.426  0.0068  0.0654  0.0270
  389loPI   GL1 6213  12.273  16.379  11.055 -0.0093 -0.3898  0.1234
  389loPI   GL2 6214  12.366  16.670  10.843 -0.0283 -0.0769 -0.0450
  389loPI   C1A 6215  12.369  16.230  10.576  0.1387  0.0618  0.1624
  389loPI   C2A 6216  12.241  16.208  10.121  0.0372 -0.1149  0.2022
  389loPI   C3A 6217  12.259  16.247   9.706  0.2097 -0.1874  0.2210
  389loPI   C4A 6218  12.347  16.355   9.336  0.1971 -0.0821 -0.4309
  389loPI   C5A 6219  12.236  16.391   8.894 -0.0214  0.0428 -0.0222
  389loPI   C6A 6220  12.605  16.498   8.593 -0.1022  0.0218  0.0607
  389loPI   C1B 6221  12.409  16.729  10.422 -0.0298  0.3597 -0.1464
  389loPI   C2B 6222  12.368  16.788  10.028 -0.2031 -0.0291  0.1847
  389loPI   C3B 6223  12.381  16.782   9.590  0.0638  0.3131 -0.0677
  389loPI   C4B 6224  12.483  16.827   9.111 -0.0282  0.0858  0.0642
  390loPI    C1 6225  14.499   8.140  11.682 -0.0040 -0.1182  0.1411
  390loPI    C2 6226  14.565   8.492  11.860 -0.1803 -0.0313  0.0376
  390loPI    C3 6227  14.501   8.165  12.081 -0.0851  0.0144  0.1339
  390loPI   PO4 6228  14.596   8.200  11.477  0.0959  0.1961 -0.2818
  390loPI   GL1 6229  14.580   8.010  11.083  0.0296 -0.0544  0.3508
  390loPI   GL2 6230  14.759   7.738  10.923 -0.0080 -0.1408  0.0232
  390loPI   C1A 6231  14.478   7.983  10.619  0.5469 -0.1231  0.0234
  390loPI   C2A 6232  14.614   8.035  10.147 -0.1528 -0.2550  0.1960
  390loPI   C3A 6233  14.561   8.068   9.711  0.1114  0.0033 -0.0121
  390loPI   C4A 6234  14.520   8.180   9.265  0.1444 -0.4926  0.0970
  390loPI   C5A 6235  14.842   8.312   9.072 -0.0103 -0.2973  0.2060
  390loPI   C6A 6236  15.186   8.354   9.154  0.1840 -0.1051  0.0810
  390loPI   C1B 6237  14.904   7.650  10.524 -0.2623  0.0614  0.0584
  390loPI   C2B 6238  15.005   7.672  10.138 -0.0111 -0.1291 -0.3882
  390loPI   C3B 6239  14.947   7.762   9.778 -0.3812 -0.1180  0.2830
  390loPI   C4B 6240  14.953   7.893   9.431  0.1705 -0.4105 -0.1237
  391loPI    C1 6241  12.603  13.504  11.644  0.1531 -0.2043  0.0516
  391loPI    C2 6242  12.318  13.621  11.899 -0.0247 -0.1907 -0.1511
  391loPI    C3 6243  12.697  13.733  11.959 -0.0763 -0.1273  0.0660
  391loPI   PO4 6244  12.567  13.570  11.413 -0.2574 -0.0772 -0.0628
  391loPI   GL1 6245  12.574  13.413  11.012  0.0523  0.2744  0.2074
  391loPI   GL2 6246  12.302  13.286  11.088  0.0041 -0.0897 -0.1041
  391loPI   C1A 6247  12.615  13.453  10.521 -0.4145 -0.1467  0.1651
  391loPI   C2A 6248  12.578  13.560  10.115  0.2684  0.1982 -0.1720
  391loPI   C3A 6249  12.665  13.507   9.679  0.0197  0.1457  0.0519
  391loPI   C4A 6250  12.538  13.508   9.233 -0.1929  0.0753 -0.2054
  391loPI   C5A 6251  12.262  13.737   8.954 -0.0567  0.2769  0.0398
  391loPI   C6A 6252  11.943  14.013   8.866  0.3278 -0.2298  0.3419
  391loPI   C1B 6253  12.127  13.350  10.692 -0.1582 -0.0481 -0.1216
  391loPI   C2B 6254  12.153  13.360  10.237 -0.1545  0.1000  0.0158
  391loPI   C3B 6255  12.140  13.391   9.764  0.0543 -0.2242 -0.2718
  391loPI   C4B 6256  12.094  13.295   9.323  0.1770 -0.4213  0.0851
  392loPI    C1 6257   4.976   0.953  11.185 -0.0487 -0.1083  0.1530
  392loPI    C2 6258   4.861   0.957  11.568 -0.1438 -0.1631  0.1254
  392loPI    C3 6259   5.222   0.816  11.469 -0.0613 -0.0138  0.2097
  392loPI   PO4 6260   4.724   0.810  11.115 -0.1357 -0.1730  0.2198
  392loPI   GL1 6261   4.701   0.656  10.662  0.0901  0.1608 -0.2919
  392loPI   GL2 6262   4.727   0.328  10.748  0.2038 -0.0717  0.3234
  392loPI   C1A 6263   4.642   0.695  10.182  0.1931 -0.1080 -0.0938
  392loPI   C2A 6264   4.555   0.698   9.625 -0.0594  0.1157 -0.1482
  392loPI   C3A 6265   4.544   0.779   9.131 -0.3059 -0.1267 -0.4358
  392loPI   C4A 6266   4.618   0.824   8.714 -0.0681  0.1464  0.0097
  392loPI   C5A 6267   4.811   0.676   8.361  0.4900 -0.1563  0.0289
  392loPI   C6A 6268   4.983   0.257   8.258  0.1170 -0.1220  0.2423
  392loPI   C1B 6269   5.041   0.364  10.462 -0.1376 -0.2340  0.1464
  392loPI   C2B 6270   5.028   0.342  10.086  0.0873 -0.1632 -0.1403
  392loPI   C3B 6271   4.993   0.338   9.596  0.2024  0.1395  0.1605
  392loPI   C4B 6272   4.926   0.422   9.194 -0.0471  0.0229 -0.0984
  393loPI    C1 6273   9.137  14.039  11.575 -0.1789 -0.0242  0.0768
  393loPI    C2 6274   9.206  14.430  11.626 -0.1242 -0.0222 -0.0109
  393loPI    C3 6275   9.247  14.178  11.934  0.2899 -0.0225 -0.0604
  393loPI   PO4 6276   9.328  14.018  11.369 -0.1889  0.2053 -0.2373
  393loPI   GL1 6277   9.147  14.238  10.943  0.0639  0.0474 -0.2279
  393loPI   GL2 6278   9.095  14.514  11.073  0.0770  0.0629  0.1280
  393loPI   C1A 6279   9.098  14.106  10.570 -0.0453  0.1633 -0.0296
  393loPI   C2A 6280   9.191  14.281  10.175  0.0242  0.3608 -0.0605
  393loPI   C3A 6281   9.099  14.263   9.732  0.2220  0.1942  0.1099
  393loPI   C4A 6282   9.156  14.342   9.275  0.3500  0.0568 -0.1107
  393loPI   C5A 6283   9.213  14.402   8.804  0.2903  0.0313  0.4668
  393loPI   C6A 6284   9.407  14.110   8.518 -0.2095  0.0906  0.3636
  393loPI   C1B 6285   9.270  14.667  10.712  0.1866  0.1532  0.1233
  393loPI   C2B 6286   9.245  14.771  10.338 -0.0645  0.1603  0.0425
  393loPI   C3B 6287   9.244  14.757   9.813 -0.0216  0.1011 -0.1542
  393loPI   C4B 6288   9.362  14.796   9.355  0.1875 -0.0623 -0.2462
  394loPI    C1 6289   2.656  16.220  11.105  0.0106 -0.3074 -0.1247
  394loPI    C2 6290   2.905  16.166  11.413 -0.0656 -0.1659 -0.0374
  394loPI    C3 6291   3.013  16.400  11.107 -0.1771  0.0756  0.1048
  394loPI   PO4 6292   2.388  16.276  11.234  0.2112 -0.2337 -0.1938
  394loPI   GL1 6293   2.243  16.590  11.099  0.1918  0.2905  0.2805
  394loPI   GL2 6294   1.959  16.555  10.841  0.0046  0.1992  0.0660
  394loPI   C1A 6295   2.377  16.779  10.572  0.0760  0.0699  0.1795
  394loPI   C2A 6296   2.346  16.879  10.150 -0.0901  0.1836  0.0190
  394loPI   C3A 6297   2.419  16.800   9.690  0.2445 -0.1836 -0.1133
  394loPI   C4A 6298   2.434  16.874   9.253 -0.0776 -0.0450 -0.1723
  394loPI   C5A 6299   2.412  16.917   8.856 -0.0039 -0.0599  0.1247
  394loPI   C6A 6300   2.209  17.181   8.618 -0.3683 -0.1782 -0.2361
  394loPI   C1B 6301   1.947  16.716  10.395  0.0609 -0.0166  0.1050
  394loPI   C2B 6302   1.893  16.714   9.915 -0.0766  0.0233  0.0725
  394loPI   C3B 6303   1.886  16.632   9.456 -0.2008  0.1535  0.0809
  394loPI   C4B 6304   1.991  16.719   9.016 -0.0243  0.1383 -0.1694
  395loPI    C1 6305  10.806  10.647  11.550 -0.1999 -0.0062 -0.0069
  395loPI    C2 6306  10.875  10.525  11.925 -0.0669  0.4895  0.1374
  395loPI    C3 6307  10.972  10.897  11.814  0.3976  0.1874 -0.5408
  395loPI   PO4 6308  10.607  10.606  11.436 -0.0339 -0.4874  0.0635
  395loPI   GL1 6309  10.589  10.884  10.974 -0.0843  0.2153 -0.0173
  395loPI   GL2 6310  10.722  11.062  10.910 -0.4222  0.1690  0.0093
  395loPI   C1A 6311  10.233  10.930  10.611  0.1701 -0.1931  0.0871
  395loPI   C2A 6312  10.159  10.854  10.144  0.1778  0.0634 -0.1135
  395loPI   C3A 6313  10.370  10.924   9.810 -0.2267  0.1912  0.0061
  395loPI   C4A 6314  10.261  10.918   9.430  0.0507 -0.3523  0.3793
  395loPI   C5A 6315  10.151  10.872   8.968 -0.1141  0.0135  0.2323
  395loPI   C6A 6316   9.770  10.799   8.720 -0.1957  0.0364 -0.1104
  395loPI   C1B 6317  10.743  11.033  10.495 -0.1023  0.0863 -0.0597
  395loPI   C2B 6318  10.759  11.083  10.002  0.1497  0.0287  0.2876
  395loPI   C3B 6319  10.788  11.051   9.587 -0.1506 -0.0480  0.1906
  395loPI   C4B 6320  10.720  10.978   9.207 -0.1074  0.1741 -0.1111
  396loPI    C1 6321   3.846  16.928  11.452  0.0233  0.0359 -0.0619
  396loPI    C2 6322   4.124  16.769  11.692 -0.1276 -0.0370  0.0666
  396loPI    C3 6323   3.831  16.994  11.847 -0.1601  0.0113 -0.0637
  396loPI   PO4 6324   3.952  17.005  11.191  0.1284 -0.1671 -0.2333
  396loPI   GL1 6325   3.918  17.100  10.763 -0.1086 -0.2772 -0.0233
  396loPI   GL2 6326   3.968  17.317  10.774  0.4145 -0.0476  0.0974
  396loPI   C1A 6327   3.866  17.258  10.271  0.1673 -0.0531 -0.2042
  396loPI   C2A 6328   3.928  17.292   9.796  0.1105 -0.0693 -0.1759
  396loPI   C3A 6329   3.924  17.345   9.377  0.3537 -0.2583  0.1696
  396loPI   C4A 6330   3.947  17.339   8.904  0.0495 -0.0736  0.3891
  396loPI   C5A 6331   4.136  17.701   8.657  0.2369  0.1228 -0.0241
  396loPI   C6A 6332   3.956  17.979   8.282 -0.0885  0.3658 -0.1175
  396loPI   C1B 6333   3.964  17.717  10.488 -0.6275  0.0407  0.2019
  396loPI   C2B 6334   3.960  17.833  10.026  0.2749  0.0219 -0.2375
  396loPI   C3B 6335   3.953  17.877   9.550 -0.0887 -0.1724 -0.1615
  396loPI   C4B 6336   3.997  17.768   9.133 -0.0396 -0.3606  0.1529
  397loPI    C1 6337  16.345  15.220  11.760  0.0640 -0.0975 -0.2643
  397loPI    C2 6338  15.984  15.246  11.932  0.1577  0.0238 -0.0822
  397loPI    C3 6339  16.192  14.905  11.954  0.1438  0.0199 -0.0053
  397loPI   PO4 6340  16.344  15.255  11.531 -0.0473 -0.2821 -0.0855
  397loPI   GL1 6341  16.160  15.394  11.174 -0.3506  0.0536  0.1894
  397loPI   GL2 6342  16.151  15.028  11.015 -0.2404  0.2644  0.2015
  397loPI   C1A 6343  16.304  15.610  10.734 -0.2298  0.2459  0.0442
  397loPI   C2A 6344  16.282  15.695  10.283  0.1486 -0.0881 -0.0247
  397loPI   C3A 6345  16.349  15.677   9.818 -0.0251 -0.0380 -0.0195
  397loPI   C4A 6346  16.301  15.718   9.414  0.1086  0.4581  0.0062
  397loPI   C5A 6347  16.309  15.743   8.890 -0.1740  0.1597  0.0592
  397loPI   C6A 6348  16.303  15.693   8.461 -0.2468 -0.1698  0.2575
  397loPI   C1B 6349  16.145  15.137  10.540  0.1420  0.0735 -0.1149
  397loPI   C2B 6350  16.199  15.186  10.107 -0.0241 -0.0849 -0.0047
  397loPI   C3B 6351  16.205  15.151   9.738 -0.1960 -0.0784  0.0050
  397loPI   C4B 6352  16.179  15.228   9.329  0.4193  0.1614  0.0612
  398loPI    C1 6353   4.039   6.612  11.758  0.3672  0.0862 -0.2428
  398loPI    C2 6354   4.082   6.406  12.098 -0.2064 -0.0224 -0.2259
  398loPI    C3 6355   4.225   6.779  12.070 -0.0386 -0.0601  0.0861
  398loPI   PO4 6356   4.166   6.438  11.516  0.0345 -0.0290  0.2766
  398loPI   GL1 6357   4.061   6.414  11.057 -0.1647  0.0373 -0.1312
  398loPI   GL2 6358   3.669   6.487  10.945  0.2030  0.3726 -0.2334
  398loPI   C1A 6359   3.977   6.118  10.716  0.0116  0.3314  0.0182
  398loPI   C2A 6360   4.055   6.150  10.223  0.1549 -0.0493  0.1739
  398loPI   C3A 6361   4.159   6.270   9.844 -0.3519  0.0103  0.0437
  398loPI   C4A 6362   4.155   6.252   9.406  0.0559 -0.1049  0.1306
  398loPI   C5A 6363   4.135   6.357   8.954 -0.2495 -0.0182  0.3029
  398loPI   C6A 6364   3.873   6.508   8.712 -0.1493 -0.1754 -0.0307
  398loPI   C1B 6365   3.770   6.467  10.447  0.2039  0.1253 -0.2961
  398loPI   C2B 6366   3.740   6.573  10.060  0.1373 -0.0516 -0.0901
  398loPI   C3B 6367   3.722   6.596   9.569 -0.0495 -0.1190 -0.1056
  398loPI   C4B 6368   3.735   6.573   9.212 -0.2692  0.0836 -0.0346
  399loPI    C1 6369   1.567  13.832  11.587  0.0210 -0.2595  0.0117
  399loPI    C2 6370   1.716  14.146  11.785  0.0233 -0.1629 -0.1415
  399loPI    C3 6371   1.831  13.775  11.883  0.2177 -0.1012 -0.1302
  399loPI   PO4 6372   1.554  13.954  11.282 -0.2300  0.0105 -0.1707
  399loPI   GL1 6373   1.411  14.154  11.051 -0.0456 -0.0244 -0.1601
  399loPI   GL2 6374   1.117  14.022  10.920 -0.1162  0.1817  0.0563
  399loPI   C1A 6375   1.473  14.185  10.642 -0.0982 -0.0145 -0.1297
  399loPI   C2A 6376   1.357  14.168  10.178  0.1591  0.1836 -0.2383
  399loPI   C3A 6377   1.390  14.140   9.755  0.1450  0.0409 -0.1741
  399loPI   C4A 6378   1.461  14.079   9.376  0.2109 -0.0806 -0.2954
  399loPI   C5A 6379   1.759  13.888   9.158  0.0768  0.1753 -0.1608
  399loPI   C6A 6380   2.081  13.984   8.832  0.1835 -0.2351 -0.4295
  399loPI   C1B 6381   0.992  14.004  10.495  0.0226  0.2775  0.3955
  399loPI   C2B 6382   0.900  14.007  10.079 -0.0031  0.1105  0.0286
  399loPI   C3B 6383   0.915  14.032   9.698 -0.4331 -0.0557 -0.1446
  399loPI   C4B 6384   0.909  14.071   9.234  0.2401 -0.0719 -0.1278
  400loPI    C1 6385   9.204   4.776  10.922  0.0427  0.1851  0.0693
  400loPI    C2 6386   9.557   4.734  11.106 -0.0071 -0.1371  0.0954
  400loPI    C3 6387   9.259   4.478  11.183 -0.1705 -0.0100 -0.1046
  400loPI   PO4 6388   9.197   4.786  10.754  0.2201  0.0330  0.0067
  400loPI   GL1 6389   9.276   5.010  10.435 -0.0218  0.0912  0.1347
  400loPI   GL2 6390   8.975   5.211  10.293  0.1238 -0.0615  0.0504
  400loPI   C1A 6391   9.291   4.888  10.043 -0.0231  0.2558 -0.1591
  400loPI   C2A 6392   9.540   4.546   9.893 -0.1707  0.2784 -0.1235
  400loPI   C3A 6393   9.863   4.330   9.791 -0.0063 -0.0661 -0.3125
  400loPI   C4A 6394   9.978   4.241   9.369 -0.0276  0.2697  0.2178
  400loPI   C5A 6395  10.213   4.187   9.035 -0.0710 -0.0075 -0.2625
  400loPI   C6A 6396  10.245   4.118   8.670  0.0691 -0.0837  0.1431
  400loPI   C1B 6397   8.909   5.245   9.846  0.2442 -0.0905  0.0197
  400loPI   C2B 6398   9.256   5.059   9.569  0.2131 -0.0762 -0.1757
  400loPI   C3B 6399   9.552   5.167   9.175  0.0031  0.1293  0.1862
  400loPI   C4B 6400   9.757   5.247   8.825 -0.0322 -0.0617 -0.0083
  401loPI    C1 6401  12.745   7.550  11.610 -0.3062 -0.1526  0.0627
  401loPI    C2 6402  12.892   7.299  11.885  0.0139 -0.0955 -0.0528
  401loPI    C3 6403  12.497   7.347  11.850 -0.0462 -0.4667  0.0728
  401loPI   PO4 6404  13.000   7.440  11.432 -0.1250 -0.3079 -0.1779
  401loPI   GL1 6405  13.412   7.327  11.080 -0.1473 -0.0697 -0.1727
  401loPI   GL2 6406  13.439   7.167  10.701  0.3331  0.0327 -0.3757
  401loPI   C1A 6407  13.528   7.648  10.753  0.0704 -0.0887  0.1012
  401loPI   C2A 6408  13.477   7.783  10.373 -0.1977 -0.2010  0.1717
  401loPI   C3A 6409  13.646   7.833   9.980 -0.1262  0.1789  0.3355
  401loPI   C4A 6410  13.611   7.862   9.588  0.3188  0.3066  0.0747
  401loPI   C5A 6411  13.655   7.947   9.151  0.0486  0.2298  0.2535
  401loPI   C6A 6412  13.812   7.740   8.722  0.1451  0.1811 -0.1085
  401loPI   C1B 6413  13.457   7.222  10.234 -0.3243  0.0765 -0.0102
  401loPI   C2B 6414  13.437   7.379   9.815  0.1166  0.1037 -0.2058
  401loPI   C3B 6415  13.462   7.342   9.377 -0.0780 -0.1427  0.1521
  401loPI   C4B 6416  13.558   7.441   8.954 -0.0942 -0.2429 -0.2375
  402loPI    C1 6417  11.730   1.400  11.513  0.0812 -0.1428  0.0499
  402loPI    C2 6418  11.430   1.641  11.624  0.1534  0.0247 -0.1147
  402loPI    C3 6419  11.716   1.543  11.886  0.0492  0.0057 -0.0076
  402loPI   PO4 6420  11.762   1.525  11.286 -0.2707 -0.0720 -0.0670
  402loPI   GL1 6421  11.609   1.271  10.867 -0.3161  0.0672  0.0994
  402loPI   GL2 6422  11.312   1.330  10.713  0.2081 -0.4491 -0.2223
  402loPI   C1A 6423  11.882   1.118  10.534  0.2809 -0.0271 -0.0096
  402loPI   C2A 6424  11.956   1.247  10.193  0.2250 -0.0872  0.0824
  402loPI   C3A 6425  11.981   1.243   9.756 -0.0128  0.1200  0.2686
  402loPI   C4A 6426  12.029   1.244   9.356  0.1120 -0.2832 -0.4192
  402loPI   C5A 6427  11.955   1.359   8.931  0.0939  0.0143 -0.1064
  402loPI   C6A 6428  11.957   1.340   8.509  0.0769 -0.0561 -0.1525
  402loPI   C1B 6429  11.188   1.401  10.285  0.1217  0.2715 -0.0595
  402loPI   C2B 6430  11.133   1.432   9.848 -0.1880 -0.0089 -0.1593
  402loPI   C3B 6431  11.106   1.510   9.395 -0.1542 -0.0367  0.1517
  402loPI   C4B 6432  11.159   1.511   8.960 -0.0106  0.0320 -0.0154
  403loPI    C1 6433  12.698   6.134  11.501 -0.1789  0.0423  0.0032
  403loPI    C2 6434  12.729   5.737  11.545 -0.1414  0.0505  0.0503
  403loPI    C3 6435  12.989   5.980  11.728  0.0274  0.0843 -0.2281
  403loPI   PO4 6436  12.704   6.215  11.285 -0.1100  0.3958 -0.0467
  403loPI   GL1 6437  12.764   6.034  10.832 -0.1922  0.0192 -0.0167
  403loPI   GL2 6438  12.606   6.338  10.656 -0.1908  0.2443  0.0651
  403loPI   C1A 6439  13.118   6.167  10.587  0.3237  0.0139  0.2624
  403loPI   C2A 6440  13.128   6.242  10.119 -0.0401 -0.1325 -0.0861
  403loPI   C3A 6441  13.241   6.323   9.733 -0.1428  0.1444  0.1791
  403loPI   C4A 6442  13.166   6.241   9.299 -0.1970  0.0702 -0.0501
  403loPI   C5A 6443  12.905   6.153   8.905 -0.0369 -0.2070 -0.0726
  403loPI   C6A 6444  12.452   6.246   8.759 -0.1161  0.1925 -0.0884
  403loPI   C1B 6445  12.573   6.478  10.198 -0.1933 -0.2000 -0.0388
  403loPI   C2B 6446  12.818   6.585   9.845  0.0044  0.1251 -0.1417
  403loPI   C3B 6447  12.853   6.636   9.500  0.1274 -0.1787  0.2277
  403loPI   C4B 6448  12.710   6.601   9.010 -0.2615  0.1659 -0.0129
  404loPI    C1 6449   3.369  11.004  11.429 -0.5089  0.1050  0.1175
  404loPI    C2 6450   3.420  10.798  11.768  0.0057 -0.1133 -0.0826
  404loPI    C3 6451   3.433  11.198  11.773  0.2657 -0.1218  0.1195
  404loPI   PO4 6452   3.475  10.860  11.277 -0.1762  0.0627 -0.0217
  404loPI   GL1 6453   3.530  10.764  10.803 -0.0362 -0.0876 -0.2139
  404loPI   GL2 6454   3.287  10.745  10.704 -0.1159 -0.0210  0.0014
  404loPI   C1A 6455   3.483  11.185  10.520 -0.1485 -0.0935 -0.2151
  404loPI   C2A 6456   3.466  11.123  10.010  0.3167  0.2035  0.1108
  404loPI   C3A 6457   3.447  11.097   9.609 -0.0161  0.1990 -0.0792
  404loPI   C4A 6458   3.422  11.185   9.062 -0.2122 -0.1595 -0.0375
  404loPI   C5A 6459   3.375  11.224   8.598  0.0926  0.1308 -0.0025
  404loPI   C6A 6460   3.209  11.358   8.251 -0.0437 -0.0067  0.1550
  404loPI   C1B 6461   3.361  10.697  10.314  0.0656  0.2884  0.1847
  404loPI   C2B 6462   3.363  10.584   9.889  0.1975  0.0957 -0.0518
  404loPI   C3B 6463   3.238  10.540   9.514 -0.1997 -0.0304 -0.1507
  404loPI   C4B 6464   3.347  10.591   9.142 -0.1301 -0.0674 -0.3061
  405loPI    C1 6465  15.348   1.182  11.696 -0.0739  0.1991  0.2625
  405loPI    C2 6466  15.079   0.950  11.880 -0.1892 -0.0367 -0.1889
  405loPI    C3 6467  15.455   0.967  12.016 -0.2565 -0.2496  0.0316
  405loPI   PO4 6468  15.200   1.069  11.403  0.2925  0.0829  0.0414
  405loPI   GL1 6469  15.092   1.123  10.996 -0.2165  0.0267 -0.2803
  405loPI   GL2 6470  15.243   1.341  10.980  0.1557  0.1015 -0.2209
  405loPI   C1A 6471  15.045   0.866  10.634 -0.0610 -0.1060 -0.0692
  405loPI   C2A 6472  15.165   0.825  10.166  0.2075  0.0460 -0.1710
  405loPI   C3A 6473  15.148   0.798   9.754 -0.0677  0.0272 -0.2185
  405loPI   C4A 6474  15.180   0.904   9.346  0.0272 -0.0756  0.1615
  405loPI   C5A 6475  15.270   0.852   8.904  0.2178  0.1639 -0.2565
  405loPI   C6A 6476  15.358   0.889   8.470 -0.3757 -0.1032 -0.1514
  405loPI   C1B 6477  15.253   1.318  10.522 -0.0730  0.0457  0.0040
  405loPI   C2B 6478  15.261   1.322  10.051  0.1581  0.0888 -0.0203
  405loPI   C3B 6479  15.245   1.308   9.713  0.0810  0.1213  0.1379
  405loPI   C4B 6480  15.290   1.394   9.229  0.3859 -0.1013 -0.1812
  406loPI    C1 6481   8.037  12.011  11.316 -0.2231 -0.0610  0.1412
  406loPI    C2 6482   8.053  12.394  11.429 -0.0362 -0.0345  0.0282
  406loPI    C3 6483   8.302  12.127  11.592  0.0401 -0.0498 -0.1116
  406loPI   PO4 6484   8.005  12.111  11.011  0.1834 -0.0783  0.3617
  406loPI   GL1 6485   8.265  12.229  10.634  0.0085 -0.3323  0.0266
  406loPI   GL2 6486   8.402  12.538  10.527 -0.0313 -0.0150 -0.1954
  406loPI   C1A 6487   8.233  12.133  10.179 -0.0118  0.0059 -0.2451
  406loPI   C2A 6488   8.167  12.091   9.870 -0.0699  0.1406  0.1207
  406loPI   C3A 6489   8.239  12.193   9.399 -0.0803 -0.2241  0.0806
  406loPI   C4A 6490   8.132  12.189   8.940  0.0504  0.3162  0.0747
  406loPI   C5A 6491   7.749  12.191   8.681 -0.1385 -0.0339  0.1931
  406loPI   C6A 6492   7.342  12.132   8.452 -0.1761 -0.2669 -0.0431
  406loPI   C1B 6493   8.356  12.630  10.152 -0.3556  0.2641 -0.1169
  406loPI   C2B 6494   8.297  12.619   9.750  0.1546 -0.0555 -0.2169
  406loPI   C3B 6495   8.283  12.659   9.382  0.0352 -0.2852  0.3729
  406loPI   C4B 6496   8.266  12.710   8.955 -0.0774 -0.1478  0.0083
  407loPI    C1 6497  10.053   3.413  11.350  0.0484  0.0257  0.1204
  407loPI    C2 6498   9.661   3.479  11.392  0.0311  0.1297 -0.1855
  407loPI    C3 6499   9.923   3.768  11.481  0.0320  0.1065 -0.1119
  407loPI   PO4 6500  10.033   3.352  11.035  0.0383 -0.1886  0.0442
  407loPI   GL1 6501   9.787   3.367  10.644  0.1901  0.0084 -0.3985
  407loPI   GL2 6502   9.770   3.064  10.627 -0.1832  0.0100  0.0166
  407loPI   C1A 6503   9.774   3.359  10.256  0.1766 -0.0389  0.0702
  407loPI   C2A 6504   9.732   3.289   9.939  0.1641 -0.0565 -0.0882
  407loPI   C3A 6505   9.731   3.218   9.490 -0.1964 -0.0377 -0.1201
  407loPI   C4A 6506   9.758   3.318   8.973 -0.0356 -0.0775 -0.2763
  407loPI   C5A 6507   9.742   3.176   8.603 -0.3820 -0.2175 -0.1696
  407loPI   C6A 6508   9.647   2.758   8.385  0.1398 -0.3822 -0.3209
  407loPI   C1B 6509   9.671   2.805  10.265 -0.1078  0.1283 -0.2952
  407loPI   C2B 6510   9.708   2.788   9.802  0.0339  0.0900 -0.0704
  407loPI   C3B 6511   9.623   2.737   9.430  0.4025  0.0045  0.2839
  407loPI   C4B 6512   9.644   2.796   9.018  0.0628 -0.0919 -0.1206
  408loPI    C1 6513  11.777   8.568  11.683 -0.1047  0.1854 -0.1386
  408loPI    C2 6514  12.032   8.492  11.982 -0.2332 -0.0796 -0.0931
  408loPI    C3 6515  11.669   8.642  12.061 -0.1652  0.1135 -0.1415
  408loPI   PO4 6516  11.870   8.759  11.376 -0.1416  0.1534  0.1275
  408loPI   GL1 6517  11.595   8.845  10.958 -0.4247  0.0491  0.0088
  408loPI   GL2 6518  11.371   8.858  10.935  0.0152  0.1814 -0.0028
  408loPI   C1A 6519  11.724   8.981  10.625 -0.0996  0.3268  0.0852
  408loPI   C2A 6520  11.676   8.965  10.146 -0.1098  0.1592 -0.0636
  408loPI   C3A 6521  11.578   9.001   9.674  0.2046 -0.0359 -0.2131
  408loPI   C4A 6522  11.621   9.031   9.198 -0.2630 -0.4967 -0.2100
  408loPI   C5A 6523  11.554   9.032   8.774  0.0046 -0.1747 -0.0881
  408loPI   C6A 6524  11.204   9.114   8.490  0.4773  0.0009 -0.0930
  408loPI   C1B 6525  11.235   8.817  10.502 -0.1490 -0.2642  0.3820
  408loPI   C2B 6526  11.171   8.776  10.000  0.0071  0.1306  0.2360
  408loPI   C3B 6527  11.094   8.830   9.554 -0.5430  0.3897 -0.1271
  408loPI   C4B 6528  11.136   8.863   9.108  0.1551 -0.2815 -0.1441
  409loPI    C1 6529   7.726   9.995  11.440 -0.1384  0.1311 -0.0896
  409loPI    C2 6530   7.712  10.323  11.668  0.3697  0.1797 -0.1160
  409loPI    C3 6531   7.762   9.965  11.837  0.3196  0.1697 -0.1223
  409loPI   PO4 6532   7.749  10.051  11.151  0.0985  0.0279 -0.1165
  409loPI   GL1 6533   7.584  10.023  10.814  0.2190 -0.1769 -0.5511
  409loPI   GL2 6534   7.349   9.924  10.654 -0.0553 -0.2361  0.0766
  409loPI   C1A 6535   7.766  10.094  10.444 -0.0807 -0.0864 -0.3959
  409loPI   C2A 6536   7.784  10.055  10.032 -0.2416  0.0155  0.0242
  409loPI   C3A 6537   7.773  10.102   9.592 -0.0675 -0.1258 -0.2340
  409loPI   C4A 6538   7.759  10.193   9.111  0.0934 -0.2575  0.0678
  409loPI   C5A 6539   7.790  10.421   8.669  0.2185 -0.0988  0.1025
  409loPI   C6A 6540   8.124  10.735   8.485  0.1141 -0.3969 -0.2312
  409loPI   C1B 6541   7.362   9.853  10.230 -0.0477  0.1754 -0.1459
  409loPI   C2B 6542   7.345   9.882   9.790  0.0653 -0.0896  0.1365
  409loPI   C3B 6543   7.298  10.001   9.300 -0.1832  0.0453  0.2576
  409loPI   C4B 6544   7.340   9.979   8.790  0.0442  0.0865 -0.2158
  410loPI    C1 6545   9.889   7.164  11.506 -0.0035  0.1540  0.0779
  410loPI    C2 6546   9.855   6.873  11.778 -0.1812  0.0283 -0.0766
  410loPI    C3 6547   9.595   7.177  11.777 -0.2057  0.0073 -0.1313
  410loPI   PO4 6548   9.913   7.053  11.324 -0.0143  0.0297  0.4524
  410loPI   GL1 6549   9.888   7.056  10.849  0.2488 -0.2895  0.0484
  410loPI   GL2 6550   9.673   6.774  10.865  0.2212  0.0753 -0.2528
  410loPI   C1A 6551   9.910   7.296  10.405 -0.0555  0.1650 -0.0720
  410loPI   C2A 6552   9.873   7.446  10.014  0.1083 -0.0018  0.1851
  410loPI   C3A 6553   9.904   7.567   9.634  0.2155  0.0048  0.0684
  410loPI   C4A 6554   9.961   7.518   9.244  0.1551 -0.1216 -0.1118
  410loPI   C5A 6555   9.866   7.478   8.821 -0.1895  0.1377  0.1605
  410loPI   C6A 6556  10.261   7.486   8.511 -0.0382 -0.1619 -0.0892
  410loPI   C1B 6557   9.873   6.796  10.430 -0.0413  0.2552  0.0490
  410loPI   C2B 6558   9.775   6.881  10.079 -0.0707 -0.2101 -0.0043
  410loPI   C3B 6559   9.737   7.021   9.608  0.1782  0.1527  0.0992
  410loPI   C4B 6560   9.804   7.071   9.168 -0.0104  0.0582 -0.2034
  411loPI    C1 6561  12.655  15.047  11.715  0.1762  0.0041 -0.0138
  411loPI    C2 6562  12.410  15.154  12.013  0.1268 -0.1085 -0.0136
  411loPI    C3 6563  12.653  14.840  12.057  0.2454 -0.0195 -0.0275
  411loPI   PO4 6564  12.540  15.189  11.558  0.2981 -0.2635 -0.0232
  411loPI   GL1 6565  12.570  15.321  11.037 -0.1007 -0.0556 -0.0454
  411loPI   GL2 6566  12.277  15.364  11.201  0.0800  0.0320 -0.2583
  411loPI   C1A 6567  12.536  15.359  10.633  0.0037 -0.3584 -0.0083
  411loPI   C2A 6568  12.608  15.391  10.137  0.0710 -0.2374  0.0301
  411loPI   C3A 6569  12.631  15.478   9.773  0.2345 -0.0890  0.2472
  411loPI   C4A 6570  12.654  15.469   9.414  0.0726 -0.1077  0.1918
  411loPI   C5A 6571  12.436  15.211   9.113  0.0765 -0.4654  0.2420
  411loPI   C6A 6572  12.141  15.019   8.740  0.1060  0.1182 -0.0474
  411loPI   C1B 6573  12.099  15.302  10.862 -0.1602  0.0197  0.2236
  411loPI   C2B 6574  11.983  15.222  10.414 -0.1203 -0.0776  0.1519
  411loPI   C3B 6575  12.073  15.292  10.032 -0.1247 -0.2861  0.1650
  411loPI   C4B 6576  12.176  15.292   9.614  0.3009 -0.3126  0.0713
  412loPI    C1 6577  17.711  13.416  11.469 -0.1486 -0.2375  0.2113
  412loPI    C2 6578  17.930  13.736  11.568 -0.0811 -0.2092 -0.0237
  412loPI    C3 6579  17.576  13.674  11.743 -0.0412 -0.0699  0.1082
  412loPI   PO4 6580  17.887  13.242  11.237 -0.2242 -0.4650  0.0691
  412loPI   GL1 6581  18.169  13.337  10.935  0.0809  0.0690 -0.2306
  412loPI   GL2 6582  18.006  12.984  10.829 -0.2703  0.0044  0.1338
  412loPI   C1A 6583  18.098  13.287  10.440  0.2722  0.2245  0.3400
  412loPI   C2A 6584  18.038  13.294  10.051 -0.2678  0.2932  0.1648
  412loPI   C3A 6585  18.092  13.427   9.707  0.0594 -0.1851 -0.0876
  412loPI   C4A 6586  18.042  13.433   9.224 -0.2363 -0.0043 -0.3138
  412loPI   C5A 6587  17.810  13.713   8.897 -0.1976  0.3311 -0.1715
  412loPI   C6A 6588  17.486  13.835   8.889  0.0869 -0.0150 -0.1537
  412loPI   C1B 6589  17.982  12.743  10.566 -0.0699 -0.0027  0.2819
  412loPI   C2B 6590  18.031  12.819  10.082  0.1750 -0.0361 -0.1591
  412loPI   C3B 6591  17.926  12.949   9.677 -0.0304 -0.0729 -0.2323
  412loPI   C4B 6592  17.880  12.899   9.263 -0.2689  0.1266  0.0651
  413loPI    C1 6593  12.090  11.955  12.072 -0.0264 -0.1104 -0.0020
  413loPI    C2 6594  12.416  12.065  12.276 -0.0336 -0.0335 -0.0314
  413loPI    C3 6595  12.055  12.189  12.395 -0.0232  0.1531 -0.1886
  413loPI   PO4 6596  12.119  11.991  11.807 -0.2623  0.0215 -0.4100
  413loPI   GL1 6597  12.009  11.859  11.387  0.0478 -0.0242 -0.1739
  413loPI   GL2 6598  11.796  11.781  11.110  0.1122 -0.0468  0.1852
  413loPI   C1A 6599  12.235  12.017  10.953  0.0597  0.3946  0.0644
  413loPI   C2A 6600  12.211  12.033  10.447 -0.1171  0.0914  0.0119
  413loPI   C3A 6601  12.326  12.002  10.046 -0.0214  0.0723  0.1007
  413loPI   C4A 6602  12.234  11.963   9.553 -0.3101 -0.0370  0.2357
  413loPI   C5A 6603  12.398  11.992   9.163  0.2470 -0.1841 -0.0586
  413loPI   C6A 6604  12.813  12.154   8.977 -0.1060  0.1488  0.0077
  413loPI   C1B 6605  11.781  11.913  10.660  0.1969  0.1192  0.1333
  413loPI   C2B 6606  11.784  11.779  10.242 -0.0964  0.1537  0.0739
  413loPI   C3B 6607  11.833  11.878   9.765  0.3165  0.0789 -0.1344
  413loPI   C4B 6608  11.871  11.851   9.300  0.0471  0.1290  0.1728
  414loPI    C1 6609   6.248   4.142  11.529  0.1760 -0.1792 -0.1709
  414loPI    C2 6610   5.970   3.855  11.503 -0.0349 -0.0004  0.0696
  414loPI    C3 6611   6.242   3.845  11.796  0.0821 -0.0610 -0.0403
  414loPI   PO4 6612   6.294   4.290  11.236 -0.1691 -0.1861 -0.2958
  414loPI   GL1 6613   6.232   4.266  10.831 -0.2284 -0.1970 -0.1123
  414loPI   GL2 6614   6.509   4.062  10.795 -0.0520  0.1999  0.1483
  414loPI   C1A 6615   5.980   4.352  10.474 -0.1169 -0.1105  0.0684
  414loPI   C2A 6616   5.934   4.370  10.062  0.3483 -0.1388 -0.3368
  414loPI   C3A 6617   5.877   4.391   9.599  0.0602  0.0441  0.1257
  414loPI   C4A 6618   6.002   4.498   9.202 -0.1867 -0.1679 -0.1511
  414loPI   C5A 6619   6.025   4.468   8.819  0.0853 -0.0374  0.0056
  414loPI   C6A 6620   6.176   4.085   8.592 -0.0568  0.3148 -0.1953
  414loPI   C1B 6621   6.318   3.985  10.421 -0.1302  0.0214 -0.1365
  414loPI   C2B 6622   6.318   4.079   9.933  0.3795  0.1361 -0.0439
  414loPI   C3B 6623   6.266   4.157   9.506 -0.2610 -0.0292  0.2073
  414loPI   C4B 6624   6.384   4.181   9.121  0.3273  0.0846 -0.0884
  415loPI    C1 6625   7.523   5.694  11.262  0.1238 -0.0334  0.0336
  415loPI    C2 6626   7.367   6.053  11.345  0.0022 -0.0502 -0.1181
  415loPI    C3 6627   7.492   5.816  11.642 -0.0620  0.0527 -0.0082
  415loPI   PO4 6628   7.483   5.657  11.043 -0.0128  0.2076  0.0136
  415loPI   GL1 6629   7.191   5.584  10.622 -0.2379 -0.2220 -0.2007
  415loPI   GL2 6630   7.018   5.325  10.744  0.3774 -0.1571 -0.0178
  415loPI   C1A 6631   7.221   5.635  10.233  0.1220 -0.1183 -0.0779
  415loPI   C2A 6632   7.189   5.742   9.814  0.1074  0.0377  0.2196
  415loPI   C3A 6633   7.210   5.801   9.366 -0.0062  0.0305  0.0462
  415loPI   C4A 6634   7.293   5.726   8.918 -0.0870  0.0800  0.4067
  415loPI   C5A 6635   7.281   5.482   8.551  0.1783  0.1598  0.0569
  415loPI   C6A 6636   6.940   5.459   8.324 -0.1554  0.0586 -0.1116
  415loPI   C1B 6637   7.066   5.144  10.318  0.2004  0.0107 -0.1867
  415loPI   C2B 6638   7.035   5.257   9.867 -0.1022  0.2074  0.0346
  415loPI   C3B 6639   7.044   5.274   9.427  0.0217 -0.0797  0.0706
  415loPI   C4B 6640   7.087   5.324   8.989  0.1527 -0.2219  0.1901
  416loPI    C1 6641  15.360   0.191  11.381 -0.0405  0.3470 -0.1188
  416loPI    C2 6642  14.970   0.116  11.334  0.0627 -0.3276 -0.0014
  416loPI    C3 6643  15.135   0.097  11.698  0.2119 -0.0637 -0.0529
  416loPI   PO4 6644  15.419   0.326  11.160 -0.1652  0.3207 -0.0048
  416loPI   GL1 6645  15.336   0.311  10.798 -0.2134 -0.1460  0.0862
  416loPI   GL2 6646  15.046   0.329  10.831 -0.1957  0.1070 -0.0554
  416loPI   C1A 6647  15.471   0.511  10.407  0.0221 -0.2882  0.1188
  416loPI   C2A 6648  15.497   0.399   9.937  0.2178  0.2924 -0.1917
  416loPI   C3A 6649  15.458   0.405   9.543  0.4590 -0.0573 -0.0024
  416loPI   C4A 6650  15.467   0.519   9.146 -0.0778  0.2460  0.1804
  416loPI   C5A 6651  15.629   0.507   8.800 -0.1291 -0.3037  0.1794
  416loPI   C6A 6652  15.686   0.485   8.422  0.3745  0.2869  0.0863
  416loPI   C1B 6653  14.969   0.243  10.439 -0.0369  0.0887  0.3058
  416loPI   C2B 6654  15.008   0.300   9.999 -0.1916  0.0920  0.1474
  416loPI   C3B 6655  14.947   0.345   9.560 -0.1738 -0.2180  0.1148
  416loPI   C4B 6656  14.948   0.277   9.193  0.2469  0.0972  0.1201
  417loPI    C1 6657  12.398   6.906  11.238 -0.0896  0.0456  0.0725
  417loPI    C2 6658  12.682   7.023  11.495 -0.0856 -0.0228  0.0992
  417loPI    C3 6659  12.588   6.635  11.463 -0.1371 -0.0063  0.0502
  417loPI   PO4 6660  12.473   6.958  10.945  0.1074 -0.1979 -0.3941
  417loPI   GL1 6661  12.498   6.890  10.566 -0.0958  0.1855 -0.0631
  417loPI   GL2 6662  12.841   6.852  10.581 -0.2289 -0.1919 -0.0315
  417loPI   C1A 6663  12.474   6.916  10.063  0.0590 -0.0630  0.1277
  417loPI   C2A 6664  12.546   7.011   9.682  0.2171  0.1811  0.1856
  417loPI   C3A 6665  12.435   6.969   9.193 -0.0528  0.0339 -0.1231
  417loPI   C4A 6666  12.452   7.098   8.751 -0.1575  0.2148  0.0660
  417loPI   C5A 6667  12.550   7.327   8.463 -0.2709 -0.0203 -0.0920
  417loPI   C6A 6668  12.459   7.577   8.195 -0.0440 -0.0036  0.0157
  417loPI   C1B 6669  12.912   7.028  10.147 -0.2140 -0.1328 -0.0536
  417loPI   C2B 6670  12.983   7.132   9.840 -0.0200 -0.0257 -0.1397
  417loPI   C3B 6671  12.943   7.115   9.403 -0.0631  0.2839 -0.0073
  417loPI   C4B 6672  13.063   7.256   8.989  0.1598  0.1153  0.0164
  418loPI    C1 6673  13.566   7.398  11.506 -0.0356 -0.2300 -0.3000
  418loPI    C2 6674  13.796   7.215  11.777 -0.1220  0.0171 -0.0559
  418loPI    C3 6675  13.398   7.209  11.816 -0.1394 -0.0293 -0.2326
  418loPI   PO4 6676  13.796   7.547  11.339 -0.2299  0.0933  0.0419
  418loPI   GL1 6677  13.926   7.360  10.945 -0.1538  0.0484  0.0095
  418loPI   GL2 6678  13.936   7.055  10.856  0.2415  0.2424 -0.0147
  418loPI   C1A 6679  13.928   7.361  10.456  0.1859  0.1059 -0.1085
  418loPI   C2A 6680  13.918   7.413  10.035 -0.0248 -0.2460 -0.1536
  418loPI   C3A 6681  13.998   7.517   9.609  0.1220 -0.0275  0.0961
  418loPI   C4A 6682  13.978   7.431   9.144 -0.0283  0.0586  0.0101
  418loPI   C5A 6683  13.935   7.229   8.727 -0.1008 -0.0968  0.4883
  418loPI   C6A 6684  13.802   7.393   8.355 -0.1999  0.1758  0.1245
  418loPI   C1B 6685  13.873   6.866  10.476 -0.1191  0.0358  0.0155
  418loPI   C2B 6686  13.891   6.924  10.027  0.0306 -0.0201  0.0636
  418loPI   C3B 6687  13.854   7.006   9.593  0.1618  0.2214  0.1326
  418loPI   C4B 6688  13.735   6.992   9.166 -0.1717 -0.1028  0.0888
  419loPI    C1 6689   9.075   4.032  11.203 -0.0349  0.1387  0.1457
  419loPI    C2 6690   9.420   3.906  11.362 -0.0572  0.0183  0.1001
  419loPI    C3 6691   9.116   4.012  11.601  0.1061  0.3983  0.1459
  419loPI   PO4 6692   9.017   3.913  11.019 -0.0006  0.1973  0.1065
  419loPI   GL1 6693   8.842   3.842  10.633 -0.0637 -0.1070  0.2333
  419loPI   GL2 6694   9.156   3.762  10.542  0.0550  0.2952 -0.1271
  419loPI   C1A 6695   8.958   3.931  10.103  0.0874 -0.0324  0.0980
  419loPI   C2A 6696   8.995   3.894   9.670  0.1060 -0.0893 -0.0591
  419loPI   C3A 6697   9.042   4.095   9.193 -0.2916  0.1593 -0.1451
  419loPI   C4A 6698   9.207   4.197   8.816 -0.4425  0.0114 -0.0722
  419loPI   C5A 6699   9.251   4.456   8.438 -0.0498 -0.1449 -0.3030
  419loPI   C6A 6700   9.324   4.291   8.072  0.0612  0.1136 -0.3177
  419loPI   C1B 6701   9.339   3.650  10.266  0.0827 -0.0322  0.1240
  419loPI   C2B 6702   9.343   3.572   9.868 -0.0927  0.0637  0.0055
  419loPI   C3B 6703   9.402   3.580   9.460 -0.0285  0.0343  0.0328
  419loPI   C4B 6704   9.440   3.656   8.943 -0.1046  0.2286  0.0152
  420loPI    C1 6705   6.886  13.330  11.515  0.2103  0.0086 -0.0435
  420loPI    C2 6706   6.930  12.960  11.661 -0.2137  0.0739  0.2707
  420loPI    C3 6707   7.080  13.272  11.860 -0.0263  0.0911  0.1060
  420loPI   PO4 6708   6.865  13.232  11.168 -0.2538 -0.0258  0.0258
  420loPI   GL1 6709   6.809  12.978  10.755  0.1624  0.2960 -0.0319
  420loPI   GL2 6710   7.127  13.134  10.602 -0.0243  0.0575 -0.2390
  420loPI   C1A 6711   6.658  12.989  10.365 -0.1953 -0.0602  0.2958
  420loPI   C2A 6712   6.701  12.999   9.967  0.1481 -0.0460 -0.0188
  420loPI   C3A 6713   6.610  12.994   9.612  0.0540 -0.0578 -0.1291
  420loPI   C4A 6714   6.554  13.056   9.162  0.1194 -0.1243 -0.0078
  420loPI   C5A 6715   6.659  13.184   8.627 -0.1330  0.0224  0.1028
  420loPI   C6A 6716   6.924  13.129   8.360 -0.1427 -0.0059 -0.3278
  420loPI   C1B 6717   7.128  13.216  10.128 -0.1602  0.0522  0.0042
  420loPI   C2B 6718   7.157  13.130   9.758 -0.0113  0.1027 -0.2238
  420loPI   C3B 6719   7.118  13.144   9.347 -0.3180  0.0883  0.1345
  420loPI   C4B 6720   7.033  13.288   8.990  0.0904 -0.0836  0.0850
  421loPI    C1 6721  15.147  10.332  11.605 -0.1139  0.1110  0.1967
  421loPI    C2 6722  14.896  10.023  11.642 -0.0794  0.0449 -0.0923
  421loPI    C3 6723  15.193  10.071  11.905 -0.1195 -0.1348 -0.0120
  421loPI   PO4 6724  15.206  10.299  11.339  0.4686  0.3853  0.3284
  421loPI   GL1 6725  14.974  10.459  10.986  0.2056  0.0305 -0.0855
  421loPI   GL2 6726  14.708  10.683  11.001 -0.0500 -0.1825 -0.1529
  421loPI   C1A 6727  15.123  10.477  10.579  0.1440 -0.3271  0.1347
  421loPI   C2A 6728  15.196  10.526  10.238  0.1529 -0.2227  0.1330
  421loPI   C3A 6729  15.142  10.550   9.818  0.0644 -0.0446  0.1245
  421loPI   C4A 6730  15.158  10.600   9.436  0.0016 -0.3552  0.0096
  421loPI   C5A 6731  15.097  10.580   9.086 -0.1970  0.0366 -0.1456
  421loPI   C6A 6732  15.007  10.353   8.712 -0.1425  0.2257  0.0983
  421loPI   C1B 6733  14.794  10.891  10.571 -0.1108 -0.0174 -0.3506
  421loPI   C2B 6734  14.758  10.882  10.195 -0.0298  0.4246  0.2617
  421loPI   C3B 6735  14.849  10.980   9.801  0.3362  0.0268  0.0546
  421loPI   C4B 6736  14.732  10.986   9.302 -0.2175 -0.0105  0.2078
  422loPI    C1 6737   8.491   2.760  11.560 -0.1292 -0.1086 -0.0369
  422loPI    C2 6738   8.677   2.745  11.914  0.0826 -0.2366 -0.1518
  422loPI    C3 6739   8.377   2.493  11.835 -0.1886  0.0131  0.0581
  422loPI   PO4 6740   8.681   2.663  11.335 -0.1445 -0.1296  0.0327
  422loPI   GL1 6741   8.723   2.493  10.952  0.3724  0.1594 -0.0958
  422loPI   GL2 6742   8.719   2.788  10.852 -0.1641  0.0611  0.4003
  422loPI   C1A 6743   8.709   2.493  10.471 -0.2859 -0.2208 -0.3851
  422loPI   C2A 6744   8.709   2.482  10.044 -0.0906  0.2865 -0.1555
  422loPI   C3A 6745   8.639   2.455   9.715  0.2482  0.1585 -0.1028
  422loPI   C4A 6746   8.659   2.502   9.274 -0.0053 -0.3016  0.1027
  422loPI   C5A 6747   8.677   2.660   8.805  0.2293  0.0637  0.0250
  422loPI   C6A 6748   8.802   3.021   8.627 -0.0431 -0.1616  0.0216
  422loPI   C1B 6749   8.824   2.954  10.396  0.0544  0.2729  0.1975
  422loPI   C2B 6750   8.834   2.957   9.990 -0.0455  0.1535  0.0851
  422loPI   C3B 6751   8.817   2.938   9.525 -0.1691  0.2097  0.1138
  422loPI   C4B 6752   8.827   3.101   9.102 -0.0965  0.2019 -0.0780
  423loPI    C1 6753   1.758   4.279  11.397  0.1948  0.2044  0.1757
  423loPI    C2 6754   1.451   4.040  11.488  0.0726  0.2276 -0.1604
  423loPI    C3 6755   1.708   4.153  11.773 -0.0324 -0.0695  0.0572
  423loPI   PO4 6756   1.833   4.192  11.146 -0.2690  0.5641  0.2176
  423loPI   GL1 6757   1.852   3.866  10.850 -0.1199 -0.0403  0.1166
  423loPI   GL2 6758   2.078   3.662  10.696 -0.0273 -0.2114  0.1034
  423loPI   C1A 6759   1.734   3.949  10.443 -0.0410  0.0114 -0.0337
  423loPI   C2A 6760   1.778   4.060  10.033  0.1385 -0.0130 -0.2601
  423loPI   C3A 6761   1.799   4.029   9.517  0.1929  0.0473 -0.1395
  423loPI   C4A 6762   1.783   4.106   9.104 -0.2511  0.1940  0.2554
  423loPI   C5A 6763   1.751   4.081   8.720  0.2215  0.1483  0.0995
  423loPI   C6A 6764   1.825   3.937   8.234 -0.0436  0.0376  0.0340
  423loPI   C1B 6765   2.137   3.680  10.307  0.3578 -0.2435  0.1456
  423loPI   C2B 6766   2.138   3.667   9.857 -0.1776  0.0202 -0.1149
  423loPI   C3B 6767   2.180   3.674   9.404 -0.0335 -0.0553 -0.0068
  423loPI   C4B 6768   2.218   3.755   9.000  0.2459  0.1540 -0.0008
  424loPI    C1 6769   1.778  12.861  11.689  0.2767  0.1552  0.0486
  424loPI    C2 6770   1.571  12.978  12.011  0.2702 -0.0217  0.1102
  424loPI    C3 6771   1.665  12.592  11.964  0.3470  0.0165 -0.0567
  424loPI   PO4 6772   1.744  13.007  11.537  0.0107  0.1676 -0.1063
  424loPI   GL1 6773   1.837  13.135  11.078  0.0482 -0.1823 -0.2347
  424loPI   GL2 6774   1.674  12.897  10.911  0.0896  0.0650 -0.0650
  424loPI   C1A 6775   1.763  13.379  10.680 -0.0376 -0.0767 -0.1724
  424loPI   C2A 6776   1.670  13.315  10.280  0.2776  0.0929  0.2519
  424loPI   C3A 6777   1.638  13.301   9.865 -0.0082  0.2274 -0.2148
  424loPI   C4A 6778   1.581  13.307   9.385  0.1390  0.2898  0.1278
  424loPI   C5A 6779   1.787  13.328   9.012  0.1019  0.0727  0.1287
  424loPI   C6A 6780   1.831  13.419   8.676  0.0509  0.2023 -0.1680
  424loPI   C1B 6781   1.540  12.776  10.548 -0.1963 -0.0672  0.0436
  424loPI   C2B 6782   1.512  12.836  10.057 -0.2624  0.1165  0.1572
  424loPI   C3B 6783   1.536  12.741   9.597 -0.2117  0.1708 -0.3543
  424loPI   C4B 6784   1.574  12.895   9.118 -0.1220  0.2579  0.3142
  425loPI    C1 6785  15.658   4.275  11.651 -0.1653  0.0606 -0.0739
  425loPI    C2 6786  15.928   4.285  11.945 -0.0731  0.0411 -0.1574
  425loPI    C3 6787  15.625   4.546  11.943 -0.1332 -0.0258  0.0104
  425loPI   PO4 6788  15.812   4.244  11.432 -0.0596  0.1084  0.0362
  425loPI   GL1 6789  15.719   4.282  11.050  0.0469  0.2049 -0.3608
  425loPI   GL2 6790  15.918   4.256  10.802  0.1677  0.1174  0.3914
  425loPI   C1A 6791  15.558   4.601  10.715  0.2891  0.3208 -0.2026
  425loPI   C2A 6792  15.547   4.635  10.207 -0.2532 -0.0393 -0.1256
  425loPI   C3A 6793  15.561   4.628   9.767 -0.0330  0.0581 -0.2571
  425loPI   C4A 6794  15.552   4.716   9.453 -0.1479  0.1649 -0.0334
  425loPI   C5A 6795  15.630   4.670   8.970  0.0443  0.1521 -0.2415
  425loPI   C6A 6796  15.636   4.363   8.670  0.1344  0.1014 -0.2421
  425loPI   C1B 6797  15.909   4.241  10.352 -0.0156 -0.1937 -0.1219
  425loPI   C2B 6798  15.943   4.331  10.001  0.1568 -0.1080  0.0192
  425loPI   C3B 6799  15.935   4.326   9.550  0.0347  0.1375 -0.1018
  425loPI   C4B 6800  15.972   4.301   9.054 -0.0482  0.3555  0.2302
  426loPI    C1 6801   5.688   7.139  11.333 -0.1423  0.0170  0.2226
  426loPI    C2 6802   5.551   7.463  11.523  0.0086  0.2216 -0.0116
  426loPI    C3 6803   5.906   7.474  11.339  0.0302 -0.0888  0.0063
  426loPI   PO4 6804   5.459   7.007  11.138 -0.2263 -0.0751 -0.0249
  426loPI   GL1 6805   5.305   6.796  10.776 -0.1271 -0.1153  0.0867
  426loPI   GL2 6806   5.363   7.018  10.572  0.0413  0.0988 -0.0321
  426loPI   C1A 6807   5.200   6.568  10.403  0.1612 -0.2027  0.0656
  426loPI   C2A 6808   5.195   6.480   9.973 -0.3674  0.0956  0.2511
  426loPI   C3A 6809   5.155   6.488   9.514 -0.1878 -0.0248  0.3366
  426loPI   C4A 6810   5.137   6.516   9.052 -0.1588 -0.0061  0.2254
  426loPI   C5A 6811   5.075   6.593   8.603 -0.0262 -0.3775  0.1539
  426loPI   C6A 6812   5.042   6.568   8.209  0.0898 -0.1847 -0.2053
  426loPI   C1B 6813   5.251   7.072  10.153 -0.0383  0.1679 -0.1838
  426loPI   C2B 6814   5.252   7.000   9.637  0.2386 -0.0232  0.2400
  426loPI   C3B 6815   5.192   7.051   9.247  0.1168 -0.3483 -0.0277
  426loPI   C4B 6816   5.202   7.068   8.757 -0.4046  0.1109 -0.1291
  427loPI    C1 6817   6.007   8.158  11.331 -0.2154  0.1444 -0.0786
  427loPI    C2 6818   5.819   8.091  11.678  0.1388  0.1447  0.1173
  427loPI    C3 6819   6.121   8.353  11.661  0.4048 -0.1677 -0.0950
  427loPI   PO4 6820   5.921   7.930  11.205  0.0109 -0.1508 -0.0147
  427loPI   GL1 6821   5.935   7.811  10.790  0.5169 -0.0203 -0.2038
  427loPI   GL2 6822   5.937   8.174  10.788  0.1183 -0.0940  0.0830
  427loPI   C1A 6823   5.842   7.648  10.450 -0.4453 -0.2256 -0.0846
  427loPI   C2A 6824   5.773   7.631  10.035 -0.1760 -0.1998 -0.1277
  427loPI   C3A 6825   5.862   7.670   9.717  0.1171  0.0220  0.2181
  427loPI   C4A 6826   5.828   7.720   9.215  0.0349 -0.1295  0.0414
  427loPI   C5A 6827   5.796   7.609   8.830 -0.4703  0.1480  0.3073
  427loPI   C6A 6828   5.506   7.513   8.532 -0.0622  0.0790  0.1117
  427loPI   C1B 6829   5.922   8.148  10.385 -0.0110  0.0176 -0.2461
  427loPI   C2B 6830   5.958   8.132   9.921  0.0441 -0.3796 -0.3004
  427loPI   C3B 6831   5.901   8.126   9.514 -0.3856  0.2024  0.2092
  427loPI   C4B 6832   5.900   8.186   9.117  0.1476  0.3115 -0.0957
  428loPI    C1 6833  16.114  11.808  11.345  0.0877 -0.0974  0.0345
  428loPI    C2 6834  16.508  11.869  11.378  0.0134  0.3232  0.2061
  428loPI    C3 6835  16.291  11.776  11.701 -0.0255  0.0532  0.1055
  428loPI   PO4 6836  16.160  11.799  11.038 -0.1853  0.2338  0.1549
  428loPI   GL1 6837  16.500  11.824  10.867 -0.0650 -0.1415  0.0220
  428loPI   GL2 6838  16.322  11.989  10.629 -0.2157 -0.0463 -0.1400
  428loPI   C1A 6839  16.747  11.647  10.402  0.2812 -0.2897 -0.3715
  428loPI   C2A 6840  16.692  11.665   9.963 -0.0241  0.2705  0.0673
  428loPI   C3A 6841  16.779  11.636   9.542 -0.2760 -0.0122 -0.1017
  428loPI   C4A 6842  16.760  11.635   9.133 -0.4114 -0.0009 -0.1798
  428loPI   C5A 6843  16.522  11.536   8.716  0.0938 -0.0211  0.1042
  428loPI   C6A 6844  16.397  11.552   8.305  0.3086  0.0059 -0.0233
  428loPI   C1B 6845  16.309  11.967  10.216 -0.2570 -0.0921  0.1005
  428loPI   C2B 6846  16.383  12.026   9.822  0.0885 -0.1975 -0.3433
  428loPI   C3B 6847  16.414  11.887   9.415 -0.0126  0.1774  0.1067
  428loPI   C4B 6848  16.309  11.881   9.040 -0.0719 -0.1600 -0.1955
  429loPI    C1 6849  16.895   8.788  11.354  0.0878  0.1044 -0.0147
  429loPI    C2 6850  17.025   8.520  11.621  0.3055  0.1133 -0.1098
  429loPI    C3 6851  16.730   8.772  11.718  0.0984 -0.1590 -0.0198
  429loPI   PO4 6852  16.910   8.666  11.102 -0.1102  0.0113 -0.2046
  429loPI   GL1 6853  17.219   8.518  10.739  0.0845 -0.2917 -0.3230
  429loPI   GL2 6854  16.897   8.292  10.721  0.0163 -0.1262  0.0041
  429loPI   C1A 6855  17.420   8.530  10.370  0.2957 -0.0992 -0.1325
  429loPI   C2A 6856  17.412   8.544   9.896  0.3523  0.0955  0.0761
  429loPI   C3A 6857  17.416   8.483   9.478  0.1391 -0.3880 -0.1488
  429loPI   C4A 6858  17.398   8.537   9.092 -0.3630  0.0326  0.0950
  429loPI   C5A 6859  17.262   8.825   8.736 -0.1353  0.0527 -0.3816
  429loPI   C6A 6860  17.006   8.882   8.431  0.1781 -0.1629  0.1928
  429loPI   C1B 6861  16.889   8.449  10.220 -0.2619 -0.1167  0.3959
  429loPI   C2B 6862  16.946   8.418   9.764  0.2692  0.2935  0.0484
  429loPI   C3B 6863  16.967   8.382   9.363  0.0661  0.0205 -0.0523
  429loPI   C4B 6864  16.918   8.346   8.898 -0.1915 -0.0749  0.1467
  430loPI    C1 6865   9.536  14.949  11.384 -0.0216 -0.0784  0.0276
  430loPI    C2 6866   9.609  14.719  11.703  0.0211  0.0530  0.1132
  430loPI    C3 6867   9.780  15.080  11.672 -0.0277  0.0645 -0.0311
  430loPI   PO4 6868   9.309  14.955  11.339  0.0481 -0.1446  0.1584
  430loPI   GL1 6869   9.244  15.078  11.006 -0.0936 -0.0728 -0.1164
  430loPI   GL2 6870   8.957  14.990  10.920  0.0621  0.1983  0.0950
  430loPI   C1A 6871   9.332  15.235  10.667  0.0646 -0.1395  0.1354
  430loPI   C2A 6872   9.348  15.232  10.186 -0.2047 -0.1095  0.0737
  430loPI   C3A 6873   9.388  15.284   9.689  0.2825 -0.1376  0.1237
  430loPI   C4A 6874   9.447  15.391   9.272  0.1055 -0.1658 -0.1466
  430loPI   C5A 6875   9.591  15.312   8.884 -0.0252 -0.3757 -0.2265
  430loPI   C6A 6876   9.561  15.624   8.515  0.0986 -0.0783 -0.0047
  430loPI   C1B 6877   8.878  15.123  10.477 -0.1211  0.4131 -0.0567
  430loPI   C2B 6878   8.901  15.108  10.092 -0.0813  0.0527  0.1641
  430loPI   C3B 6879   8.855  15.215   9.689 -0.1205  0.1479  0.0345
  430loPI   C4B 6880   8.938  15.224   9.280  0.0526 -0.1131  0.2099
  431loPI    C1 6881   2.738   3.554  11.624 -0.2885  0.0946 -0.1112
  431loPI    C2 6882   2.901   3.823  11.871 -0.1360  0.0747 -0.1887
  431loPI    C3 6883   2.643   3.552  12.012  0.0308 -0.0044 -0.0304
  431loPI   PO4 6884   2.778   3.665  11.339 -0.3670 -0.2245 -0.0065
  431loPI   GL1 6885   2.731   3.621  10.961 -0.1123 -0.1427  0.0557
  431loPI   GL2 6886   2.564   3.403  10.868 -0.3212 -0.0517  0.1418
  431loPI   C1A 6887   2.633   3.845  10.477 -0.1876  0.0570 -0.0389
  431loPI   C2A 6888   2.584   3.849  10.052 -0.0533 -0.2063  0.2694
  431loPI   C3A 6889   2.620   3.823   9.652  0.0372 -0.0636  0.0189
  431loPI   C4A 6890   2.669   3.924   9.166  0.1342  0.1469 -0.3030
  431loPI   C5A 6891   2.761   4.134   8.777  0.1461 -0.5799  0.1662
  431loPI   C6A 6892   2.552   4.597   8.616 -0.0970  0.0363  0.1430
  431loPI   C1B 6893   2.544   3.289  10.479 -0.1137  0.0403  0.0654
  431loPI   C2B 6894   2.581   3.384  10.070  0.2344 -0.2619  0.0061
  431loPI   C3B 6895   2.493   3.332   9.696  0.2944  0.1902 -0.0482
  431loPI   C4B 6896   2.540   3.411   9.230 -0.0867 -0.4498  0.2758
  432loPI    C1 6897  17.316  14.311  11.794  0.0061 -0.1678  0.0542
  432loPI    C2 6898  17.417  14.688  11.885 -0.2399 -0.1045  0.0701
  432loPI    C3 6899  17.380  14.415  12.175  0.0108 -0.1608  0.0514
  432loPI   PO4 6900  17.250  14.287  11.444 -0.2533 -0.2222 -0.0028
  432loPI   GL1 6901  17.476  14.327  11.020 -0.0279 -0.3038 -0.0839
  432loPI   GL2 6902  17.214  14.139  10.890  0.2755  0.2646 -0.1804
  432loPI   C1A 6903  17.372  14.603  10.721  0.0194  0.1765  0.1487
  432loPI   C2A 6904  17.338  14.671  10.297  0.1495 -0.2217  0.0342
  432loPI   C3A 6905  17.386  14.576   9.884 -0.1311 -0.0751  0.1219
  432loPI   C4A 6906  17.372  14.613   9.459 -0.0233  0.1579  0.2019
  432loPI   C5A 6907  17.539  14.672   9.012  0.0617  0.1045  0.2545
  432loPI   C6A 6908  17.518  14.641   8.604 -0.1657 -0.0614  0.3310
  432loPI   C1B 6909  17.357  14.177  10.554  0.0376 -0.0795  0.3741
  432loPI   C2B 6910  17.283  14.081  10.045  0.2147 -0.0954 -0.1966
  432loPI   C3B 6911  17.316  14.066   9.547 -0.0526  0.1300 -0.2610
  432loPI   C4B 6912  17.219  14.192   9.066  0.2653 -0.0621  0.2883
  433loPI    C1 6913   4.641   5.093  11.279  0.1194 -0.0177 -0.1104
  433loPI    C2 6914   4.589   4.836  11.581 -0.2932  0.1772 -0.0086
  433loPI    C3 6915   4.619   5.227  11.655  0.0188  0.1911 -0.1895
  433loPI   PO4 6916   4.494   5.053  11.091  0.0849  0.0612 -0.0873
  433loPI   GL1 6917   4.622   4.988  10.676  0.1436 -0.1693 -0.0269
  433loPI   GL2 6918   4.683   5.317  10.698  0.0633  0.0916  0.1194
  433loPI   C1A 6919   4.644   4.922  10.217 -0.0407 -0.0097 -0.2906
  433loPI   C2A 6920   4.807   5.012   9.749 -0.1509 -0.1211 -0.1219
  433loPI   C3A 6921   4.731   5.045   9.397  0.0390 -0.0308 -0.2737
  433loPI   C4A 6922   4.674   4.992   8.971 -0.1505 -0.0175 -0.1055
  433loPI   C5A 6923   4.787   4.996   8.545 -0.2736  0.2735 -0.1930
  433loPI   C6A 6924   4.562   4.832   8.255 -0.2412 -0.0557 -0.0878
  433loPI   C1B 6925   4.820   5.418  10.293  0.0369 -0.0462  0.1330
  433loPI   C2B 6926   4.803   5.519   9.865  0.0873 -0.1956  0.2159
  433loPI   C3B 6927   4.831   5.543   9.446  0.1696 -0.1528 -0.2276
  433loPI   C4B 6928   4.871   5.470   9.029  0.0059 -0.0396  0.1796
  434loPI    C1 6929   6.528  14.611  11.598 -0.0478 -0.0795 -0.0219
  434loPI    C2 6930   6.258  14.733  11.866  0.1732  0.1277  0.1105
  434loPI    C3 6931   6.334  14.343  11.822 -0.0185  0.0796  0.1968
  434loPI   PO4 6932   6.480  14.743  11.343 -0.0450 -0.0881  0.1183
  434loPI   GL1 6933   6.559  14.605  10.943  0.2392 -0.0475  0.0736
  434loPI   GL2 6934   6.353  14.412  10.788  0.1822  0.0117 -0.0562
  434loPI   C1A 6935   6.557  14.766  10.513  0.2904  0.0327 -0.0199
  434loPI   C2A 6936   6.578  14.770  10.079 -0.1529  0.3058  0.1958
  434loPI   C3A 6937   6.519  14.843   9.669  0.0141 -0.1874  0.0185
  434loPI   C4A 6938   6.465  14.986   9.228  0.2553  0.0543 -0.1944
  434loPI   C5A 6939   6.154  15.243   8.889 -0.0556  0.0912 -0.0688
  434loPI   C6A 6940   5.825  14.993   8.717  0.0438  0.0912 -0.1803
  434loPI   C1B 6941   6.506  14.245  10.398 -0.1587  0.0881 -0.0209
  434loPI   C2B 6942   6.432  14.344   9.979 -0.1772  0.0872 -0.5325
  434loPI   C3B 6943   6.424  14.350   9.505  0.0517 -0.2064  0.1419
  434loPI   C4B 6944   6.411  14.372   9.077  0.1868  0.1799  0.1246
  435loPI    C1 6945   0.032   9.048  11.710  0.0360  0.1625 -0.0954
  435loPI    C2 6946  -0.083   8.851  12.038  0.1971  0.1374 -0.0532
  435loPI    C3 6947   0.291   8.989  12.009  0.2065  0.0718 -0.2589
  435loPI   PO4 6948  -0.105   8.887  11.495 -0.0110 -0.0656  0.0654
  435loPI   GL1 6949   0.014   8.805  11.078  0.2116  0.2768 -0.0594
  435loPI   GL2 6950   0.151   9.111  10.986 -0.1888 -0.1756  0.0902
  435loPI   C1A 6951   0.112   8.691  10.648  0.1878  0.0444  0.2900
  435loPI   C2A 6952   0.174   8.626  10.190 -0.0873 -0.0937 -0.0126
  435loPI   C3A 6953   0.175   8.682   9.748  0.0180 -0.6166 -0.2783
  435loPI   C4A 6954   0.147   8.740   9.292 -0.1143  0.1504  0.4455
  435loPI   C5A 6955   0.312   8.696   8.973 -0.3424 -0.0283 -0.0113
  435loPI   C6A 6956   0.682   8.843   8.912 -0.3212 -0.1155  0.3313
  435loPI   C1B 6957   0.253   9.161  10.485  0.0974 -0.0649 -0.3061
  435loPI   C2B 6958   0.266   9.157   9.990  0.2615  0.0991 -0.3272
  435loPI   C3B 6959   0.224   9.191   9.550 -0.1647  0.1078  0.4319
  435loPI   C4B 6960   0.401   9.194   9.037 -0.0935  0.1924 -0.0350
  436loPI    C1 6961  13.157  11.053  11.809 -0.0553 -0.0007  0.0359
  436loPI    C2 6962  12.828  11.249  11.693  0.0989  0.1809 -0.0994
  436loPI    C3 6963  13.086  11.422  11.945 -0.1663 -0.1592  0.4224
  436loPI   PO4 6964  13.302  10.981  11.620  0.1132 -0.0769  0.1263
  436loPI   GL1 6965  13.156  11.028  11.104 -0.3350  0.0625  0.0010
  436loPI   GL2 6966  13.440  10.922  10.893 -0.0518  0.0716 -0.2118
  436loPI   C1A 6967  13.044  11.224  10.723 -0.1123 -0.0822  0.2557
  436loPI   C2A 6968  13.039  11.330  10.253  0.0460  0.1050  0.1982
  436loPI   C3A 6969  13.071  11.326   9.810  0.1734 -0.2128  0.1807
  436loPI   C4A 6970  13.051  11.337   9.355  0.1921  0.1076 -0.0467
  436loPI   C5A 6971  13.051  11.214   8.921  0.0854 -0.0641  0.0240
  436loPI   C6A 6972  13.208  11.202   8.549 -0.0973  0.3669 -0.1911
  436loPI   C1B 6973  13.434  10.899  10.385 -0.0578  0.2590  0.2510
  436loPI   C2B 6974  13.508  11.030   9.932  0.0769  0.1863 -0.2500
  436loPI   C3B 6975  13.471  11.032   9.542  0.0865 -0.3200  0.2883
  436loPI   C4B 6976  13.505  10.998   9.089  0.0655  0.0383  0.0091
  437loPI    C1 6977   1.686   9.062  11.740  0.0716 -0.1011 -0.1423
  437loPI    C2 6978   1.482   8.832  11.996  0.0414 -0.1674 -0.2253
  437loPI    C3 6979   1.841   8.976  12.098 -0.0749  0.0052 -0.0520
  437loPI   PO4 6980   1.690   8.920  11.547 -0.2075 -0.2996 -0.2280
  437loPI   GL1 6981   1.538   8.909  11.181 -0.0924  0.0047  0.1002
  437loPI   GL2 6982   1.742   8.889  10.998  0.0993  0.1848  0.1549
  437loPI   C1A 6983   1.125   8.914  10.884 -0.0094  0.4675 -0.3027
  437loPI   C2A 6984   1.028   8.937  10.443  0.0492 -0.0368 -0.0860
  437loPI   C3A 6985   1.107   8.933  10.019  0.0500 -0.0715  0.4760
  437loPI   C4A 6986   1.131   9.026   9.616  0.1974 -0.0442  0.0253
  437loPI   C5A 6987   1.099   8.920   9.231  0.0497  0.1857 -0.2802
  437loPI   C6A 6988   1.297   9.007   8.828 -0.1358 -0.2281  0.0117
  437loPI   C1B 6989   1.547   9.008  10.623 -0.1808 -0.3075 -0.0304
  437loPI   C2B 6990   1.541   9.102  10.241 -0.1154 -0.1775  0.0011
  437loPI   C3B 6991   1.586   9.152   9.851 -0.0676  0.0419 -0.2145
  437loPI   C4B 6992   1.640   9.161   9.409  0.3204 -0.1226 -0.1523
  438loPI    C1 6993   2.030  17.258  11.620 -0.1223 -0.0990  0.0124
  438loPI    C2 6994   1.715  17.098  11.808 -0.1074 -0.4723 -0.2701
  438loPI    C3 6995   2.078  17.079  11.975 -0.2594  0.1627  0.1655
  438loPI   PO4 6996   1.940  17.313  11.401 -0.0080 -0.5890  0.2314
  438loPI   GL1 6997   1.952  17.516  11.033  0.1100 -0.0852  0.1224
  438loPI   GL2 6998   1.665  17.578  11.029 -0.0983  0.0830  0.1984
  438loPI   C1A 6999   2.164  17.641  10.715 -0.2334  0.3161 -0.1745
  438loPI   C2A 7000   2.169  17.760  10.264  0.1690  0.1945 -0.0622
  438loPI   C3A 7001   2.131  17.720   9.784 -0.2859  0.2558 -0.1222
  438loPI   C4A 7002   2.250  17.676   9.392  0.1138  0.1009  0.0867
  438loPI   C5A 7003   2.215  17.670   8.941 -0.2610 -0.0142  0.0194
  438loPI   C6A 7004   2.147  17.687   8.517  0.0661 -0.0082 -0.0726
  438loPI   C1B 7005   1.657  17.470  10.601 -0.3379  0.1663 -0.0615
  438loPI   C2B 7006   1.678  17.550  10.074  0.2281 -0.3441 -0.1648
  438loPI   C3B 7007   1.658  17.641   9.690 -0.1689  0.3032  0.0262
  438loPI   C4B 7008   1.739  17.717   9.251 -0.1563  0.0266 -0.0857
  439loPI    C1 7009  16.127  14.458  11.694 -0.1281 -0.0675 -0.1478
  439loPI    C2 7010  15.872  14.207  11.872 -0.0407 -0.0447  0.0112
  439loPI    C3 7011  16.093  14.457  12.092 -0.0290  0.0782 -0.1383
  439loPI   PO4 7012  16.216  14.401  11.534 -0.1603  0.0509 -0.0004
  439loPI   GL1 7013  16.439  14.525  11.181  0.0290  0.0957 -0.0343
  439loPI   GL2 7014  16.515  14.249  10.967 -0.1879 -0.0236  0.1405
  439loPI   C1A 7015  16.484  14.713  10.805 -0.0069 -0.0312  0.1168
  439loPI   C2A 7016  16.499  14.794  10.390  0.2229 -0.1850  0.1629
  439loPI   C3A 7017  16.547  14.772   9.952 -0.3091  0.0175  0.0398
  439loPI   C4A 7018  16.537  14.803   9.498 -0.1420 -0.1046 -0.1210
  439loPI   C5A 7019  16.347  14.787   9.088  0.1450 -0.2247  0.2554
  439loPI   C6A 7020  16.013  14.901   9.049  0.0338 -0.2000  0.2771
  439loPI   C1B 7021  16.359  14.273  10.581  0.0397 -0.0724  0.0100
  439loPI   C2B 7022  16.380  14.324  10.147 -0.0329  0.0337 -0.1415
  439loPI   C3B 7023  16.352  14.330   9.760 -0.0952 -0.0104 -0.1368
  439loPI   C4B 7024  16.402  14.217   9.424 -0.1817 -0.1939 -0.1030
  440loPI    C1 7025   9.789  16.381  11.796 -0.0675  0.0427  0.0756
  440loPI    C2 7026   9.985  16.713  11.901  0.0866 -0.0460  0.0719
  440loPI    C3 7027   9.891  16.441  12.178 -0.2924  0.1310  0.1230
  440loPI   PO4 7028   9.897  16.319  11.633  0.0924 -0.1677 -0.1069
  440loPI   GL1 7029   9.812  16.072  11.294 -0.0150  0.0554 -0.2135
  440loPI   GL2 7030   9.883  16.382  11.112 -0.0700  0.0183 -0.2834
  440loPI   C1A 7031   9.924  15.955  10.844 -0.0297  0.0385  0.2573
  440loPI   C2A 7032   9.954  15.876  10.453 -0.0818  0.0044 -0.0369
  440loPI   C3A 7033   9.915  15.958   9.960  0.1092 -0.1533 -0.1107
  440loPI   C4A 7034  10.057  15.987   9.647 -0.0404 -0.0279 -0.2346
  440loPI   C5A 7035  10.092  16.001   9.180  0.0853 -0.1135  0.2083
  440loPI   C6A 7036  10.452  16.038   8.892  0.2989  0.3763  0.2428
  440loPI   C1B 7037  10.089  16.469  10.694  0.2090  0.1061  0.0313
  440loPI   C2B 7038  10.047  16.392  10.222 -0.1040 -0.2416 -0.0045
  440loPI   C3B 7039  10.103  16.496   9.667  0.1672  0.0650  0.2078
  440loPI   C4B 7040  10.083  16.629   9.207  0.0168  0.0716 -0.3624
  441loPI    C1 7041  17.168   1.328  11.560  0.1169  0.0053  0.0324
  441loPI    C2 7042  17.497   1.264  11.777  0.0851 -0.1616  0.0324
  441loPI    C3 7043  17.186   1.456  11.938  0.1455 -0.0881  0.0627
  441loPI   PO4 7044  17.190   1.314  11.361  0.0264 -0.2026 -0.1677
  441loPI   GL1 7045  16.973   1.360  11.013  0.0110  0.2506 -0.2404
  441loPI   GL2 7046  17.006   1.503  10.742  0.0341 -0.1696  0.1318
  441loPI   C1A 7047  16.920   0.968  10.837 -0.1739 -0.0779 -0.1260
  441loPI   C2A 7048  16.907   0.862  10.471  0.0192 -0.1467 -0.1330
  441loPI   C3A 7049  16.893   0.960  10.075  0.0598  0.0121  0.2457
  441loPI   C4A 7050  16.988   0.907   9.695  0.1625 -0.0418 -0.0880
  441loPI   C5A 7051  16.934   0.894   9.186 -0.1223 -0.0754  0.1023
  441loPI   C6A 7052  17.074   0.969   8.820 -0.0490  0.2064  0.0758
  441loPI   C1B 7053  17.047   1.376  10.325 -0.3727  0.0836 -0.0954
  441loPI   C2B 7054  17.119   1.361   9.850  0.0804 -0.2225  0.0655
  441loPI   C3B 7055  17.088   1.407   9.321  0.1337  0.0451  0.1404
  441loPI   C4B 7056  16.857   1.476   8.797 -0.0501 -0.1375  0.3082
  442loPI    C1 7057   9.576   0.993  11.318  0.0474 -0.1353 -0.0330
  442loPI    C2 7058   9.413   0.807  11.633  0.0528  0.1142  0.1199
  442loPI    C3 7059   9.811   0.832  11.598  0.0526  0.0520  0.0721
  442loPI   PO4 7060   9.549   0.855  11.068 -0.0766  0.1236 -0.1124
  442loPI   GL1 7061   9.700   0.492  10.845 -0.0116 -0.1977 -0.1563
  442loPI   GL2 7062  10.029   0.491  10.873 -0.3645  0.0522  0.1918
  442loPI   C1A 7063   9.586   0.446  10.438  0.2133  0.0947  0.3054
  442loPI   C2A 7064   9.606   0.425   9.993 -0.3402 -0.0445 -0.0227
  442loPI   C3A 7065   9.532   0.446   9.527 -0.1040 -0.0215  0.2543
  442loPI   C4A 7066   9.603   0.538   9.140 -0.1104 -0.0120 -0.0385
  442loPI   C5A 7067   9.568   0.445   8.738 -0.0647 -0.0702  0.2612
  442loPI   C6A 7068   9.759   0.396   8.335  0.0642 -0.0635  0.1817
  442loPI   C1B 7069  10.091   0.617  10.468  0.0076 -0.0602 -0.0977
  442loPI   C2B 7070  10.105   0.568   9.993  0.0914 -0.0928 -0.4362
  442loPI   C3B 7071  10.016   0.582   9.623 -0.3163 -0.2722 -0.1041
  442loPI   C4B 7072  10.097   0.632   9.203  0.1770  0.0114 -0.0341
  443loPI    C1 7073   2.799  12.154  11.514  0.1769  0.0546 -0.0437
  443loPI    C2 7074   2.834  12.489  11.730  0.0239  0.0774 -0.0532
  443loPI    C3 7075   2.908  12.134  11.899 -0.1408  0.0916  0.0514
  443loPI   PO4 7076   2.848  12.226  11.255  0.2568 -0.0563 -0.2299
  443loPI   GL1 7077   2.955  12.490  10.911  0.0965  0.0633 -0.1127
  443loPI   GL2 7078   2.681  12.602  10.872  0.0341  0.2687  0.1153
  443loPI   C1A 7079   2.992  12.659  10.496  0.0493  0.3516 -0.0668
  443loPI   C2A 7080   2.912  12.715  10.127 -0.0290  0.1707  0.2874
  443loPI   C3A 7081   2.860  12.739   9.689 -0.2727 -0.0220  0.0247
  443loPI   C4A 7082   2.878  12.787   9.291 -0.1540  0.1559 -0.0453
  443loPI   C5A 7083   2.743  12.834   8.838  0.3481  0.2172 -0.2347
  443loPI   C6A 7084   3.074  13.059   8.603 -0.0131 -0.1557 -0.0602
  443loPI   C1B 7085   2.439  12.537  10.434 -0.0700 -0.0821  0.4582
  443loPI   C2B 7086   2.394  12.614  10.011 -0.3182  0.0198  0.0222
  443loPI   C3B 7087   2.355  12.624   9.589 -0.1908  0.0617 -0.2567
  443loPI   C4B 7088   2.371  12.654   9.190  0.0011 -0.0630  0.1438
  444loPI    C1 7089   4.857  14.560  11.662  0.2352  0.3103 -0.1293
  444loPI    C2 7090   4.730  14.760  11.984  0.1244  0.2876 -0.1585
  444loPI    C3 7091   5.079  14.566  11.994  0.1149  0.2762 -0.0477
  444loPI   PO4 7092   4.724  14.693  11.495 -0.0871 -0.0463 -0.3176
  444loPI   GL1 7093   4.799  14.756  11.088  0.1752 -0.0283 -0.0241
  444loPI   GL2 7094   4.897  15.145  10.829  0.2030 -0.0933 -0.1742
  444loPI   C1A 7095   4.737  14.736  10.641  0.1059 -0.0319  0.1123
  444loPI   C2A 7096   4.742  14.802  10.188  0.3472 -0.3261  0.0532
  444loPI   C3A 7097   4.635  14.721   9.747 -0.1172 -0.1497  0.0867
  444loPI   C4A 7098   4.742  14.808   9.345  0.0841  0.2144 -0.1371
  444loPI   C5A 7099   4.668  14.830   8.893  0.3779  0.1165 -0.2128
  444loPI   C6A 7100   4.592  14.748   8.481  0.2572 -0.0365 -0.0694
  444loPI   C1B 7101   4.828  15.240  10.432 -0.0796 -0.1832 -0.2201
  444loPI   C2B 7102   4.846  15.258  10.064  0.3109  0.1964  0.1904
  444loPI   C3B 7103   4.823  15.314   9.580  0.0399 -0.1300  0.1509
  444loPI   C4B 7104   4.801  15.286   9.129 -0.1229 -0.0304 -0.1166
  445loPI    C1 7105   8.911  16.346  11.534 -0.3153  0.1018 -0.0443
  445loPI    C2 7106   9.049  16.661  11.739  0.0118  0.0439 -0.1681
  445loPI    C3 7107   8.709  16.482  11.851 -0.0032  0.2355  0.1018
  445loPI   PO4 7108   8.843  16.468  11.306  0.2031 -0.1057  0.1054
  445loPI   GL1 7109   8.885  16.481  10.843 -0.1006 -0.1885 -0.2062
  445loPI   GL2 7110   9.185  16.675  10.741  0.0962  0.3697 -0.1552
  445loPI   C1A 7111   8.762  16.481  10.413  0.1272 -0.1225  0.0744
  445loPI   C2A 7112   8.734  16.447   9.960  0.1611 -0.1773 -0.2765
  445loPI   C3A 7113   8.762  16.547   9.609 -0.0326  0.1653  0.2443
  445loPI   C4A 7114   8.822  16.534   9.191  0.0847 -0.0069 -0.0798
  445loPI   C5A 7115   8.682  16.703   8.827 -0.0220 -0.0045  0.0160
  445loPI   C6A 7116   8.652  16.665   8.434  0.0455 -0.0104 -0.0769
  445loPI   C1B 7117   9.253  16.612  10.302  0.4567  0.1989  0.2683
  445loPI   C2B 7118   9.206  16.637   9.903  0.2607  0.1289 -0.0802
  445loPI   C3B 7119   9.228  16.756   9.429  0.1830 -0.0233 -0.0434
  445loPI   C4B 7120   9.339  16.532   8.959  0.0414  0.0524 -0.0054
  446loPI    C1 7121  16.351   1.271  11.686 -0.0955 -0.2054  0.3080
  446loPI    C2 7122  16.438   0.888  11.765  0.1729 -0.1974  0.0679
  446loPI    C3 7123  16.724   1.167  11.788  0.1223 -0.1051 -0.3397
  446loPI   PO4 7124  16.184   1.241  11.458  0.0043  0.0196  0.2074
  446loPI   GL1 7125  16.327   1.414  11.133  0.1074  0.2623 -0.0239
  446loPI   GL2 7126  16.055   1.598  11.060 -0.2205 -0.1633  0.1159
  446loPI   C1A 7127  16.548   1.242  10.749  0.4074  0.0447 -0.1151
  446loPI   C2A 7128  16.538   1.327  10.399  0.1763 -0.3040  0.0190
  446loPI   C3A 7129  16.582   1.325  10.015 -0.0868  0.0521  0.4157
  446loPI   C4A 7130  16.672   1.248   9.539 -0.1838 -0.0907  0.0290
  446loPI   C5A 7131  16.579   1.214   9.104 -0.0555 -0.0181  0.1555
  446loPI   C6A 7132  16.353   1.653   8.974  0.1514 -0.2384  0.0977
  446loPI   C1B 7133  16.195   1.615  10.696 -0.1333  0.3771 -0.2603
  446loPI   C2B 7134  16.213   1.644  10.343  0.2839 -0.3717 -0.3269
  446loPI   C3B 7135  16.191   1.617   9.992  0.1910 -0.0659 -0.2492
  446loPI   C4B 7136  16.249   1.603   9.568  0.0801 -0.0170 -0.2049
  447loPI    C1 7137   4.176  14.723  11.505 -0.1994  0.1134 -0.1243
  447loPI    C2 7138   4.043  14.759  11.880 -0.1065 -0.0271 -0.0769
  447loPI    C3 7139   4.334  14.498  11.796  0.1299  0.2639 -0.1820
  447loPI   PO4 7140   3.947  14.671  11.356 -0.2736 -0.0239 -0.3985
  447loPI   GL1 7141   3.748  14.852  10.985 -0.2438 -0.0083 -0.1840
  447loPI   GL2 7142   3.513  14.846  11.106 -0.1128  0.2860  0.0717
  447loPI   C1A 7143   3.896  14.929  10.577  0.0666  0.1374 -0.0058
  447loPI   C2A 7144   3.842  14.848  10.084 -0.0696  0.1833 -0.2451
  447loPI   C3A 7145   3.852  15.038   9.633 -0.1056 -0.0530 -0.2353
  447loPI   C4A 7146   3.828  15.003   9.196  0.2268 -0.2222 -0.1553
  447loPI   C5A 7147   3.809  15.229   8.792  0.2657 -0.1792 -0.0206
  447loPI   C6A 7148   3.803  15.302   8.297 -0.2611  0.2099  0.1455
  447loPI   C1B 7149   3.380  14.608  10.698  0.1183  0.1886 -0.0994
  447loPI   C2B 7150   3.365  14.767  10.231 -0.1850 -0.3303  0.1018
  447loPI   C3B 7151   3.319  14.784   9.795 -0.0070 -0.1183 -0.2156
  447loPI   C4B 7152   3.325  14.846   9.229 -0.0475 -0.1702 -0.0838
  448loPI    C1 7153  16.893  10.122  11.565  0.0972  0.0928 -0.1993
  448loPI    C2 7154  17.050   9.765  11.655 -0.1473  0.0036 -0.1168
  448loPI    C3 7155  17.196  10.097  11.824 -0.1649 -0.0959  0.0972
  448loPI   PO4 7156  16.840  10.077  11.299  0.0708  0.0286  0.1478
  448loPI   GL1 7157  16.595   9.959  10.955 -0.1888  0.2575  0.0514
  448loPI   GL2 7158  16.754   9.789  10.805 -0.0754  0.0388  0.0657
  448loPI   C1A 7159  16.353  10.048  10.545  0.2266 -0.1239 -0.0581
  448loPI   C2A 7160  16.364  10.095  10.110  0.1394 -0.0295  0.2289
  448loPI   C3A 7161  16.352  10.099   9.660 -0.1011  0.1528 -0.0786
  448loPI   C4A 7162  16.369  10.051   9.198  0.1897  0.1461  0.1465
  448loPI   C5A 7163  16.226   9.891   8.777 -0.0339  0.1029  0.1986
  448loPI   C6A 7164  16.285   9.809   8.279 -0.0391 -0.0301  0.1280
  448loPI   C1B 7165  16.805   9.780  10.291 -0.0463  0.2969  0.2449
  448loPI   C2B 7166  16.695   9.759   9.892 -0.3344 -0.2895  0.0493
  448loPI   C3B 7167  16.767   9.767   9.467 -0.0904 -0.1654 -0.0141
  448loPI   C4B 7168  16.782   9.632   9.162  0.1699 -0.0409 -0.0164
  449loPI    C1 7169   9.206   7.585  11.433 -0.2075 -0.0740  0.0502
  449loPI    C2 7170   9.321   7.559  11.815 -0.1613 -0.1416  0.0320
  449loPI    C3 7171   9.211   7.912  11.663 -0.0418 -0.0883  0.0682
  449loPI   PO4 7172   9.418   7.384  11.332 -0.3182 -0.0143  0.3671
  449loPI   GL1 7173   9.321   7.250  10.941 -0.0919  0.1464  0.0626
  449loPI   GL2 7174   9.224   7.013  10.889  0.0931 -0.2622  0.0311
  449loPI   C1A 7175   9.441   7.230  10.503  0.1524 -0.0550 -0.0784
  449loPI   C2A 7176   9.354   7.304  10.082  0.1591  0.0166 -0.0555
  449loPI   C3A 7177   9.367   7.350   9.696  0.0796 -0.1674 -0.0750
  449loPI   C4A 7178   9.383   7.393   9.307 -0.3628  0.1496  0.2143
  449loPI   C5A 7179   9.312   7.483   8.826 -0.1340 -0.1479 -0.0675
  449loPI   C6A 7180   9.012   7.735   8.668  0.1667  0.1532  0.1039
  449loPI   C1B 7181   8.993   7.096  10.566 -0.0311 -0.1547  0.2809
  449loPI   C2B 7182   8.830   7.133  10.082  0.2759  0.0844  0.3455
  449loPI   C3B 7183   8.857   7.219   9.663  0.2080  0.4037 -0.2084
  449loPI   C4B 7184   8.891   7.278   9.248  0.0803 -0.1766  0.0254
  450loPI    C1 7185  16.580  17.154  11.613  0.1214  0.1554 -0.0216
  450loPI    C2 7186  16.357  17.469  11.720 -0.0079  0.0090  0.1456
  450loPI    C3 7187  16.716  17.412  11.888  0.0788  0.1450  0.0094
  450loPI   PO4 7188  16.519  17.094  11.275  0.0577  0.1333  0.2381
  450loPI   GL1 7189  16.455  17.299  10.919  0.0299  0.0162  0.1058
  450loPI   GL2 7190  16.601  17.108  10.790  0.1201 -0.0634 -0.2010
  450loPI   C1A 7191  16.155  17.495  10.589 -0.1974  0.0195 -0.0936
  450loPI   C2A 7192  16.245  17.481  10.153  0.0459  0.1396  0.0945
  450loPI   C3A 7193  16.199  17.411   9.763 -0.0361  0.0265  0.2980
  450loPI   C4A 7194  16.218  17.471   9.251  0.0752  0.1192 -0.2620
  450loPI   C5A 7195  16.337  17.544   8.907  0.3011  0.1581 -0.0620
  450loPI   C6A 7196  16.458  17.934   8.639  0.5060  0.1296  0.1085
  450loPI   C1B 7197  16.581  17.191  10.375  0.0746  0.1248 -0.2519
  450loPI   C2B 7198  16.584  17.156   9.978  0.1898 -0.1149  0.2527
  450loPI   C3B 7199  16.603  17.134   9.589 -0.1773 -0.2716  0.3841
  450loPI   C4B 7200  16.649  17.184   9.097 -0.0779  0.1072 -0.1747
  451loPI    C1 7201  13.796   5.716  11.518  0.1279 -0.2445 -0.1237
  451loPI    C2 7202  13.620   5.357  11.523 -0.1693 -0.1011 -0.0253
  451loPI    C3 7203  13.397   5.689  11.515  0.1025  0.0834 -0.1011
  451loPI   PO4 7204  14.010   5.697  11.321  0.1936 -0.1152  0.0404
  451loPI   GL1 7205  14.154   5.580  10.978 -0.0893 -0.0689 -0.1515
  451loPI   GL2 7206  13.994   5.814  10.805 -0.0362 -0.0582 -0.2240
  451loPI   C1A 7207  14.022   5.504  10.458  0.0572 -0.1389 -0.0262
  451loPI   C2A 7208  13.877   5.573  10.149  0.2176  0.1607  0.1090
  451loPI   C3A 7209  13.935   5.580   9.736  0.0349 -0.0020  0.0917
  451loPI   C4A 7210  13.917   5.654   9.378 -0.0775 -0.0954 -0.0390
  451loPI   C5A 7211  13.937   5.574   8.920  0.2284 -0.0376 -0.0313
  451loPI   C6A 7212  13.792   5.334   8.566  0.3732  0.3264 -0.1067
  451loPI   C1B 7213  14.091   6.022  10.470 -0.0732  0.1017  0.0032
  451loPI   C2B 7214  14.122   6.122  10.039  0.0767 -0.2082  0.1232
  451loPI   C3B 7215  14.059   6.140   9.609 -0.1310  0.2378 -0.0524
  451loPI   C4B 7216  13.913   6.162   9.208 -0.2506  0.1558 -0.0717
  452loPI    C1 7217   2.206   8.150  11.658 -0.1138 -0.2463  0.2045
  452loPI    C2 7218   2.563   8.050  11.809  0.0213  0.0556  0.0932
  452loPI    C3 7219   2.308   8.268  12.027  0.0581  0.1589  0.0340
  452loPI   PO4 7220   2.294   8.260  11.399  0.0604 -0.1423  0.1814
  452loPI   GL1 7221   2.129   8.466  10.984  0.0612  0.0797  0.1059
  452loPI   GL2 7222   1.821   8.331  10.870  0.0379  0.0772  0.4935
  452loPI   C1A 7223   2.268   8.319  10.626 -0.0502 -0.3142  0.0174
  452loPI   C2A 7224   2.382   8.330  10.217  0.1359  0.1694 -0.0902
  452loPI   C3A 7225   2.353   8.398   9.781  0.4074 -0.2048 -0.0303
  452loPI   C4A 7226   2.310   8.483   9.307  0.0198  0.0839  0.0097
  452loPI   C5A 7227   2.365   8.452   8.811 -0.2318 -0.1480 -0.1811
  452loPI   C6A 7228   2.707   8.481   8.516  0.1464 -0.1067  0.3577
  452loPI   C1B 7229   1.837   8.317  10.395  0.0073 -0.0036  0.0699
  452loPI   C2B 7230   1.846   8.311   9.898  0.3793 -0.0573 -0.2543
  452loPI   C3B 7231   1.847   8.250   9.484  0.1233 -0.0725  0.1478
  452loPI   C4B 7232   1.884   8.272   8.985 -0.1254  0.3439  0.0413
  453loPI    C1 7233   4.888   3.195  11.400  0.0827  0.0822 -0.1304
  453loPI    C2 7234   4.762   3.114  11.771  0.3731 -0.0656 -0.0615
  453loPI    C3 7235   4.868   3.487  11.673  0.0668  0.0227 -0.0678
  453loPI   PO4 7236   4.743   3.172  11.119  0.0759 -0.0418  0.1194
  453loPI   GL1 7237   4.863   2.940  10.748  0.1105 -0.1029 -0.0105
  453loPI   GL2 7238   5.099   2.727  10.700  0.0555 -0.0598  0.1579
  453loPI   C1A 7239   4.667   3.096  10.335 -0.1009 -0.1011 -0.0505
  453loPI   C2A 7240   4.815   3.105   9.822 -0.2537  0.0484  0.2467
  453loPI   C3A 7241   4.742   3.112   9.411 -0.0861 -0.1429 -0.3628
  453loPI   C4A 7242   4.619   3.105   8.971 -0.1494 -0.3565 -0.0353
  453loPI   C5A 7243   4.269   3.033   8.799 -0.1660 -0.0160 -0.3642
  453loPI   C6A 7244   3.859   2.922   8.619 -0.1605  0.2330 -0.1239
  453loPI   C1B 7245   5.150   2.847  10.336 -0.0492  0.2224  0.2033
  453loPI   C2B 7246   5.183   2.787   9.837  0.3279  0.3766 -0.1960
  453loPI   C3B 7247   5.118   2.793   9.397 -0.0732 -0.2190 -0.0533
  453loPI   C4B 7248   5.061   2.929   8.978 -0.1910  0.0868 -0.0068
  454loPI    C1 7249   2.149   1.042  11.560  0.0661 -0.0325  0.1564
  454loPI    C2 7250   2.242   0.756  11.823 -0.0681  0.0482  0.2933
  454loPI    C3 7251   2.418   1.114  11.846 -0.0576  0.0457  0.2542
  454loPI   PO4 7252   2.097   0.938  11.294  0.1127  0.1945 -0.0608
  454loPI   GL1 7253   1.786   1.002  10.882 -0.1106  0.1698  0.0475
  454loPI   GL2 7254   1.944   0.820  10.698  0.1210  0.1048  0.0657
  454loPI   C1A 7255   1.477   1.138  10.549  0.0784 -0.1947  0.4310
  454loPI   C2A 7256   1.478   1.167  10.126 -0.3032  0.3323 -0.2427
  454loPI   C3A 7257   1.566   1.188   9.665 -0.1096 -0.2346  0.0832
  454loPI   C4A 7258   1.650   1.220   9.148 -0.2792 -0.3323  0.1113
  454loPI   C5A 7259   1.871   1.257   8.792  0.3489  0.2984  0.1329
  454loPI   C6A 7260   1.990   1.131   8.347 -0.3060 -0.0311  0.0372
  454loPI   C1B 7261   1.786   0.799  10.322  0.2772 -0.4931  0.2608
  454loPI   C2B 7262   1.906   0.844   9.939  0.1033 -0.0342 -0.3593
  454loPI   C3B 7263   1.945   0.895   9.491 -0.1913 -0.2938 -0.3441
  454loPI   C4B 7264   2.076   0.925   9.144 -0.1784 -0.4710  0.1269
  455loPI    C1 7265   0.166   7.264  11.196 -0.0873  0.0458  0.1261
  455loPI    C2 7266  -0.127   7.001  11.267 -0.0614 -0.0649 -0.1627
  455loPI    C3 7267   0.039   7.202  11.570 -0.1887 -0.2654  0.0435
  455loPI   PO4 7268   0.282   7.157  10.991  0.1947 -0.0900 -0.1304
  455loPI   GL1 7269   0.452   7.226  10.704 -0.0850 -0.1285 -0.0485
  455loPI   GL2 7270   0.770   7.503  10.699  0.0495 -0.1423  0.0106
  455loPI   C1A 7271   0.233   7.254  10.314 -0.1405  0.0016  0.0761
  455loPI   C2A 7272   0.335   7.316   9.878 -0.0967 -0.2462 -0.0342
  455loPI   C3A 7273   0.350   7.334   9.470 -0.1956  0.2088 -0.1730
  455loPI   C4A 7274   0.352   7.353   9.014 -0.1917 -0.0186 -0.1060
  455loPI   C5A 7275   0.077   7.157   8.599  0.1755 -0.0518  0.1729
  455loPI   C6A 7276  -0.361   7.135   8.435 -0.1628  0.1642 -0.2628
  455loPI   C1B 7277   0.724   7.408  10.326 -0.0368  0.1959  0.0054
  455loPI   C2B 7278   0.858   7.422   9.856  0.0634  0.0660 -0.0584
  455loPI   C3B 7279   0.823   7.470   9.441 -0.2132  0.1887  0.3013
  455loPI   C4B 7280   0.834   7.476   8.964 -0.0499 -0.2242 -0.1940
  456loPI    C1 7281  14.849   1.938  11.723 -0.0692 -0.0416  0.0400
  456loPI    C2 7282  14.603   1.949  12.039  0.0909  0.3056  0.1585
  456loPI    C3 7283  14.989   2.044  12.083  0.1782  0.0797 -0.0898
  456loPI   PO4 7284  14.759   1.935  11.452  0.0988  0.2448  0.2806
  456loPI   GL1 7285  14.906   2.111  11.128 -0.1166 -0.2720 -0.0177
  456loPI   GL2 7286  15.176   1.881  10.974 -0.2581 -0.0463  0.0575
  456loPI   C1A 7287  14.922   2.179  10.668 -0.6445  0.1529 -0.1447
  456loPI   C2A 7288  14.952   2.157  10.298  0.3226  0.2214  0.2925
  456loPI   C3A 7289  15.056   2.165   9.871 -0.2493 -0.0495  0.1890
  456loPI   C4A 7290  15.068   2.267   9.425 -0.3080 -0.0805  0.0822
  456loPI   C5A 7291  14.993   2.207   8.989 -0.0247 -0.1734  0.0583
  456loPI   C6A 7292  14.995   2.228   8.469 -0.0563  0.0454  0.0524
  456loPI   C1B 7293  15.310   1.795  10.610  0.4096  0.0885 -0.1049
  456loPI   C2B 7294  15.384   1.765  10.166 -0.2249 -0.0770 -0.1814
  456loPI   C3B 7295  15.391   1.764   9.705 -0.0317  0.0596  0.2291
  456loPI   C4B 7296  15.384   1.886   9.222 -0.0802  0.0549 -0.0141
  457loPI    C1 7297  13.226  10.474  11.488 -0.1216 -0.0756  0.0316
  457loPI    C2 7298  13.490  10.417  11.783  0.0350  0.1517 -0.0611
  457loPI    C3 7299  13.118  10.538  11.868 -0.0352 -0.1452  0.0681
  457loPI   PO4 7300  13.442  10.523  11.262  0.1307 -0.0920  0.0274
  457loPI   GL1 7301  13.560  10.264  10.963 -0.1859  0.1240  0.3471
  457loPI   GL2 7302  13.619   9.920  10.992 -0.2103  0.2296  0.1340
  457loPI   C1A 7303  13.363  10.353  10.506 -0.0025 -0.3501  0.0626
  457loPI   C2A 7304  13.298  10.432  10.111  0.0406 -0.2584 -0.1914
  457loPI   C3A 7305  13.361  10.526   9.653  0.1713 -0.1152  0.3815
  457loPI   C4A 7306  13.346  10.529   9.217  0.0284  0.0209 -0.0849
  457loPI   C5A 7307  13.444  10.482   8.796 -0.1350  0.0515  0.2332
  457loPI   C6A 7308  13.552  10.254   8.477 -0.2596 -0.0918 -0.0149
  457loPI   C1B 7309  13.666   9.989  10.572  0.0535 -0.2088 -0.1455
  457loPI   C2B 7310  13.678  10.098  10.150  0.3580 -0.1553 -0.1961
  457loPI   C3B 7311  13.640  10.037   9.855 -0.2159 -0.1845 -0.2295
  457loPI   C4B 7312  13.674  10.174   9.499  0.1709  0.3432  0.4247
  458loPI    C1 7313   5.293   8.996  11.564 -0.0214  0.0184 -0.1678
  458loPI    C2 7314   5.327   9.261  11.862 -0.0193 -0.2842  0.1071
  458loPI    C3 7315   4.974   9.205  11.683  0.0274  0.0560 -0.1020
  458loPI   PO4 7316   5.409   9.025  11.365 -0.2171 -0.1235 -0.0205
  458loPI   GL1 7317   5.321   9.010  10.945  0.0254 -0.0256  0.0130
  458loPI   GL2 7318   5.396   9.317  10.899  0.1653  0.0045  0.1019
  458loPI   C1A 7319   5.252   8.820  10.585  0.1291  0.2172  0.1556
  458loPI   C2A 7320   5.228   8.805  10.083 -0.2965  0.1158  0.2408
  458loPI   C3A 7321   5.201   8.817   9.709 -0.3249 -0.0353  0.0602
  458loPI   C4A 7322   5.254   8.913   9.248  0.1922 -0.3095  0.2426
  458loPI   C5A 7323   5.229   8.914   8.697  0.2215 -0.0328  0.0774
  458loPI   C6A 7324   5.325   8.954   8.199 -0.2370  0.0059  0.0994
  458loPI   C1B 7325   5.381   9.308  10.473  0.0425  0.0998 -0.0692
  458loPI   C2B 7326   5.339   9.276  10.068 -0.0441  0.0525  0.2172
  458loPI   C3B 7327   5.426   9.412   9.640  0.0193  0.1940 -0.2669
  458loPI   C4B 7328   5.288   9.377   9.147 -0.1689  0.3246  0.1596
  459loPI    C1 7329   2.552   4.888  11.513 -0.1895  0.0816  0.1911
  459loPI    C2 7330   2.636   4.511  11.620 -0.1738  0.0552  0.0866
  459loPI    C3 7331   2.384   4.730  11.841 -0.0662  0.0338  0.2318
  459loPI   PO4 7332   2.464   4.930  11.259 -0.2254 -0.2411 -0.0477
  459loPI   GL1 7333   2.413   5.016  10.872 -0.2405 -0.1105 -0.0680
  459loPI   GL2 7334   2.463   4.740  10.747  0.1340 -0.1206  0.0417
  459loPI   C1A 7335   2.531   5.181  10.449  0.1805 -0.1334  0.0965
  459loPI   C2A 7336   2.453   5.153   9.958  0.2526 -0.0238  0.3418
  459loPI   C3A 7337   2.559   5.231   9.553  0.0455 -0.1116  0.0692
  459loPI   C4A 7338   2.529   5.217   9.153 -0.0921  0.1014 -0.0915
  459loPI   C5A 7339   2.484   5.123   8.679  0.2121  0.2456  0.0490
  459loPI   C6A 7340   2.596   5.050   8.313  0.1941 -0.1262 -0.4951
  459loPI   C1B 7341   2.346   4.705  10.369  0.1464  0.0653 -0.0447
  459loPI   C2B 7342   2.286   4.696   9.920 -0.0202 -0.0131 -0.2216
  459loPI   C3B 7343   2.391   4.702   9.516  0.0087 -0.2145  0.2145
  459loPI   C4B 7344   2.382   4.749   9.017  0.2491  0.1859 -0.2114
  460loPI    C1 7345   2.865  17.100  11.571  0.0624  0.0932  0.0227
  460loPI    C2 7346   2.544  16.961  11.765  0.0757  0.1260  0.0682
  460loPI    C3 7347   2.904  16.951  11.941  0.0970  0.1040  0.0235
  460loPI   PO4 7348   2.832  17.085  11.289  0.0613 -0.1408 -0.0876
  460loPI   GL1 7349   2.995  16.887  10.942 -0.3681 -0.4115 -0.2492
  460loPI   GL2 7350   2.728  16.724  10.898 -0.0206 -0.2341  0.1776
  460loPI   C1A 7351   2.913  16.948  10.460 -0.1196  0.3079  0.3500
  460loPI   C2A 7352   2.859  16.942   9.997  0.0910  0.0144 -0.2498
  460loPI   C3A 7353   2.871  16.982   9.547 -0.0455 -0.1303 -0.2004
  460loPI   C4A 7354   2.873  16.978   9.059  0.0405  0.0959  0.1084
  460loPI   C5A 7355   2.995  17.090   8.569  0.2573 -0.4049 -0.2152
  460loPI   C6A 7356   3.033  16.908   8.170 -0.3470  0.3039  0.2029
  460loPI   C1B 7357   2.744  16.449  10.586  0.2014  0.1213 -0.1583
  460loPI   C2B 7358   2.680  16.510  10.154  0.0279 -0.0894 -0.0232
  460loPI   C3B 7359   2.764  16.467   9.785  0.0015 -0.0275  0.0344
  460loPI   C4B 7360   2.808  16.501   9.312  0.0662 -0.0338  0.1687
  461loPI    C1 7361   4.067  16.250  11.733 -0.0070  0.2018 -0.0080
  461loPI    C2 7362   3.768  16.106  11.957  0.1128 -0.1573 -0.0724
  461loPI    C3 7363   3.963  16.436  12.072 -0.2194  0.0049  0.0373
  461loPI   PO4 7364   3.883  16.115  11.421 -0.2701 -0.0841 -0.0186
  461loPI   GL1 7365   3.682  15.940  11.099  0.1550  0.2064 -0.0131
  461loPI   GL2 7366   3.591  16.217  11.014 -0.0900  0.1257 -0.2247
  461loPI   C1A 7367   3.618  15.718  10.758 -0.0998  0.0562  0.0272
  461loPI   C2A 7368   3.622  15.730  10.299  0.0339 -0.0577  0.2182
  461loPI   C3A 7369   3.500  15.772   9.851 -0.0770  0.0288 -0.3080
  461loPI   C4A 7370   3.532  15.821   9.311 -0.4089 -0.2831 -0.1506
  461loPI   C5A 7371   3.355  15.826   8.895 -0.2283  0.1032  0.1370
  461loPI   C6A 7372   3.396  15.591   8.513  0.0724  0.0379  0.3507
  461loPI   C1B 7373   3.639  16.193  10.552  0.2152 -0.3028  0.1320
  461loPI   C2B 7374   3.595  16.251  10.114  0.1461 -0.3913 -0.1577
  461loPI   C3B 7375   3.598  16.214   9.679  0.0457  0.1978 -0.1724
  461loPI   C4B 7376   3.651  16.280   9.222 -0.0709 -0.2439  0.0288
  462loPI    C1 7377   7.611   7.009  11.211 -0.0507  0.2152  0.0536
  462loPI    C2 7378   7.380   7.156  11.503  0.1822  0.0880  0.3063
  462loPI    C3 7379   7.595   6.824  11.565  0.2043  0.0369 -0.0250
  462loPI   PO4 7380   7.536   6.975  10.968  0.1653 -0.1705  0.3078
  462loPI   GL1 7381   7.691   7.225  10.613  0.0484  0.2008  0.0119
  462loPI   GL2 7382   8.011   7.273  10.535  0.1162 -0.0902  0.1810
  462loPI   C1A 7383   7.505   7.168  10.145 -0.0288 -0.3870 -0.0903
  462loPI   C2A 7384   7.529   7.212   9.731  0.0218 -0.0547 -0.0490
  462loPI   C3A 7385   7.550   7.324   9.302 -0.1987  0.1344  0.2342
  462loPI   C4A 7386   7.534   7.205   8.873 -0.1515 -0.1629  0.1577
  462loPI   C5A 7387   7.217   7.076   8.554 -0.1271  0.0637 -0.1205
  462loPI   C6A 7388   7.169   6.629   8.301 -0.1117  0.1764 -0.0276
  462loPI   C1B 7389   7.985   7.338  10.052 -0.0478 -0.1692 -0.2059
  462loPI   C2B 7390   8.011   7.397   9.649 -0.1419  0.1882 -0.1441
  462loPI   C3B 7391   8.024   7.410   9.194 -0.0186 -0.2956  0.0477
  462loPI   C4B 7392   8.114   7.414   8.754 -0.1286 -0.2331 -0.1497
  463loPI    C1 7393   0.260   1.332  11.636 -0.1133  0.2047  0.4306
  463loPI    C2 7394   0.513   1.136  11.876  0.0304 -0.0679  0.0666
  463loPI    C3 7395   0.208   0.941  11.706 -0.0128  0.0991 -0.0492
  463loPI   PO4 7396   0.354   1.369  11.462 -0.0240  0.2791 -0.1400
  463loPI   GL1 7397   0.238   1.334  10.997 -0.1092  0.2275 -0.0657
  463loPI   GL2 7398   0.336   1.605  10.985  0.2965 -0.2046  0.0656
  463loPI   C1A 7399   0.059   1.162  10.666  0.0735  0.2154 -0.0057
  463loPI   C2A 7400   0.150   1.233  10.295  0.1632  0.1637  0.0183
  463loPI   C3A 7401   0.151   1.185   9.859 -0.0549  0.0282  0.1498
  463loPI   C4A 7402   0.180   1.251   9.453 -0.1171  0.0424  0.2086
  463loPI   C5A 7403   0.241   1.297   9.032 -0.1939  0.0490 -0.0183
  463loPI   C6A 7404   0.374   1.351   8.594  0.2122 -0.1216 -0.1719
  463loPI   C1B 7405   0.237   1.609  10.595 -0.0523  0.0453  0.2504
  463loPI   C2B 7406   0.316   1.715  10.112 -0.1733 -0.2135 -0.2085
  463loPI   C3B 7407   0.331   1.749   9.723 -0.0353 -0.0451 -0.1467
  463loPI   C4B 7408   0.341   1.726   9.320  0.1982  0.0731 -0.0634
  464loPI    C1 7409  15.502  10.648  11.699  0.1335  0.0128 -0.0962
  464loPI    C2 7410  15.614  10.275  11.792 -0.1443 -0.0055  0.1811
  464loPI    C3 7411  15.738  10.582  12.016 -0.1894  0.0325  0.1542
  464loPI   PO4 7412  15.571  10.663  11.474  0.1758 -0.1456 -0.1338
  464loPI   GL1 7413  15.485  10.604  10.992 -0.2170  0.1124  0.3177
  464loPI   GL2 7414  15.384  10.230  10.870 -0.1443 -0.0946  0.0154
  464loPI   C1A 7415  15.570  10.725  10.500  0.0828  0.1349  0.0507
  464loPI   C2A 7416  15.676  10.689  10.080 -0.0640 -0.2474  0.0034
  464loPI   C3A 7417  15.636  10.739   9.652  0.1759  0.1208 -0.1315
  464loPI   C4A 7418  15.608  10.733   9.274 -0.3827 -0.1429  0.1513
  464loPI   C5A 7419  15.574  10.834   8.930 -0.2614 -0.3236 -0.1560
  464loPI   C6A 7420  15.855  10.810   8.570 -0.1210 -0.1508  0.0801
  464loPI   C1B 7421  15.502  10.194  10.450 -0.0672 -0.0162  0.1287
  464loPI   C2B 7422  15.527  10.215  10.019 -0.3362  0.1480  0.0962
  464loPI   C3B 7423  15.490  10.269   9.601 -0.0656 -0.2181  0.3242
  464loPI   C4B 7424  15.453  10.227   9.199 -0.2594  0.3243  0.0081
  465loPI    C1 7425   3.210   2.142  11.695 -0.0652 -0.1749 -0.0097
  465loPI    C2 7426   3.233   1.954  12.048 -0.1907 -0.2467 -0.0389
  465loPI    C3 7427   2.956   1.844  11.781 -0.1446 -0.1426 -0.1303
  465loPI   PO4 7428   3.457   2.101  11.555 -0.2377 -0.0958  0.1737
  465loPI   GL1 7429   3.498   1.955  11.129  0.3783 -0.1889  0.2529
  465loPI   GL2 7430   3.721   2.059  10.944  0.1058  0.0485  0.3865
  465loPI   C1A 7431   3.164   1.807  10.786  0.2814 -0.1336 -0.0666
  465loPI   C2A 7432   3.009   1.603  10.462 -0.1032 -0.0927  0.2666
  465loPI   C3A 7433   3.122   1.620  10.031  0.0478  0.0197  0.0562
  465loPI   C4A 7434   3.059   1.758   9.551 -0.0462  0.0330 -0.3375
  465loPI   C5A 7435   3.023   1.745   9.128 -0.2268 -0.2409  0.0066
  465loPI   C6A 7436   3.223   1.710   8.781 -0.1371 -0.0110 -0.1160
  465loPI   C1B 7437   3.700   2.201  10.494  0.0869  0.3260  0.2298
  465loPI   C2B 7438   3.751   2.296  10.013  0.0739 -0.2018 -0.4422
  465loPI   C3B 7439   3.712   2.339   9.571 -0.0219  0.0258  0.0127
  465loPI   C4B 7440   3.614   2.401   9.171  0.0723 -0.0046  0.3388
  466loPI    C1 7441  10.542   9.102  11.438  0.3575  0.0038  0.0752
  466loPI    C2 7442  10.591   9.292  11.786  0.0200 -0.1766  0.2259
  466loPI    C3 7443  10.646   8.897  11.766  0.1293 -0.1534  0.0512
  466loPI   PO4 7444  10.512   9.347  11.288  0.2331 -0.0751  0.1130
  466loPI   GL1 7445  10.390   9.476  10.909 -0.0239  0.2067 -0.0201
  466loPI   GL2 7446  10.591   9.689  10.928  0.2002 -0.1535 -0.0776
  466loPI   C1A 7447  10.432   9.463  10.486 -0.0009 -0.2218  0.0252
  466loPI   C2A 7448  10.369   9.543  10.082  0.1681 -0.0769  0.1406
  466loPI   C3A 7449  10.356   9.619   9.666 -0.0552 -0.2032 -0.1765
  466loPI   C4A 7450  10.328   9.676   9.285 -0.1256  0.0031 -0.0715
  466loPI   C5A 7451  10.459   9.662   8.856  0.0036 -0.0279 -0.1217
  466loPI   C6A 7452  10.206   9.575   8.423  0.0340  0.0348  0.0147
  466loPI   C1B 7453  10.915   9.642  10.656  0.0449  0.0179 -0.1370
  466loPI   C2B 7454  10.860   9.604  10.221  0.0300 -0.2065  0.0644
  466loPI   C3B 7455  10.799   9.731   9.805 -0.2167 -0.3237  0.1380
  466loPI   C4B 7456  10.865   9.708   9.285 -0.1996 -0.2443 -0.5337
  467loPI    C1 7457   4.248   5.802  11.520  0.1197  0.1920 -0.0543
  467loPI    C2 7458   3.951   6.021  11.673  0.0699  0.1714 -0.1213
  467loPI    C3 7459   4.323   6.064  11.813  0.0447  0.2348 -0.0732
  467loPI   PO4 7460   4.168   5.873  11.222  0.2497  0.0157  0.0484
  467loPI   GL1 7461   4.406   6.052  10.890  0.3219 -0.0981 -0.3476
  467loPI   GL2 7462   4.578   6.337  10.847  0.1318  0.1143  0.1618
  467loPI   C1A 7463   4.313   5.807  10.501  0.2228 -0.0051 -0.1093
  467loPI   C2A 7464   4.423   5.787  10.034 -0.2630  0.0540  0.0855
  467loPI   C3A 7465   4.514   5.895   9.576 -0.1559  0.2625 -0.5170
  467loPI   C4A 7466   4.538   5.923   9.137 -0.0578  0.1188 -0.2077
  467loPI   C5A 7467   4.425   5.756   8.811 -0.1797  0.1343  0.0656
  467loPI   C6A 7468   4.411   5.363   8.570 -0.0311  0.1255  0.2182
  467loPI   C1B 7469   4.256   6.526  10.549  0.1445 -0.0859  0.0524
  467loPI   C2B 7470   4.205   6.667  10.125  0.0672 -0.0306  0.1078
  467loPI   C3B 7471   4.286   6.769   9.665 -0.0077 -0.1161  0.0054
  467loPI   C4B 7472   4.232   6.723   9.284  0.0273 -0.0328  0.4280
  468loPI    C1 7473   5.167  14.122  11.476  0.0224  0.2296  0.1820
  468loPI    C2 7474   5.109  14.072  11.868  0.3363  0.0949  0.2147
  468loPI    C3 7475   5.408  14.303  11.739  0.0907  0.3280  0.0527
  468loPI   PO4 7476   4.972  14.205  11.325  0.1946  0.0052  0.1475
  468loPI   GL1 7477   5.125  14.290  10.941 -0.1090 -0.0805  0.1121
  468loPI   GL2 7478   4.779  14.175  10.831 -0.0338  0.0063 -0.3084
  468loPI   C1A 7479   5.129  14.291  10.510 -0.0022  0.3237 -0.1729
  468loPI   C2A 7480   5.083  14.432  10.172 -0.0408 -0.0715  0.1302
  468loPI   C3A 7481   5.038  14.456   9.709 -0.2397  0.1999  0.2038
  468loPI   C4A 7482   5.119  14.493   9.307 -0.1424  0.0711 -0.1889
  468loPI   C5A 7483   5.133  14.504   8.878  0.0174  0.2144  0.2871
  468loPI   C6A 7484   4.882  14.323   8.502  0.1462 -0.2415 -0.1348
  468loPI   C1B 7485   4.642  14.317  10.404 -0.1661 -0.1572 -0.0027
  468loPI   C2B 7486   4.557  14.288   9.921 -0.0657 -0.2934  0.2610
  468loPI   C3B 7487   4.612  14.240   9.520 -0.0168  0.0879  0.0590
  468loPI   C4B 7488   4.677  14.311   9.033  0.0368  0.2672  0.1780
  469loPI    C1 7489   2.421  11.457  11.618  0.1353  0.0513  0.0217
  469loPI    C2 7490   2.552  11.810  11.751  0.0455  0.0501  0.1140
  469loPI    C3 7491   2.180  11.690  11.835  0.0944 -0.0913  0.1308
  469loPI   PO4 7492   2.397  11.467  11.310  0.1248  0.1521  0.0525
  469loPI   GL1 7493   2.593  11.406  10.854  0.0031 -0.0623  0.1497
  469loPI   GL2 7494   2.506  11.693  10.847  0.1874 -0.0127 -0.0730
  469loPI   C1A 7495   2.473  11.199  10.445  0.0742 -0.0415 -0.0063
  469loPI   C2A 7496   2.598  11.174  10.018 -0.1106 -0.0460  0.2209
  469loPI   C3A 7497   2.485  11.258   9.610 -0.0711  0.2337  0.0331
  469loPI   C4A 7498   2.525  11.301   9.198 -0.3222 -0.2191  0.2244
  469loPI   C5A 7499   2.535  11.185   8.806 -0.2820  0.1100 -0.1045
  469loPI   C6A 7500   2.657  11.265   8.376 -0.0571  0.1294 -0.0209
  469loPI   C1B 7501   2.645  11.685  10.419  0.1056 -0.0907 -0.1093
  469loPI   C2B 7502   2.666  11.761   9.969 -0.1207  0.1698 -0.2029
  469loPI   C3B 7503   2.577  11.797   9.577 -0.2949  0.1960 -0.2336
  469loPI   C4B 7504   2.649  11.836   9.142 -0.1124 -0.2941 -0.1265
  470loPI    C1 7505  16.375   0.329  11.571  0.1991 -0.0465 -0.1360
  470loPI    C2 7506  16.692   0.124  11.704  0.1072 -0.0548  0.0753
  470loPI    C3 7507  16.518   0.396  11.939 -0.0017 -0.0022 -0.0650
  470loPI   PO4 7508  16.263   0.144  11.386 -0.0986  0.0058  0.1948
  470loPI   GL1 7509  16.461   0.101  10.916 -0.0747  0.1771  0.0615
  470loPI   GL2 7510  16.246   0.391  10.924  0.0646  0.0889 -0.0156
  470loPI   C1A 7511  16.631  -0.102  10.567 -0.0498 -0.1082  0.2721
  470loPI   C2A 7512  16.697  -0.094  10.151  0.1549 -0.1117  0.1318
  470loPI   C3A 7513  16.679  -0.072   9.779  0.0513 -0.2848 -0.3415
  470loPI   C4A 7514  16.648  -0.124   9.380 -0.3419  0.1384 -0.2366
  470loPI   C5A 7515  16.789  -0.068   9.010  0.1853  0.0987 -0.1845
  470loPI   C6A 7516  16.778  -0.157   8.590  0.1916 -0.1358  0.1825
  470loPI   C1B 7517  16.318   0.265  10.450  0.1604  0.1267  0.0134
  470loPI   C2B 7518  16.333   0.271  10.052  0.1762 -0.1229  0.3679
  470loPI   C3B 7519  16.279   0.169   9.589 -0.1059 -0.0640  0.0658
  470loPI   C4B 7520  16.335   0.285   9.216 -0.0206  0.0662 -0.1582
  471loPI    C1 7521   4.669  11.287  11.143  0.1701 -0.1472 -0.2365
  471loPI    C2 7522   4.367  11.061  11.277  0.1283 -0.0576 -0.1786
  471loPI    C3 7523   4.727  11.037  11.451  0.1456 -0.1386 -0.2249
  471loPI   PO4 7524   4.647  11.327  10.947  0.1165  0.4789 -0.1024
  471loPI   GL1 7525   4.508  11.362  10.554 -0.0190 -0.0149 -0.1380
  471loPI   GL2 7526   4.731  11.121  10.517 -0.0521 -0.0052 -0.3143
  471loPI   C1A 7527   4.441  11.421  10.117  0.1468  0.0425 -0.0663
  471loPI   C2A 7528   4.445  11.450   9.698 -0.1901  0.0395 -0.0264
  471loPI   C3A 7529   4.375  11.319   9.313 -0.1419  0.0615 -0.1256
  471loPI   C4A 7530   4.370  11.393   8.980 -0.2165  0.1229  0.0486
  471loPI   C5A 7531   4.149  11.591   8.564  0.3521  0.2279  0.0756
  471loPI   C6A 7532   4.072  11.978   8.277  0.0728  0.2133  0.0698
  471loPI   C1B 7533   4.792  11.031  10.072  0.1736  0.0643  0.0093
  471loPI   C2B 7534   4.698  11.054   9.612  0.1770  0.0946  0.1351
  471loPI   C3B 7535   4.737  11.012   9.225 -0.1585 -0.0823  0.1805
  471loPI   C4B 7536   4.847  11.028   8.697 -0.0366  0.0063  0.1019
  472loPI    C1 7537   3.909  10.863  11.529 -0.2151 -0.0006  0.1363
  472loPI    C2 7538   4.234  10.780  11.747 -0.1000  0.0442 -0.0164
  472loPI    C3 7539   3.881  10.616  11.842 -0.0152 -0.0743  0.0972
  472loPI   PO4 7540   3.962  10.838  11.220  0.0650  0.0238 -0.0297
  472loPI   GL1 7541   4.088  10.830  10.839  0.1423 -0.0506  0.1506
  472loPI   GL2 7542   4.331  10.928  10.787  0.0423  0.0895 -0.0922
  472loPI   C1A 7543   3.836  10.733  10.391 -0.0162 -0.1427 -0.2271
  472loPI   C2A 7544   3.825  10.700   9.980 -0.0025 -0.0510  0.2801
  472loPI   C3A 7545   3.745  10.727   9.498  0.0138 -0.0237  0.0957
  472loPI   C4A 7546   3.759  10.810   9.015  0.0806 -0.1361 -0.2447
  472loPI   C5A 7547   3.514  10.734   8.704 -0.0250 -0.1325  0.1317
  472loPI   C6A 7548   3.156  10.518   8.630  0.0471 -0.6002 -0.0372
  472loPI   C1B 7549   4.307  10.933  10.334  0.0676  0.0275 -0.0069
  472loPI   C2B 7550   4.307  10.921   9.877 -0.0668 -0.0741 -0.0620
  472loPI   C3B 7551   4.231  10.904   9.454 -0.1665  0.1303 -0.1544
  472loPI   C4B 7552   4.284  10.939   9.029  0.0872  0.3879 -0.0582
  473loPI    C1 7553  11.207   4.004  11.292 -0.1963  0.2555 -0.1219
  473loPI    C2 7554  11.074   3.680  11.485  0.0514  0.3283  0.1783
  473loPI    C3 7555  10.820   3.902  11.269 -0.1329 -0.0269  0.0203
  473loPI   PO4 7556  11.397   3.988  11.128  0.7277 -0.0910  0.1954
  473loPI   GL1 7557  11.588   4.086  10.740  0.1708 -0.0256 -0.1498
  473loPI   GL2 7558  11.635   3.915  10.689  0.0993 -0.1389  0.2838
  473loPI   C1A 7559  11.608   4.132  10.254 -0.2770  0.0650  0.0429
  473loPI   C2A 7560  11.718   3.900   9.999 -0.1964 -0.1521  0.0518
  473loPI   C3A 7561  11.748   3.892   9.568  0.0586 -0.1917 -0.1101
  473loPI   C4A 7562  11.592   4.024   9.188  0.0633 -0.1559  0.0025
  473loPI   C5A 7563  11.504   4.103   8.832  0.2020 -0.1927 -0.0478
  473loPI   C6A 7564  11.657   4.494   8.669  0.0500  0.2201  0.0355
  473loPI   C1B 7565  11.585   3.534  10.356  0.1190 -0.2179  0.2953
  473loPI   C2B 7566  11.726   3.434   9.849  0.1498 -0.0191 -0.0600
  473loPI   C3B 7567  11.648   3.429   9.351  0.0049 -0.0063  0.1763
  473loPI   C4B 7568  11.644   3.471   8.923  0.0604 -0.1826 -0.0516
  474loPI    C1 7569  14.591   5.073  11.778 -0.4620  0.2479 -0.3773
  474loPI    C2 7570  14.589   5.467  11.849  0.0692  0.1834  0.0622
  474loPI    C3 7571  14.925   5.288  11.729 -0.1677 -0.1412 -0.1321
  474loPI   PO4 7572  14.414   4.974  11.559 -0.0582 -0.1254  0.0005
  474loPI   GL1 7573  14.524   4.928  11.092  0.1138 -0.1628 -0.2187
  474loPI   GL2 7574  14.584   4.719  10.821  0.0483 -0.0885  0.2098
  474loPI   C1A 7575  14.702   5.272  10.895 -0.1203 -0.0431 -0.1059
  474loPI   C2A 7576  14.791   5.284  10.518  0.2933 -0.1654  0.0536
  474loPI   C3A 7577  14.847   5.325  10.084  0.1210  0.2169  0.0249
  474loPI   C4A 7578  14.777   5.480   9.679 -0.2811  0.1080  0.3398
  474loPI   C5A 7579  14.787   5.366   9.307 -0.0588  0.0212 -0.1816
  474loPI   C6A 7580  14.645   5.534   8.937  0.0371 -0.0502 -0.2284
  474loPI   C1B 7581  14.696   4.801  10.426 -0.4155  0.0264 -0.0116
  474loPI   C2B 7582  14.679   4.842   9.949  0.1486  0.0125 -0.3207
  474loPI   C3B 7583  14.710   4.768   9.476  0.1794 -0.4605  0.2130
  474loPI   C4B 7584  14.636   4.900   9.048  0.2339 -0.1763  0.1332
  475loPI    C1 7585  11.775   4.316  11.184  0.1395 -0.2368  0.0112
  475loPI    C2 7586  11.883   4.545  11.494 -0.1827 -0.0410 -0.0160
  475loPI    C3 7587  11.883   4.146  11.530  0.0516 -0.0291  0.1427
  475loPI   PO4 7588  11.887   4.452  10.988 -0.0322 -0.2233 -0.0853
  475loPI   GL1 7589  11.694   4.651  10.568  0.2573 -0.0013 -0.1466
  475loPI   GL2 7590  11.962   4.522  10.469  0.2060 -0.2026  0.0457
  475loPI   C1A 7591  11.332   4.551  10.231  0.0151  0.1261  0.1039
  475loPI   C2A 7592  11.044   4.635   9.886 -0.1673 -0.2472  0.0599
  475loPI   C3A 7593  10.717   4.823   9.583  0.1568  0.0555 -0.0168
  475loPI   C4A 7594  10.589   5.232   9.351 -0.2744 -0.0252 -0.2814
  475loPI   C5A 7595  10.290   5.616   9.153 -0.2332 -0.1478  0.1877
  475loPI   C6A 7596   9.943   5.750   8.886  0.3090  0.3378  0.0162
  475loPI   C1B 7597  12.314   4.590  10.138 -0.2001 -0.4164 -0.0628
  475loPI   C2B 7598  12.353   4.492   9.787 -0.1076  0.1970 -0.1698
  475loPI   C3B 7599  12.376   4.696   9.429  0.1336  0.0185  0.0456
  475loPI   C4B 7600  12.297   4.667   8.999  0.1879 -0.0113 -0.1093
  476loPI    C1 7601  10.365   2.575  11.209 -0.0045 -0.0115 -0.0472
  476loPI    C2 7602  10.278   2.252  11.428  0.1964 -0.0387 -0.0059
  476loPI    C3 7603  10.071   2.590  11.479  0.0024 -0.1524 -0.0312
  476loPI   PO4 7604  10.373   2.513  10.969  0.1210 -0.0953 -0.1690
  476loPI   GL1 7605  10.285   2.412  10.556  0.3606 -0.0744  0.2036
  476loPI   GL2 7606  10.019   2.602  10.566 -0.0323  0.1152  0.0222
  476loPI   C1A 7607  10.464   2.071  10.266  0.1354  0.0081  0.1457
  476loPI   C2A 7608  10.426   2.114   9.924  0.0606  0.4011  0.1462
  476loPI   C3A 7609  10.370   2.077   9.349 -0.1303  0.0487 -0.1271
  476loPI   C4A 7610  10.443   2.070   8.934 -0.1767 -0.0117 -0.1912
  476loPI   C5A 7611  10.637   2.217   8.517 -0.0851 -0.1073 -0.2912
  476loPI   C6A 7612  10.892   2.378   8.240  0.1073 -0.0322  0.2260
  476loPI   C1B 7613  10.076   2.464  10.157 -0.0012  0.0145  0.3392
  476loPI   C2B 7614  10.037   2.384   9.782 -0.3932 -0.1128  0.0024
  476loPI   C3B 7615   9.954   2.415   9.436 -0.0905  0.0155  0.1697
  476loPI   C4B 7616  10.044   2.458   9.065 -0.0485 -0.1634 -0.1818
  477loPI    C1 7617   3.920   2.765  11.496  0.3035  0.0921  0.0388
  477loPI    C2 7618   3.983   3.154  11.559  0.1336  0.0956  0.1975
  477loPI    C3 7619   3.894   2.914  11.866 -0.0740 -0.0094  0.0573
  477loPI   PO4 7620   4.005   2.757  11.233 -0.0379 -0.3475 -0.3907
  477loPI   GL1 7621   3.773   2.808  10.796 -0.2979 -0.1593  0.1972
  477loPI   GL2 7622   3.918   2.589  10.675  0.2636 -0.0169 -0.1698
  477loPI   C1A 7623   3.861   3.196  10.593 -0.0611 -0.3421 -0.1192
  477loPI   C2A 7624   3.886   3.286  10.201 -0.1623  0.1480 -0.1953
  477loPI   C3A 7625   3.876   3.291   9.768 -0.1389 -0.3764 -0.0555
  477loPI   C4A 7626   3.886   3.416   9.274 -0.1580 -0.3228  0.1463
  477loPI   C5A 7627   3.944   3.378   8.814  0.0637 -0.0787  0.1022
  477loPI   C6A 7628   3.851   3.403   8.318 -0.0874 -0.0186 -0.0228
  477loPI   C1B 7629   3.735   2.780  10.258 -0.2101  0.2082 -0.0075
  477loPI   C2B 7630   3.777   2.775   9.846  0.1923  0.3584  0.0809
  477loPI   C3B 7631   3.747   2.902   9.444  0.0614 -0.1783  0.0791
  477loPI   C4B 7632   3.841   2.955   9.085 -0.1203  0.1942 -0.0956
  478loPI    C1 7633  16.549  16.681  11.902 -0.0083  0.0095  0.1463
  478loPI    C2 7634  16.459  17.027  12.080  0.1957  0.1379  0.0044
  478loPI    C3 7635  16.840  16.937  12.001  0.1391 -0.0970 -0.0062
  478loPI   PO4 7636  16.404  16.691  11.693  0.0922  0.0828  0.0928
  478loPI   GL1 7637  16.355  16.541  11.240 -0.1194  0.2494 -0.0727
  478loPI   GL2 7638  16.077  16.857  11.099 -0.1912 -0.1467  0.1508
  478loPI   C1A 7639  16.486  16.626  10.827 -0.1491 -0.0867 -0.0264
  478loPI   C2A 7640  16.458  16.639  10.382  0.0207  0.1311 -0.2522
  478loPI   C3A 7641  16.483  16.647   9.935  0.2690  0.0831  0.0448
  478loPI   C4A 7642  16.514  16.677   9.450  0.2891  0.1280  0.1451
  478loPI   C5A 7643  16.547  16.662   9.040 -0.0543 -0.2796  0.1333
  478loPI   C6A 7644  16.453  16.581   8.578  0.0486 -0.0418 -0.0699
  478loPI   C1B 7645  16.074  16.988  10.638 -0.0583  0.1068  0.0047
  478loPI   C2B 7646  16.089  16.986  10.299  0.1389  0.0825 -0.2094
  478loPI   C3B 7647  16.098  16.953   9.853 -0.2007 -0.0309 -0.1068
  478loPI   C4B 7648  16.134  17.005   9.455 -0.0286  0.0031  0.1062
  479loPI    C1 7649   1.572   6.535  11.327 -0.1562 -0.0381 -0.0568
  479loPI    C2 7650   1.700   6.210  11.521  0.2458  0.0956 -0.0896
  479loPI    C3 7651   1.728   6.570  11.694 -0.2465  0.1120 -0.0316
  479loPI   PO4 7652   1.651   6.531  11.119  0.0831  0.4019  0.1412
  479loPI   GL1 7653   1.510   6.533  10.813  0.0970 -0.0293  0.2570
  479loPI   GL2 7654   1.480   6.342  10.666 -0.0193  0.1218  0.0781
  479loPI   C1A 7655   1.535   6.783  10.400  0.1920 -0.1912 -0.2233
  479loPI   C2A 7656   1.502   6.751   9.983  0.0182  0.0227 -0.1445
  479loPI   C3A 7657   1.508   6.752   9.572 -0.0735 -0.0485 -0.1683
  479loPI   C4A 7658   1.642   6.727   9.040  0.2231  0.2724  0.0742
  479loPI   C5A 7659   1.551   6.933   8.634 -0.0563 -0.1503 -0.0850
  479loPI   C6A 7660   1.353   6.772   8.338  0.1189 -0.0070  0.1237
  479loPI   C1B 7661   1.446   6.261  10.280 -0.0781 -0.2537  0.0494
  479loPI   C2B 7662   1.352   6.204   9.940 -0.0239 -0.1354  0.1916
  479loPI   C3B 7663   1.390   6.270   9.521 -0.0396 -0.1488  0.0379
  479loPI   C4B 7664   1.345   6.280   9.117 -0.1773  0.0596  0.1649
  480loPI    C1 7665   7.142  11.611  11.487  0.2487 -0.0031 -0.1626
  480loPI    C2 7666   6.922  11.282  11.547  0.0010  0.1636 -0.1411
  480loPI    C3 7667   7.107  11.458  11.855  0.3291 -0.0870 -0.1895
  480loPI   PO4 7668   7.175  11.602  11.281  0.2488 -0.0109 -0.1442
  480loPI   GL1 7669   7.100  11.678  10.846  0.2022  0.1981  0.0691
  480loPI   GL2 7670   7.285  11.650  10.605  0.1546  0.4159 -0.1449
  480loPI   C1A 7671   6.908  12.060  10.498 -0.3561  0.1078 -0.0093
  480loPI   C2A 7672   7.004  12.213  10.063 -0.0266  0.1566  0.0170
  480loPI   C3A 7673   6.897  12.183   9.685 -0.2754 -0.3897 -0.3069
  480loPI   C4A 7674   6.867  12.234   9.257 -0.0534  0.0119 -0.1385
  480loPI   C5A 7675   6.925  12.351   8.796  0.0478 -0.1027 -0.0443
  480loPI   C6A 7676   6.966  12.785   8.740  0.2165  0.0926 -0.2201
  480loPI   C1B 7677   7.287  11.808  10.208 -0.1997  0.0213 -0.0448
  480loPI   C2B 7678   7.237  11.786   9.731 -0.0382  0.0379  0.0213
  480loPI   C3B 7679   7.209  11.817   9.290 -0.0726  0.0167 -0.0303
  480loPI   C4B 7680   7.180  11.890   8.845  0.0706 -0.0105  0.2898
  481loPI    C1 7681  15.439  11.872  11.504 -0.0258 -0.3424 -0.2749
  481loPI    C2 7682  15.413  11.563  11.758  0.0992 -0.1355 -0.0052
  481loPI    C3 7683  15.769  11.726  11.677 -0.0118  0.2262  0.2094
  481loPI   PO4 7684  15.329  11.799  11.255 -0.3340  0.1386 -0.1718
  481loPI   GL1 7685  15.076  11.856  10.904 -0.1590 -0.2285 -0.0122
  481loPI   GL2 7686  15.323  11.480  10.885  0.2291  0.2694  0.4133
  481loPI   C1A 7687  14.943  11.906  10.459 -0.1477 -0.0382 -0.1718
  481loPI   C2A 7688  15.004  12.013  10.022  0.0924  0.1031  0.1238
  481loPI   C3A 7689  14.960  11.935   9.591  0.0642 -0.1150 -0.2991
  481loPI   C4A 7690  14.956  11.998   9.185  0.1322  0.1379  0.0768
  481loPI   C5A 7691  15.014  11.833   8.758 -0.0441  0.4281 -0.2143
  481loPI   C6A 7692  15.207  11.820   8.353 -0.1481 -0.2231  0.3228
  481loPI   C1B 7693  15.348  11.555  10.385  0.1187  0.2334  0.2520
  481loPI   C2B 7694  15.344  11.567  10.005  0.1381  0.0067 -0.1418
  481loPI   C3B 7695  15.375  11.702   9.635 -0.0799 -0.2399 -0.0327
  481loPI   C4B 7696  15.429  12.003   9.244  0.1664  0.2571 -0.0118
  482loPI    C1 7697   0.618  15.674  11.446  0.1360 -0.0725 -0.1164
  482loPI    C2 7698   0.612  15.276  11.488 -0.1541 -0.0774 -0.1851
  482loPI    C3 7699   0.798  15.502  11.760 -0.1214 -0.2498 -0.0622
  482loPI   PO4 7700   0.625  15.688  11.222  0.0804 -0.1080 -0.1038
  482loPI   GL1 7701   0.895  15.791  10.862  0.0218 -0.1172 -0.4039
  482loPI   GL2 7702   1.129  15.982  10.928 -0.0782 -0.3386  0.0422
  482loPI   C1A 7703   0.805  15.898  10.414  0.1130 -0.0604 -0.0515
  482loPI   C2A 7704   0.822  15.950  10.003 -0.0213 -0.0149 -0.1688
  482loPI   C3A 7705   0.944  15.854   9.539  0.0862 -0.1163  0.1129
  482loPI   C4A 7706   0.845  15.843   9.158 -0.0832 -0.0290 -0.1598
  482loPI   C5A 7707   0.887  15.774   8.706 -0.2946 -0.0553  0.2046
  482loPI   C6A 7708   0.968  15.885   8.296 -0.2037  0.2917  0.0045
  482loPI   C1B 7709   1.293  15.981  10.588 -0.0628 -0.0971  0.1489
  482loPI   C2B 7710   1.284  16.055  10.152 -0.0448 -0.0396  0.0116
  482loPI   C3B 7711   1.381  15.962   9.787 -0.1658  0.3589  0.0998
  482loPI   C4B 7712   1.401  16.026   9.330  0.2234 -0.2329  0.0016
  483loPI    C1 7713   0.129  12.905  11.605 -0.0033  0.0107 -0.0224
  483loPI    C2 7714   0.446  12.824  11.836 -0.1010 -0.0314  0.0984
  483loPI    C3 7715   0.125  13.003  11.993 -0.1940 -0.1187  0.0097
  483loPI   PO4 7716   0.093  12.710  11.468  0.0634 -0.0961 -0.4813
  483loPI   GL1 7717   0.069  12.539  11.031  0.4491  0.0302  0.1063
  483loPI   GL2 7718  -0.177  12.815  10.905 -0.0367 -0.0062 -0.0794
  483loPI   C1A 7719  -0.047  12.339  10.708  0.0275  0.0401  0.0678
  483loPI   C2A 7720   0.109  12.371  10.236  0.1400 -0.1105 -0.0327
  483loPI   C3A 7721   0.153  12.390   9.835  0.1943  0.0568  0.2419
  483loPI   C4A 7722   0.085  12.370   9.405 -0.2175 -0.3873 -0.2475
  483loPI   C5A 7723  -0.088  12.523   9.026 -0.0856  0.1650  0.2841
  483loPI   C6A 7724  -0.377  12.590   8.815  0.1098 -0.0377  0.0132
  483loPI   C1B 7725  -0.302  12.774  10.542  0.2052 -0.0233 -0.0870
  483loPI   C2B 7726  -0.272  12.829  10.107  0.2696 -0.2917 -0.1684
  483loPI   C3B 7727  -0.285  12.755   9.712  0.3844  0.0444 -0.2159
  483loPI   C4B 7728  -0.348  12.788   9.310  0.0014 -0.0511 -0.2863
  484loPI    C1 7729   5.779  17.111  11.497  0.1810  0.0040  0.0556
  484loPI    C2 7730   5.851  16.718  11.481  0.0616 -0.0258  0.2194
  484loPI    C3 7731   5.682  16.877  11.807 -0.0202  0.1398  0.0976
  484loPI   PO4 7732   5.752  17.157  11.267  0.0203 -0.0170 -0.0341
  484loPI   GL1 7733   5.484  17.094  10.869  0.2267 -0.1041 -0.0117
  484loPI   GL2 7734   5.156  17.145  10.703  0.0947  0.0557 -0.0928
  484loPI   C1A 7735   5.588  16.857  10.451  0.3630  0.2012  0.2335
  484loPI   C2A 7736   5.628  16.846   9.985 -0.0520 -0.0851  0.2730
  484loPI   C3A 7737   5.626  16.915   9.472 -0.0697  0.2273  0.1062
  484loPI   C4A 7738   5.703  16.882   9.006  0.0340  0.1472  0.0403
  484loPI   C5A 7739   5.934  16.649   8.747 -0.0303  0.0749  0.2537
  484loPI   C6A 7740   6.261  16.451   8.479  0.0566 -0.2090  0.1900
  484loPI   C1B 7741   5.261  17.173  10.379 -0.2834  0.1415  0.0387
  484loPI   C2B 7742   5.256  17.233   9.981 -0.1026  0.1865 -0.3508
  484loPI   C3B 7743   5.319  17.311   9.600 -0.1827 -0.0402 -0.0035
  484loPI   C4B 7744   5.264  17.327   9.130  0.1445 -0.3583  0.0354
  485loPI    C1 7745   9.460   4.075  10.843  0.0146 -0.0570 -0.1609
  485loPI    C2 7746   9.694   3.860  10.601  0.2755  0.2432 -0.1821
  485loPI    C3 7747   9.775   3.877  10.992 -0.0188 -0.0665 -0.1031
  485loPI   PO4 7748   9.392   4.253  10.764  0.3265  0.1305  0.1145
  485loPI   GL1 7749   9.162   4.259  10.373  0.0628  0.1883 -0.1606
  485loPI   GL2 7750   9.395   4.143  10.243 -0.0253  0.2339  0.1196
  485loPI   C1A 7751   9.050   4.444   9.987 -0.0081  0.3831 -0.0454
  485loPI   C2A 7752   9.126   4.430   9.611 -0.0118 -0.3126  0.2987
  485loPI   C3A 7753   9.362   4.639   9.294 -0.2824 -0.3621 -0.4366
  485loPI   C4A 7754   9.768   4.709   9.279  0.4947 -0.0026  0.1691
  485loPI   C5A 7755   9.745   4.974   9.690  0.1321  0.0608 -0.0738
  485loPI   C6A 7756   9.890   5.403   9.999  0.1506 -0.3467 -0.1503
  485loPI   C1B 7757   9.405   4.062   9.848 -0.2855 -0.2958 -0.2022
  485loPI   C2B 7758   9.495   4.058   9.349  0.0444 -0.1452 -0.2860
  485loPI   C3B 7759   9.692   4.295   8.993 -0.1204  0.1269 -0.1210
  485loPI   C4B 7760   9.713   4.270   8.537  0.0251 -0.1061 -0.2041
  486loPI    C1 7761   7.190   0.634  11.239  0.0952 -0.1361  0.0081
  486loPI    C2 7762   7.486   0.859  11.386  0.0631 -0.1316  0.0667
  486loPI    C3 7763   7.354   0.543  11.592 -0.0665 -0.0523  0.1063
  486loPI   PO4 7764   7.184   0.623  11.049 -0.1314 -0.1951 -0.1754
  486loPI   GL1 7765   7.308   0.602  10.729  0.0180 -0.0190 -0.2435
  486loPI   GL2 7766   7.369   0.298  10.659  0.3191  0.1884  0.2009
  486loPI   C1A 7767   7.353   0.628  10.336 -0.0873 -0.1342  0.0504
  486loPI   C2A 7768   7.363   0.599   9.935 -0.1591  0.0624  0.2614
  486loPI   C3A 7769   7.321   0.737   9.469 -0.3507  0.1344 -0.2289
  486loPI   C4A 7770   7.286   0.825   9.138  0.0079 -0.2937  0.1946
  486loPI   C5A 7771   7.240   0.753   8.695 -0.0023 -0.3896  0.0279
  486loPI   C6A 7772   7.335   0.788   8.323  0.2121 -0.0049 -0.0051
  486loPI   C1B 7773   7.253   0.124  10.261  0.0724 -0.1697 -0.0858
  486loPI   C2B 7774   7.203   0.143   9.781  0.1134  0.3164 -0.2342
  486loPI   C3B 7775   7.162   0.131   9.351 -0.3185  0.0741 -0.0599
  486loPI   C4B 7776   7.136   0.264   8.892  0.1486 -0.0427 -0.1016
  487loPI    C1 7777  13.286   0.949  11.565  0.1064  0.1376 -0.1540
  487loPI    C2 7778  13.094   0.737  11.846  0.1170  0.4886  0.1255
  487loPI    C3 7779  13.277   0.549  11.543 -0.5265  0.1366 -0.0628
  487loPI   PO4 7780  13.138   1.124  11.470  0.1952 -0.4150 -0.1264
  487loPI   GL1 7781  13.130   1.222  11.135  0.1225  0.2054 -0.0570
  487loPI   GL2 7782  12.809   1.130  11.132  0.1173  0.1022  0.1733
  487loPI   C1A 7783  13.228   1.101  10.742 -0.1302 -0.0004 -0.0384
  487loPI   C2A 7784  13.338   1.113  10.304  0.0889  0.1952  0.0674
  487loPI   C3A 7785  13.367   1.180   9.848  0.1486 -0.2241 -0.0756
  487loPI   C4A 7786  13.301   1.171   9.394  0.1525 -0.1195 -0.0192
  487loPI   C5A 7787  13.425   1.261   9.032 -0.0863 -0.1566 -0.4775
  487loPI   C6A 7788  13.490   1.308   8.554 -0.2370  0.3502 -0.2768
  487loPI   C1B 7789  12.795   1.011  10.567  0.3159 -0.0978 -0.0027
  487loPI   C2B 7790  12.863   0.983  10.162  0.3358 -0.0641  0.1580
  487loPI   C3B 7791  12.859   1.018   9.628  0.1106  0.1231  0.0262
  487loPI   C4B 7792  12.863   1.080   9.083 -0.1602 -0.1403  0.5130
  488loPI    C1 7793  17.201  13.484  11.504  0.0980  0.1545 -0.0501
  488loPI    C2 7794  17.147  13.850  11.655  0.1160  0.1156  0.0511
  488loPI    C3 7795  17.082  13.528  11.883  0.0506  0.0544 -0.0530
  488loPI   PO4 7796  17.083  13.449  11.361  0.0757  0.0109  0.1919
  488loPI   GL1 7797  17.096  13.572  10.986 -0.1596 -0.1280 -0.0422
  488loPI   GL2 7798  17.485  13.417  11.012 -0.2584 -0.1052  0.0073
  488loPI   C1A 7799  17.196  13.696  10.571 -0.0971 -0.1339 -0.0948
  488loPI   C2A 7800  17.172  13.609  10.158 -0.1699  0.0785 -0.2522
  488loPI   C3A 7801  17.166  13.538   9.726  0.0529 -0.0774  0.0044
  488loPI   C4A 7802  17.224  13.613   9.265 -0.2261 -0.0869 -0.2401
  488loPI   C5A 7803  17.012  13.525   8.869 -0.3229  0.1159 -0.1335
  488loPI   C6A 7804  16.617  13.403   8.565 -0.0515 -0.0165  0.0644
  488loPI   C1B 7805  17.590  13.285  10.503  0.1302  0.0385  0.0649
  488loPI   C2B 7806  17.577  13.255   9.993 -0.3146 -0.1034 -0.0726
  488loPI   C3B 7807  17.522  13.222   9.518  0.0622 -0.1145  0.1283
  488loPI   C4B 7808  17.473  13.281   9.063 -0.2005  0.1343 -0.0180
  489loPI    C1 7809   5.691   0.989  11.671  0.0193 -0.1049  0.1227
  489loPI    C2 7810   5.842   0.751  11.954 -0.0088 -0.0211  0.2087
  489loPI    C3 7811   5.867   1.148  11.993  0.1013 -0.0100  0.0318
  489loPI   PO4 7812   5.784   0.764  11.453  0.0148  0.0672 -0.0632
  489loPI   GL1 7813   5.652   0.661  11.079  0.0626 -0.2564 -0.2016
  489loPI   GL2 7814   5.957   0.577  10.782 -0.1259 -0.1277  0.1667
  489loPI   C1A 7815   5.283   0.744  10.721 -0.2379 -0.1987  0.0591
  489loPI   C2A 7816   5.118   0.834  10.234  0.0569  0.2540  0.0890
  489loPI   C3A 7817   5.093   0.772   9.830  0.4806  0.2944  0.1073
  489loPI   C4A 7818   5.080   0.863   9.417  0.2271  0.1063 -0.0958
  489loPI   C5A 7819   5.050   0.920   8.971  0.1022 -0.0165 -0.3356
  489loPI   C6A 7820   5.170   0.686   8.645 -0.0164  0.3201 -0.0562
  489loPI   C1B 7821   6.044   0.653  10.242 -0.0857  0.1341  0.3062
  489loPI   C2B 7822   6.010   0.660   9.831  0.0668  0.2849 -0.2343
  489loPI   C3B 7823   5.987   0.767   9.418  0.2117  0.0271 -0.0686
  489loPI   C4B 7824   5.907   0.763   8.984 -0.0130  0.2558 -0.0817
  490loPI    C1 7825   3.082  15.728  11.780  0.2314  0.0818 -0.0018
  490loPI    C2 7826   2.785  15.990  11.836  0.0700 -0.0590 -0.1838
  490loPI    C3 7827   2.870  15.721  12.120  0.0787  0.0344 -0.0969
  490loPI   PO4 7828   3.072  15.720  11.509  0.1922  0.4407  0.0929
  490loPI   GL1 7829   3.176  15.870  11.098  0.0547  0.3034  0.1663
  490loPI   GL2 7830   3.119  15.612  10.911 -0.1178 -0.1121  0.0406
  490loPI   C1A 7831   3.174  16.082  10.763  0.1345 -0.1667 -0.0140
  490loPI   C2A 7832   3.188  16.033  10.346  0.3102 -0.0791  0.2998
  490loPI   C3A 7833   3.123  16.065   9.870 -0.0346  0.1773 -0.2188
  490loPI   C4A 7834   3.162  16.144   9.366  0.1879  0.4478  0.0530
  490loPI   C5A 7835   3.120  16.313   8.932  0.1460  0.3694 -0.1140
  490loPI   C6A 7836   3.067  16.597   8.542 -0.0569  0.1021  0.1382
  490loPI   C1B 7837   3.194  15.501  10.598  0.1071  0.2941  0.3511
  490loPI   C2B 7838   3.101  15.621  10.160 -0.0816  0.1803  0.0903
  490loPI   C3B 7839   3.048  15.608   9.667  0.1091  0.0746 -0.2189
  490loPI   C4B 7840   2.993  15.684   9.247  0.0391  0.1977 -0.1722
  491loPI    C1 7841  11.044   8.887  11.446 -0.0058 -0.1515  0.1024
  491loPI    C2 7842  11.406   9.053  11.414 -0.1533  0.1787  0.1112
  491loPI    C3 7843  11.305   8.858  11.748  0.1082 -0.1477  0.0050
  491loPI   PO4 7844  10.970   8.912  11.195 -0.2452 -0.0114 -0.1236
  491loPI   GL1 7845  10.913   9.224  10.930 -0.3222 -0.2488 -0.0465
  491loPI   GL2 7846  11.188   9.328  11.034 -0.2945  0.0493  0.3661
  491loPI   C1A 7847  10.785   9.133  10.489  0.1375 -0.2665 -0.0980
  491loPI   C2A 7848  10.726   9.117   9.991  0.0259 -0.1707  0.0743
  491loPI   C3A 7849  10.633   9.248   9.518 -0.0297  0.1779  0.1035
  491loPI   C4A 7850  10.728   9.139   9.091  0.1772  0.1767  0.0069
  491loPI   C5A 7851  10.844   9.409   8.857  0.2405 -0.0591 -0.2612
  491loPI   C6A 7852  10.762   9.425   8.503 -0.0613 -0.2287 -0.1301
  491loPI   C1B 7853  11.323   9.282  10.608  0.2782 -0.0391 -0.0294
  491loPI   C2B 7854  11.203   9.321  10.132 -0.0547  0.1886  0.4991
  491loPI   C3B 7855  11.174   9.343   9.688  0.2040  0.0107 -0.1290
  491loPI   C4B 7856  11.265   9.403   9.240  0.1861 -0.2540 -0.1351
  492loPI    C1 7857   6.277  15.733  11.447 -0.1760  0.0630 -0.0379
  492loPI    C2 7858   6.074  15.971  11.697 -0.2064  0.0108 -0.0129
  492loPI    C3 7859   6.343  15.712  11.841 -0.0935  0.1071 -0.0490
  492loPI   PO4 7860   6.208  15.857  11.191 -0.0009 -0.2113 -0.1253
  492loPI   GL1 7861   6.214  15.857  10.783  0.1075 -0.0899 -0.3282
  492loPI   GL2 7862   6.450  16.032  10.732  0.1157 -0.1166  0.0888
  492loPI   C1A 7863   6.317  15.664  10.399 -0.2414 -0.2092  0.1910
  492loPI   C2A 7864   6.323  15.705  10.025 -0.0107 -0.2881 -0.2473
  492loPI   C3A 7865   6.317  15.732   9.594  0.0599 -0.0173  0.0449
  492loPI   C4A 7866   6.170  15.824   9.139  0.0197  0.0146  0.1953
  492loPI   C5A 7867   6.191  16.040   8.686  0.0850 -0.1984 -0.0339
  492loPI   C6A 7868   5.897  15.932   8.389 -0.1853  0.0812 -0.0017
  492loPI   C1B 7869   6.333  16.227  10.374 -0.0606  0.2006 -0.0972
  492loPI   C2B 7870   6.360  16.177   9.861  0.0158 -0.1938 -0.4113
  492loPI   C3B 7871   6.411  16.240   9.480 -0.1160 -0.1625  0.0231
  492loPI   C4B 7872   6.324  16.372   9.000 -0.0693 -0.2054  0.0477
  493loPI    C1 7873   6.032  10.766  11.538  0.0910  0.1432 -0.0280
  493loPI    C2 7874   5.879  10.819  11.904 -0.1752  0.3056 -0.1598
  493loPI    C3 7875   6.268  10.737  11.859 -0.1467  0.2565  0.1598
  493loPI   PO4 7876   5.938  10.908  11.348 -0.1997 -0.0698 -0.0455
  493loPI   GL1 7877   5.783  10.984  10.850 -0.1315 -0.1470  0.1019
  493loPI   GL2 7878   5.918  11.264  10.608 -0.1408 -0.0003  0.0673
  493loPI   C1A 7879   5.760  10.739  10.503  0.1822  0.1262 -0.2795
  493loPI   C2A 7880   5.691  10.752  10.093 -0.3790 -0.0396 -0.0509
  493loPI   C3A 7881   5.547  10.809   9.674 -0.1538  0.0485  0.0458
  493loPI   C4A 7882   5.669  10.843   9.226  0.0241  0.1451  0.3252
  493loPI   C5A 7883   5.637  10.914   8.838  0.2166 -0.1222 -0.1939
  493loPI   C6A 7884   5.809  10.825   8.404  0.0142  0.0109 -0.0441
  493loPI   C1B 7885   5.782  11.303  10.316  0.0206 -0.1179 -0.0681
  493loPI   C2B 7886   5.794  11.384   9.915  0.0197 -0.0826  0.2338
  493loPI   C3B 7887   5.794  11.371   9.483  0.1804 -0.3570  0.0229
  493loPI   C4B 7888   5.802  11.386   9.030 -0.0178  0.1470 -0.0509
  494loPI    C1 7889  17.167  17.589  11.787  0.1088 -0.1475  0.1156
  494loPI    C2 7890  17.553  17.539  11.698  0.0534 -0.0312 -0.2010
  494loPI    C3 7891  17.432  17.876  11.875  0.0953 -0.0658 -0.1056
  494loPI   PO4 7892  17.081  17.552  11.536 -0.2521  0.0018 -0.2114
  494loPI   GL1 7893  17.006  17.171  11.167 -0.0012 -0.0541  0.2509
  494loPI   GL2 7894  16.969  16.845  10.965 -0.1082  0.1249  0.2585
  494loPI   C1A 7895  17.013  17.296  10.774 -0.1019 -0.1510  0.1440
  494loPI   C2A 7896  17.056  17.331  10.349 -0.0949  0.0822  0.0360
  494loPI   C3A 7897  17.046  17.346   9.946  0.2415 -0.2745 -0.1343
  494loPI   C4A 7898  17.083  17.297   9.618 -0.1578 -0.3308  0.1495
  494loPI   C5A 7899  17.105  17.350   9.181 -0.0032  0.3195 -0.1703
  494loPI   C6A 7900  17.102  17.272   8.815  0.0602 -0.0720  0.1031
  494loPI   C1B 7901  16.980  16.843  10.527  0.1552  0.0243 -0.0888
  494loPI   C2B 7902  16.977  16.874  10.071  0.0879 -0.1170 -0.0536
  494loPI   C3B 7903  16.915  16.787   9.735 -0.0900  0.2102  0.3409
  494loPI   C4B 7904  16.996  16.806   9.269 -0.1253  0.0199 -0.1025
  495loPI    C1 7905  14.224   2.186  11.747 -0.0653 -0.1886  0.0377
  495loPI    C2 7906  14.216   2.261  12.140  0.0256  0.0672 -0.0071
  495loPI    C3 7907  14.101   1.903  12.002  0.0312 -0.0378  0.2547
  495loPI   PO4 7908  14.427   2.252  11.630 -0.1130 -0.1441 -0.3213
  495loPI   GL1 7909  14.477   2.325  11.230  0.0968  0.0264  0.0492
  495loPI   GL2 7910  14.385   2.087  11.183 -0.2174 -0.1150  0.1221
  495loPI   C1A 7911  14.532   2.429  10.795 -0.1799 -0.1506  0.1761
  495loPI   C2A 7912  14.614   2.510  10.367  0.1219  0.2142  0.0674
  495loPI   C3A 7913  14.593   2.491   9.889  0.0631  0.0659  0.2576
  495loPI   C4A 7914  14.608   2.600   9.541 -0.1854 -0.4925 -0.0987
  495loPI   C5A 7915  14.777   2.678   9.079  0.1709 -0.0948  0.0853
  495loPI   C6A 7916  14.764   2.978   8.778 -0.0525  0.1125 -0.6715
  495loPI   C1B 7917  14.443   1.908  10.747 -0.1538 -0.2225 -0.3256
  495loPI   C2B 7918  14.424   2.029  10.333 -0.1758 -0.4132  0.3470
  495loPI   C3B 7919  14.478   1.978   9.910  0.1693 -0.1929 -0.3815
  495loPI   C4B 7920  14.499   2.035   9.475 -0.1288 -0.1295  0.1460
  496loPI    C1 7921  16.229   5.717  11.624  0.0533  0.2334 -0.2651
  496loPI    C2 7922  15.911   5.548  11.798  0.1943  0.0712 -0.1612
  496loPI    C3 7923  15.973   5.942  11.834  0.0166  0.1005 -0.1658
  496loPI   PO4 7924  16.199   5.635  11.394  0.1294 -0.0788  0.1089
  496loPI   GL1 7925  16.360   5.528  11.032 -0.0190 -0.0134  0.2535
  496loPI   GL2 7926  16.587   5.319  10.880 -0.0630 -0.0300 -0.3945
  496loPI   C1A 7927  16.273   5.657  10.662  0.1733  0.0128 -0.3977
  496loPI   C2A 7928  16.308   5.815  10.326  0.1148 -0.3606  0.0550
  496loPI   C3A 7929  16.345   5.739   9.863  0.0971 -0.3841 -0.2577
  496loPI   C4A 7930  16.349   5.767   9.389  0.0521 -0.1102 -0.1975
  496loPI   C5A 7931  16.425   5.882   9.020  0.1821 -0.1789  0.0469
  496loPI   C6A 7932  16.544   5.913   8.531 -0.0981  0.2359  0.1941
  496loPI   C1B 7933  16.662   5.405  10.435  0.0192  0.0941 -0.0508
  496loPI   C2B 7934  16.730   5.460  10.058  0.1105  0.0872 -0.0110
  496loPI   C3B 7935  16.715   5.461   9.621 -0.1478  0.3156 -0.1676
  496loPI   C4B 7936  16.711   5.462   9.199 -0.4556  0.0089 -0.0305
  497loPI    C1 7937   3.174   3.431  11.571  0.2281  0.0426  0.0248
  497loPI    C2 7938   2.987   3.116  11.731  0.2157  0.0141 -0.0452
  497loPI    C3 7939   3.152   3.392  11.968  0.1513 -0.0000  0.0167
  497loPI   PO4 7940   3.297   3.363  11.364 -0.1459  0.2096 -0.0373
  497loPI   GL1 7941   3.208   3.393  10.990  0.1509 -0.1276 -0.1561
  497loPI   GL2 7942   3.288   3.060  10.896  0.0104  0.0447  0.1156
  497loPI   C1A 7943   2.978   3.467  10.571 -0.2093 -0.0809  0.1081
  497loPI   C2A 7944   3.064   3.460  10.141 -0.0296 -0.0688 -0.0570
  497loPI   C3A 7945   3.029   3.522   9.659  0.0946 -0.0104  0.0286
  497loPI   C4A 7946   3.046   3.626   9.337  0.1994 -0.1058 -0.0395
  497loPI   C5A 7947   2.990   3.669   8.892  0.1179 -0.0526  0.1189
  497loPI   C6A 7948   2.669   3.640   8.607  0.3126 -0.1066 -0.2630
  497loPI   C1B 7949   3.384   3.084  10.527 -0.1557  0.0911 -0.0749
  497loPI   C2B 7950   3.397   3.109  10.209 -0.2919 -0.1915  0.1035
  497loPI   C3B 7951   3.441   3.146   9.771  0.0493 -0.0453 -0.2417
  497loPI   C4B 7952   3.339   3.258   9.370 -0.0377  0.4823  0.1284
  498loPI    C1 7953   6.376   5.361  11.209 -0.1328 -0.0685  0.1059
  498loPI    C2 7954   6.059   5.549  11.053  0.0349  0.0903 -0.0483
  498loPI    C3 7955   6.135   5.577  11.444 -0.2218 -0.0679  0.0151
  498loPI   PO4 7956   6.565   5.446  11.071 -0.2560  0.1307 -0.1330
  498loPI   GL1 7957   6.551   5.568  10.769 -0.1315 -0.0528  0.1551
  498loPI   GL2 7958   6.292   5.303  10.641  0.1674  0.0055 -0.0537
  498loPI   C1A 7959   6.685   5.470  10.287 -0.3030  0.2153 -0.3039
  498loPI   C2A 7960   6.687   5.608   9.922 -0.0272  0.0072 -0.0168
  498loPI   C3A 7961   6.692   5.714   9.430  0.2087  0.1589  0.1935
  498loPI   C4A 7962   6.791   5.790   9.028  0.2410  0.4448  0.0628
  498loPI   C5A 7963   6.909   5.928   8.572  0.0248  0.2881  0.0151
  498loPI   C6A 7964   6.822   6.330   8.471  0.1622  0.1163 -0.1837
  498loPI   C1B 7965   6.177   5.328  10.185 -0.2803  0.2860  0.2145
  498loPI   C2B 7966   6.106   5.349   9.725  0.1373  0.0738  0.0895
  498loPI   C3B 7967   6.177   5.490   9.319  0.0979 -0.3335  0.0054
  498loPI   C4B 7968   6.295   5.710   8.890  0.1923 -0.0263 -0.3368
  499loPI    C1 7969  11.031  13.380  11.521 -0.1307  0.2063 -0.2085
  499loPI    C2 7970  10.699  13.341  11.742 -0.0354  0.0523 -0.0907
  499loPI    C3 7971  11.054  13.231  11.892  0.0121 -0.1871 -0.3702
  499loPI   PO4 7972  10.964  13.498  11.388 -0.3351 -0.3296 -0.3972
  499loPI   GL1 7973  10.980  13.335  10.987 -0.0506  0.0756 -0.1790
  499loPI   GL2 7974  10.737  13.581  10.857  0.0067  0.0240  0.0916
  499loPI   C1A 7975  11.095  13.132  10.597 -0.4184  0.1808  0.1492
  499loPI   C2A 7976  11.172  13.034  10.284  0.2331  0.1019 -0.3733
  499loPI   C3A 7977  11.174  13.028   9.858  0.4282  0.0060  0.0053
  499loPI   C4A 7978  11.180  13.041   9.372 -0.0836  0.0678 -0.0860
  499loPI   C5A 7979  11.182  13.078   8.988 -0.2367  0.1077  0.0888
  499loPI   C6A 7980  11.208  13.433   8.803  0.0968  0.3016  0.1008
  499loPI   C1B 7981  10.833  13.445  10.370  0.1376 -0.0917 -0.0182
  499loPI   C2B 7982  10.815  13.359   9.911  0.1294  0.0560  0.1649
  499loPI   C3B 7983  10.766  13.395   9.474  0.1059 -0.2269  0.0259
  499loPI   C4B 7984  10.708  13.393   9.091 -0.2907  0.1536  0.1129
  500loPI    C1 7985  15.335   0.547  11.690 -0.0698 -0.3424 -0.0748
  500loPI    C2 7986  15.558   0.285  11.894  0.0518 -0.1001  0.1089
  500loPI    C3 7987  15.259   0.478  12.076  0.0849  0.0302  0.0264
  500loPI   PO4 7988  15.495   0.700  11.588  0.1800 -0.0400 -0.1641
  500loPI   GL1 7989  15.559   0.778  11.122  0.1153  0.2311 -0.2781
  500loPI   GL2 7990  15.811   0.600  11.026 -0.0763 -0.1988 -0.4765
  500loPI   C1A 7991  15.544   0.891  10.732  0.0584 -0.0460 -0.1526
  500loPI   C2A 7992  15.683   0.962  10.338 -0.0066 -0.0383  0.1031
  500loPI   C3A 7993  15.631   0.898   9.902  0.2418 -0.0382 -0.0013
  500loPI   C4A 7994  15.616   1.014   9.535  0.3739 -0.0293 -0.0259
  500loPI   C5A 7995  15.621   1.118   9.081 -0.0765 -0.0024 -0.0083
  500loPI   C6A 7996  15.416   1.337   8.716  0.2348 -0.3250 -0.0545
  500loPI   C1B 7997  15.964   0.653  10.614 -0.0542  0.1049  0.0062
  500loPI   C2B 7998  15.978   0.627  10.147  0.0174 -0.2384 -0.4583
  500loPI   C3B 7999  15.990   0.545   9.740  0.2694  0.0782  0.0318
  500loPI   C4B 8000  15.905   0.684   9.273  0.0236  0.2633 -0.0493
  501loPI    C1 8001   7.391  14.515  11.555  0.0111 -0.1597  0.0436
  501loPI    C2 8002   7.028  14.569  11.716 -0.0327 -0.2184 -0.0347
  501loPI    C3 8003   7.346  14.515  11.952 -0.0172  0.1849  0.0428
  501loPI   PO4 8004   7.402  14.751  11.352 -0.1968 -0.1108  0.2056
  501loPI   GL1 8005   7.278  14.967  11.020 -0.0151  0.0487  0.0817
  501loPI   GL2 8006   7.315  14.699  10.815  0.3604  0.2312  0.2213
  501loPI   C1A 8007   7.533  15.147  10.723 -0.0422  0.2271  0.1508
  501loPI   C2A 8008   7.508  15.128  10.231 -0.1465  0.1400  0.1680
  501loPI   C3A 8009   7.489  15.159   9.836  0.2219  0.1605  0.0794
  501loPI   C4A 8010   7.467  15.139   9.390 -0.1903 -0.0910  0.2549
  501loPI   C5A 8011   7.591  15.201   8.969 -0.0232  0.0155 -0.0254
  501loPI   C6A 8012   7.570  15.365   8.581  0.0388  0.3403  0.3717
  501loPI   C1B 8013   7.443  14.622  10.400  0.1820 -0.2428 -0.2452
  501loPI   C2B 8014   7.417  14.670   9.992 -0.1233  0.0893  0.1177
  501loPI   C3B 8015   7.418  14.715   9.622  0.0041  0.0920  0.0457
  501loPI   C4B 8016   7.320  14.744   9.111  0.1221 -0.3517  0.2056
  502loPI    C1 8017   1.845   2.394  11.444 -0.1163 -0.2702 -0.2067
  502loPI    C2 8018   2.085   2.279  11.146  0.2192 -0.0161 -0.0415
  502loPI    C3 8019   2.231   2.321  11.516 -0.1156  0.0038  0.0924
  502loPI   PO4 8020   1.735   2.585  11.372 -0.3648 -0.1853 -0.1496
  502loPI   GL1 8021   1.618   2.529  10.983 -0.0979 -0.1043  0.3850
  502loPI   GL2 8022   1.889   2.658  10.866 -0.0443  0.0015 -0.4003
  502loPI   C1A 8023   1.425   2.510  10.535 -0.0847 -0.1507  0.1651
  502loPI   C2A 8024   1.406   2.406  10.187 -0.1021 -0.1388  0.2558
  502loPI   C3A 8025   1.422   2.432   9.755 -0.2343 -0.2127 -0.2981
  502loPI   C4A 8026   1.507   2.588   9.311 -0.0516  0.1274  0.0255
  502loPI   C5A 8027   1.464   2.598   8.869 -0.2173  0.1933 -0.5972
  502loPI   C6A 8028   1.533   2.761   8.445  0.0678  0.3751 -0.2890
  502loPI   C1B 8029   1.902   2.661  10.397 -0.1094 -0.0695 -0.0918
  502loPI   C2B 8030   1.879   2.625  10.011 -0.2086 -0.0157 -0.0105
  502loPI   C3B 8031   1.878   2.745   9.626 -0.0364  0.1677  0.1785
  502loPI   C4B 8032   1.941   2.813   9.158  0.0207 -0.1470  0.0853
  503loPI    C1 8033   9.315   1.883  11.496 -0.2684 -0.1496 -0.0595
  503loPI    C2 8034   9.595   1.756  11.752  0.0962  0.3015 -0.2187
  503loPI    C3 8035   9.229   1.847  11.885  0.0949 -0.0515  0.0344
  503loPI   PO4 8036   9.482   2.063  11.275  0.3591  0.1131 -0.2142
  503loPI   GL1 8037   9.474   2.094  10.931  0.2658 -0.0138  0.2598
  503loPI   GL2 8038   9.538   1.863  10.741  0.1550 -0.0744  0.0844
  503loPI   C1A 8039   9.167   2.177  10.620  0.1191  0.0571  0.1775
  503loPI   C2A 8040   9.086   2.142  10.158  0.1166 -0.0088  0.3365
  503loPI   C3A 8041   8.990   2.025   9.741  0.0879  0.0005  0.0188
  503loPI   C4A 8042   9.026   2.098   9.307 -0.3841  0.1857  0.1166
  503loPI   C5A 8043   9.081   2.224   8.882 -0.1836  0.1286  0.0121
  503loPI   C6A 8044   9.265   2.023   8.547  0.0108 -0.0646 -0.0148
  503loPI   C1B 8045   9.483   1.863  10.348 -0.6029  0.0461  0.0784
  503loPI   C2B 8046   9.432   1.766   9.908 -0.0660  0.2365 -0.0036
  503loPI   C3B 8047   9.426   1.761   9.420 -0.4866 -0.1602 -0.1942
  503loPI   C4B 8048   9.390   1.838   9.009 -0.1642 -0.3483  0.1602
  504loPI    C1 8049   1.271   2.960  11.439  0.0169  0.2063 -0.0299
  504loPI    C2 8050   1.600   3.120  11.601  0.0720  0.1187 -0.0547
  504loPI    C3 8051   1.402   2.830  11.794  0.0246  0.1525 -0.0524
  504loPI   PO4 8052   1.284   2.894  11.125 -0.0224 -0.0051 -0.1610
  504loPI   GL1 8053   1.589   3.022  10.688 -0.0506  0.0134 -0.1646
  504loPI   GL2 8054   1.641   3.403  10.760  0.0562  0.1521 -0.2642
  504loPI   C1A 8055   1.516   2.901  10.275  0.1851 -0.2005  0.0169
  504loPI   C2A 8056   1.557   2.998   9.886 -0.3648 -0.0994  0.4693
  504loPI   C3A 8057   1.547   3.021   9.434 -0.1626  0.0556  0.2319
  504loPI   C4A 8058   1.586   3.078   8.951  0.3038  0.4284 -0.1108
  504loPI   C5A 8059   1.449   3.242   8.611 -0.0740 -0.0974 -0.0325
  504loPI   C6A 8060   1.475   3.640   8.445 -0.0361  0.0011 -0.1994
  504loPI   C1B 8061   1.654   3.461  10.281  0.0753 -0.0056  0.0852
  504loPI   C2B 8062   1.635   3.581   9.915 -0.0251  0.2884  0.0403
  504loPI   C3B 8063   1.637   3.523   9.410 -0.1846 -0.1191  0.2011
  504loPI   C4B 8064   1.646   3.615   9.001 -0.0786  0.0060  0.2570
  505loPI    C1 8065  12.974  12.826  11.727 -0.0165  0.0627 -0.0149
  505loPI    C2 8066  12.908  12.524  11.980  0.1228 -0.0754 -0.1413
  505loPI    C3 8067  13.041  12.876  12.118 -0.1988 -0.0160  0.0274
  505loPI   PO4 8068  13.112  12.783  11.529 -0.2437 -0.0424 -0.3085
  505loPI   GL1 8069  12.898  12.747  11.122  0.2821 -0.0285 -0.0351
  505loPI   GL2 8070  12.929  12.447  11.199  0.0578  0.3379 -0.0077
  505loPI   C1A 8071  12.899  12.633  10.686 -0.0538 -0.0566  0.1022
  505loPI   C2A 8072  12.854  12.654  10.303  0.0055 -0.2256 -0.0139
  505loPI   C3A 8073  12.939  12.751   9.883  0.1458  0.1553 -0.3041
  505loPI   C4A 8074  12.875  12.660   9.482 -0.0167  0.0703  0.1531
  505loPI   C5A 8075  12.896  12.704   9.020 -0.1647  0.0141  0.0577
  505loPI   C6A 8076  13.011  12.491   8.600 -0.1199  0.3207 -0.1074
  505loPI   C1B 8077  12.772  12.127  10.919  0.0148  0.0536  0.0699
  505loPI   C2B 8078  12.765  12.170  10.401  0.0607 -0.0794 -0.1052
  505loPI   C3B 8079  12.760  12.212   9.895 -0.0551 -0.3121 -0.0673
  505loPI   C4B 8080  12.775  12.112   9.447  0.2843  0.0265 -0.0169
  506loPI    C1 8081  11.964   5.750  11.094 -0.0450  0.0352  0.0190
  506loPI    C2 8082  12.319   5.929  11.137 -0.1147  0.2116 -0.1266
  506loPI    C3 8083  12.258   5.565  11.292  0.1427  0.1621 -0.1378
  506loPI   PO4 8084  11.879   5.763  10.907 -0.1259  0.0506 -0.0623
  506loPI   GL1 8085  11.856   5.649  10.479  0.2096 -0.2580 -0.0282
  506loPI   GL2 8086  11.714   5.428  10.454 -0.1530 -0.1601 -0.0747
  506loPI   C1A 8087  11.814   5.964  10.260  0.1383  0.1604  0.2037
  506loPI   C2A 8088  11.616   6.128   9.967  0.2051 -0.1320 -0.1485
  506loPI   C3A 8089  11.336   6.087   9.590 -0.1966  0.2390  0.0671
  506loPI   C4A 8090  11.197   5.794   9.386  0.0718 -0.1343 -0.0376
  506loPI   C5A 8091  11.095   5.427   9.182 -0.5341 -0.1921  0.1501
  506loPI   C6A 8092  11.254   5.170   8.866  0.2516  0.2539 -0.1351
  506loPI   C1B 8093  11.929   5.408  10.030 -0.0968 -0.0168  0.0914
  506loPI   C2B 8094  12.143   5.739   9.867 -0.1371 -0.0757 -0.0693
  506loPI   C3B 8095  12.113   6.202   9.840 -0.1258  0.1083 -0.1051
  506loPI   C4B 8096  12.378   6.455   9.644 -0.1049 -0.0298  0.1483
  507loPI    C1 8097  15.996   3.795  11.290  0.2618 -0.0860 -0.0497
  507loPI    C2 8098  16.204   3.740  11.627  0.2177  0.0772  0.0052
  507loPI    C3 8099  15.805   3.766  11.640  0.2120  0.0266 -0.0668
  507loPI   PO4 8100  16.072   3.904  11.194  0.1097 -0.1161  0.0279
  507loPI   GL1 8101  16.390   3.823  10.858 -0.0698 -0.0093 -0.0114
  507loPI   GL2 8102  16.652   3.631  10.631  0.2941 -0.0957  0.0054
  507loPI   C1A 8103  16.256   3.938  10.451 -0.0061 -0.2377  0.1052
  507loPI   C2A 8104  16.310   3.989  10.066  0.0845  0.1796 -0.1618
  507loPI   C3A 8105  16.361   3.999   9.627  0.4642 -0.3033  0.0551
  507loPI   C4A 8106  16.325   3.996   9.238 -0.0923  0.1740 -0.0972
  507loPI   C5A 8107  16.334   4.005   8.849  0.0456  0.1800 -0.0313
  507loPI   C6A 8108  16.155   3.935   8.478 -0.2798 -0.1364 -0.0323
  507loPI   C1B 8109  16.626   3.607  10.223 -0.0210 -0.2234  0.0105
  507loPI   C2B 8110  16.657   3.666   9.860  0.0772 -0.3409 -0.1285
  507loPI   C3B 8111  16.723   3.631   9.445  0.2553  0.2030 -0.2393
  507loPI   C4B 8112  16.906   3.683   9.092  0.6841  0.1660  0.3410
  508loPI    C1 8113  17.222   9.252  11.390 -0.3083 -0.0051  0.0277
  508loPI    C2 8114  17.224   9.012  11.710  0.0091  0.1031  0.1106
  508loPI    C3 8115  17.380   9.379  11.735  0.0344  0.1138 -0.1677
  508loPI   PO4 8116  17.239   9.145  11.236 -0.0454 -0.1814  0.0156
  508loPI   GL1 8117  17.259   9.002  10.907  0.1508  0.1233  0.0622
  508loPI   GL2 8118  16.868   9.115  10.884  0.2429  0.0024 -0.0725
  508loPI   C1A 8119  17.496   9.113  10.679  0.1229  0.1098  0.3493
  508loPI   C2A 8120  17.560   9.006  10.223 -0.0389 -0.2347 -0.0808
  508loPI   C3A 8121  17.522   9.012   9.713  0.0836  0.2186 -0.0140
  508loPI   C4A 8122  17.455   9.014   9.270 -0.2035  0.1851 -0.5495
  508loPI   C5A 8123  17.675   9.111   8.937  0.2350 -0.0446  0.1255
  508loPI   C6A 8124  17.655   9.372   8.749 -0.1698  0.1572 -0.0222
  508loPI   C1B 8125  16.992   8.949  10.471  0.1215  0.2373  0.0279
  508loPI   C2B 8126  17.026   8.912  10.020  0.0668 -0.1272  0.2458
  508loPI   C3B 8127  17.007   8.851   9.591  0.0162 -0.1440  0.0283
  508loPI   C4B 8128  16.965   8.860   9.136  0.1643 -0.1986  0.0406
  509loPI    C1 8129   8.780  13.341  11.296  0.2930  0.0694  0.3271
  509loPI    C2 8130   8.737  12.964  11.423 -0.0662 -0.1813 -0.4742
  509loPI    C3 8131   8.495  13.251  11.562  0.0784 -0.2749 -0.0105
  509loPI   PO4 8132   8.843  13.363  10.936  0.1714 -0.2623  0.1526
  509loPI   GL1 8133   8.984  13.201  10.482 -0.1274 -0.1609 -0.2736
  509loPI   GL2 8134   8.988  13.563  10.501 -0.0440  0.1696  0.0474
  509loPI   C1A 8135   8.973  13.198  10.027  0.0396  0.1606  0.4212
  509loPI   C2A 8136   8.947  13.262   9.685  0.0101 -0.2892  0.0875
  509loPI   C3A 8137   8.914  13.350   9.242 -0.1365  0.1413 -0.0283
  509loPI   C4A 8138   8.954  13.374   8.808  0.2553  0.0728  0.2244
  509loPI   C5A 8139   8.946  13.581   8.367 -0.1594 -0.0376 -0.1013
  509loPI   C6A 8140   8.674  13.680   8.096 -0.2044 -0.1408  0.2965
  509loPI   C1B 8141   9.124  13.767  10.147  0.2443 -0.0025  0.3543
  509loPI   C2B 8142   9.048  13.787   9.792  0.1808 -0.0606  0.1519
  509loPI   C3B 8143   9.056  13.848   9.293  0.0223  0.3563  0.0392
  509loPI   C4B 8144   9.073  13.890   8.829  0.2317  0.2651 -0.0063
  510loPI    C1 8145   1.250  14.203  11.577  0.1378  0.0901 -0.0567
  510loPI    C2 8146   1.102  14.291  11.938  0.2783 -0.0601  0.0387
  510loPI    C3 8147   1.095  13.914  11.806  0.1167  0.0130 -0.1675
  510loPI   PO4 8148   1.068  14.282  11.360  0.0136 -0.2073  0.0596
  510loPI   GL1 8149   0.826  14.381  11.049 -0.1557  0.1831 -0.1287
  510loPI   GL2 8150   0.477  14.370  10.835 -0.2436 -0.1427  0.2022
  510loPI   C1A 8151   1.018  14.455  10.695 -0.0177 -0.3648 -0.1979
  510loPI   C2A 8152   0.995  14.548  10.280 -0.1372 -0.0455  0.0074
  510loPI   C3A 8153   1.044  14.518   9.814  0.1674 -0.1486  0.1951
  510loPI   C4A 8154   1.127  14.498   9.387 -0.2227 -0.1936 -0.1091
  510loPI   C5A 8155   1.275  14.397   8.967  0.0488  0.2348 -0.0625
  510loPI   C6A 8156   1.636  14.145   8.695 -0.0679 -0.0962  0.0759
  510loPI   C1B 8157   0.513  14.375  10.395  0.1354  0.0633 -0.0285
  510loPI   C2B 8158   0.506  14.381  10.011  0.1522 -0.1286  0.1811
  510loPI   C3B 8159   0.596  14.409   9.584 -0.1285  0.1391  0.0729
  510loPI   C4B 8160   0.413  14.378   9.148  0.0863  0.3246  0.2431
  511loPI    C1 8161   6.271   3.233  11.098 -0.0650  0.3589  0.0571
  511loPI    C2 8162   6.294   3.004  11.425 -0.2307  0.1569 -0.0703
  511loPI    C3 8163   6.074   3.338  11.429 -0.0569  0.2713  0.0901
  511loPI   PO4 8164   6.375   3.121  10.887 -0.1341  0.0174 -0.0659
  511loPI   GL1 8165   6.475   3.340  10.535  0.1691  0.5430 -0.2931
  511loPI   GL2 8166   6.411   3.567  10.630  0.0735  0.0066 -0.1482
  511loPI   C1A 8167   6.592   3.159  10.212 -0.0235  0.1776 -0.2533
  511loPI   C2A 8168   6.599   3.212   9.833 -0.3050  0.0177 -0.2118
  511loPI   C3A 8169   6.535   3.214   9.389  0.2618  0.0760 -0.0561
  511loPI   C4A 8170   6.474   3.339   9.019 -0.0497 -0.5625 -0.0111
  511loPI   C5A 8171   6.434   3.201   8.659 -0.0774  0.1655 -0.1874
  511loPI   C6A 8172   6.303   3.408   8.384  0.2314  0.2011 -0.1729
  511loPI   C1B 8173   6.225   3.571  10.193 -0.0434 -0.0912  0.2122
  511loPI   C2B 8174   6.240   3.539   9.732  0.0085  0.2322  0.0527
  511loPI   C3B 8175   6.124   3.637   9.296 -0.1193  0.1527 -0.0185
  511loPI   C4B 8176   6.188   3.648   8.782  0.2797 -0.2116 -0.1428
  512loPI    C1 8177   0.875   4.951  11.426  0.2090 -0.2447  0.0065
  512loPI    C2 8178   0.918   4.774  11.783  0.2947 -0.0517  0.0932
  512loPI    C3 8179   0.640   5.057  11.731  0.2601 -0.1026 -0.0031
  512loPI   PO4 8180   0.877   4.791  11.246  0.2394  0.1587 -0.1150
  512loPI   GL1 8181   1.048   4.623  10.807 -0.1845 -0.0067 -0.0561
  512loPI   GL2 8182   1.223   4.863  10.802  0.0802  0.0289 -0.0294
  512loPI   C1A 8183   1.029   4.677  10.317 -0.1269  0.0388  0.1928
  512loPI   C2A 8184   1.106   4.682   9.943 -0.0639 -0.1831 -0.1178
  512loPI   C3A 8185   1.056   4.708   9.599 -0.1679 -0.1946 -0.3035
  512loPI   C4A 8186   1.088   4.756   9.190  0.1377  0.0759  0.0618
  512loPI   C5A 8187   1.241   4.949   8.808  0.0451  0.1848  0.1034
  512loPI   C6A 8188   1.327   5.335   8.770  0.4983  0.0676  0.0858
  512loPI   C1B 8189   1.160   5.186  10.513 -0.0456 -0.1282 -0.0083
  512loPI   C2B 8190   1.205   5.342  10.075  0.0487  0.1167 -0.0633
  512loPI   C3B 8191   1.175   5.173   9.682 -0.0582 -0.2243  0.1631
  512loPI   C4B 8192   1.219   5.227   9.297 -0.3161  0.0222 -0.0368
  513loPI    C1 8193   3.270   0.903  11.605  0.0442  0.1038  0.0779
  513loPI    C2 8194   3.598   0.818  11.818 -0.2085 -0.1147  0.3904
  513loPI    C3 8195   3.273   0.962  12.001 -0.2584  0.1957  0.0688
  513loPI   PO4 8196   3.263   1.144  11.432 -0.4358 -0.0557 -0.1666
  513loPI   GL1 8197   2.995   1.395  11.145 -0.1934  0.1061 -0.1956
  513loPI   GL2 8198   2.739   1.501  11.070  0.1085 -0.0691  0.0644
  513loPI   C1A 8199   3.103   1.234  10.803  0.0508 -0.1837  0.0930
  513loPI   C2A 8200   2.988   1.056  10.465 -0.2112 -0.1734 -0.0255
  513loPI   C3A 8201   2.939   1.112  10.048  0.0242  0.2130 -0.2163
  513loPI   C4A 8202   2.927   1.266   9.653 -0.0334 -0.0827  0.0980
  513loPI   C5A 8203   2.946   1.277   9.201  0.0218  0.0973 -0.1503
  513loPI   C6A 8204   2.850   1.149   8.855  0.0100  0.0105 -0.3142
  513loPI   C1B 8205   2.592   1.546  10.710  0.3172  0.3441  0.1251
  513loPI   C2B 8206   2.500   1.426  10.293 -0.1459 -0.0786 -0.2989
  513loPI   C3B 8207   2.561   1.525   9.927  0.1989 -0.0771  0.0314
  513loPI   C4B 8208   2.579   1.564   9.463  0.3530  0.0913 -0.0566
  514loPI    C1 8209   4.886   0.439  11.539  0.0449 -0.0264  0.0099
  514loPI    C2 8210   4.808   0.109  11.750 -0.0619  0.0291  0.0578
  514loPI    C3 8211   5.038   0.087  11.425 -0.0899 -0.0970  0.0457
  514loPI   PO4 8212   4.586   0.554  11.500  0.0894 -0.0903  0.0195
  514loPI   GL1 8213   4.313   0.533  11.132  0.1672  0.1209  0.0505
  514loPI   GL2 8214   4.024   0.708  11.046 -0.2148 -0.0108  0.1100
  514loPI   C1A 8215   4.256   0.483  10.640 -0.0089  0.4335 -0.0477
  514loPI   C2A 8216   4.157   0.543  10.237  0.1836  0.1894 -0.1609
  514loPI   C3A 8217   4.145   0.556   9.769  0.0370  0.0867 -0.1382
  514loPI   C4A 8218   4.092   0.650   9.352  0.2351 -0.0886  0.1261
  514loPI   C5A 8219   4.144   0.554   8.824 -0.0505  0.1062  0.0591
  514loPI   C6A 8220   3.786   0.314   8.759 -0.0504 -0.0936  0.1203
  514loPI   C1B 8221   3.795   0.824  10.618  0.0205  0.2045  0.2487
  514loPI   C2B 8222   3.821   0.866  10.143 -0.3176  0.0543 -0.1278
  514loPI   C3B 8223   3.847   1.005   9.767  0.0520  0.1182  0.0154
  514loPI   C4B 8224   3.772   1.018   9.416 -0.0068 -0.1939 -0.2001
  515loPI    C1 8225   7.936  15.107  11.629  0.1777  0.1388  0.0628
  515loPI    C2 8226   7.662  15.218  11.359  0.1156  0.0093  0.0718
  515loPI    C3 8227   7.753  15.461  11.664  0.0192  0.0579  0.0623
  515loPI   PO4 8228   8.105  15.122  11.441 -0.0821  0.1748 -0.1629
  515loPI   GL1 8229   8.148  15.144  10.939 -0.1670 -0.0188  0.2101
  515loPI   GL2 8230   8.439  14.957  10.836 -0.1596  0.0731  0.1992
  515loPI   C1A 8231   8.012  15.387  10.645 -0.0966  0.1393  0.2167
  515loPI   C2A 8232   8.043  15.372  10.276 -0.2262 -0.1400 -0.0747
  515loPI   C3A 8233   7.960  15.306   9.846  0.1628 -0.1358 -0.1581
  515loPI   C4A 8234   7.958  15.356   9.438 -0.4019 -0.2517 -0.1625
  515loPI   C5A 8235   8.023  15.391   8.982  0.2108  0.1435  0.3041
  515loPI   C6A 8236   8.032  15.045   8.667  0.3091  0.0219  0.0834
  515loPI   C1B 8237   8.418  14.991  10.390 -0.0301  0.0102  0.0010
  515loPI   C2B 8238   8.403  15.031   9.982 -0.0076  0.3843  0.1088
  515loPI   C3B 8239   8.420  15.009   9.498  0.3558 -0.0866  0.0205
  515loPI   C4B 8240   8.385  15.090   9.056  0.0956  0.0039 -0.1287
  516loPI    C1 8241   4.995  16.880  11.328  0.0558  0.0714  0.0482
  516loPI    C2 8242   5.388  16.807  11.328  0.0400 -0.0227 -0.1874
  516loPI    C3 8243   5.204  16.910  11.668  0.3211  0.3129 -0.1314
  516loPI   PO4 8244   4.965  16.910  11.140  0.2127  0.1416 -0.1824
  516loPI   GL1 8245   5.037  16.628  10.842 -0.0274  0.2276  0.0326
  516loPI   GL2 8246   5.415  16.580  10.880 -0.0957 -0.1164 -0.0008
  516loPI   C1A 8247   5.123  16.696  10.476 -0.1396 -0.0457  0.3224
  516loPI   C2A 8248   5.148  16.721  10.071 -0.4180 -0.1684 -0.2505
  516loPI   C3A 8249   5.147  16.810   9.651 -0.0944 -0.3005 -0.2597
  516loPI   C4A 8250   5.139  16.826   9.208 -0.0725  0.1909 -0.3086
  516loPI   C5A 8251   5.284  16.696   8.783  0.1005  0.0621 -0.1839
  516loPI   C6A 8252   5.487  16.843   8.471 -0.0357  0.0735 -0.2219
  516loPI   C1B 8253   5.491  16.392  10.579  0.1964  0.0628 -0.0782
  516loPI   C2B 8254   5.461  16.301  10.113  0.4571  0.1212 -0.3789
  516loPI   C3B 8255   5.566  16.406   9.657  0.1138 -0.0234 -0.0446
  516loPI   C4B 8256   5.474  16.416   9.239 -0.0588 -0.3537 -0.0990
  517loPI    C1 8257   0.254   3.779  11.535  0.0597 -0.0222 -0.1687
  517loPI    C2 8258   0.238   3.402  11.403  0.0453 -0.0531 -0.0790
  517loPI    C3 8259   0.322   3.476  11.787 -0.0462  0.0316 -0.0751
  517loPI   PO4 8260   0.412   3.908  11.286  0.1095  0.1466  0.1076
  517loPI   GL1 8261   0.362   4.078  10.833 -0.3918 -0.1371 -0.4140
  517loPI   GL2 8262   0.110   4.361  10.663 -0.1034 -0.2904 -0.0030
  517loPI   C1A 8263   0.427   4.057  10.391 -0.1919 -0.0900 -0.3231
  517loPI   C2A 8264   0.391   4.028  10.085  0.0867  0.1224 -0.0439
  517loPI   C3A 8265   0.444   4.076   9.693  0.2275 -0.0519  0.0078
  517loPI   C4A 8266   0.532   4.104   9.265  0.0138 -0.0439 -0.0020
  517loPI   C5A 8267   0.496   4.200   8.834  0.2816 -0.0215  0.0400
  517loPI   C6A 8268   0.504   4.417   8.462  0.0235 -0.1300 -0.1816
  517loPI   C1B 8269   0.018   4.452  10.259 -0.2288 -0.1356  0.1211
  517loPI   C2B 8270   0.045   4.402   9.846  0.1037  0.2224 -0.1392
  517loPI   C3B 8271   0.088   4.378   9.455  0.0131  0.0278 -0.0367
  517loPI   C4B 8272   0.059   4.446   9.025  0.1130 -0.2527 -0.1937
  518loPI    C1 8273   5.170  11.643  11.323  0.4131  0.0570  0.1010
  518loPI    C2 8274   4.884  11.494  11.561 -0.0646  0.1321 -0.4046
  518loPI    C3 8275   5.268  11.478  11.674 -0.2600  0.0264  0.2885
  518loPI   PO4 8276   5.097  11.603  11.067 -0.1653  0.1752 -0.0015
  518loPI   GL1 8277   4.889  11.705  10.639  0.3226 -0.1131 -0.1387
  518loPI   GL2 8278   5.141  11.994  10.723 -0.0723  0.3031  0.0499
  518loPI   C1A 8279   4.900  11.554  10.235 -0.0135 -0.2017  0.1345
  518loPI   C2A 8280   4.940  11.516   9.804  0.0514  0.0353 -0.2182
  518loPI   C3A 8281   4.917  11.473   9.442 -0.2490  0.0785  0.1147
  518loPI   C4A 8282   4.883  11.449   9.042 -0.0470 -0.0354 -0.1597
  518loPI   C5A 8283   4.742  11.626   8.733 -0.1028 -0.0506 -0.2951
  518loPI   C6A 8284   4.556  11.848   8.435  0.1568 -0.1962 -0.0957
  518loPI   C1B 8285   5.044  12.083  10.375 -0.1372 -0.1354 -0.0228
  518loPI   C2B 8286   5.098  12.029   9.895 -0.0016  0.2395  0.0321
  518loPI   C3B 8287   5.022  12.031   9.450  0.1891 -0.0019  0.0157
  518loPI   C4B 8288   4.841  11.995   9.038 -0.1107 -0.2646  0.1336
  519loPI    C1 8289   1.434  15.668  11.344  0.1210  0.1573  0.4079
  519loPI    C2 8290   1.094  15.819  11.491 -0.0722 -0.1285  0.2626
  519loPI    C3 8291   1.274  15.514  11.677 -0.0425 -0.1557  0.1897
  519loPI   PO4 8292   1.552  15.880  11.266  0.1629  0.2796 -0.0406
  519loPI   GL1 8293   1.684  16.101  10.902  0.1196 -0.0890 -0.1288
  519loPI   GL2 8294   1.666  15.763  10.809 -0.2865 -0.1813  0.0506
  519loPI   C1A 8295   1.775  16.223  10.521 -0.0106 -0.0262 -0.0783
  519loPI   C2A 8296   1.805  16.179  10.007  0.0757  0.0566 -0.1971
  519loPI   C3A 8297   1.838  16.128   9.571  0.1779  0.1378  0.1022
  519loPI   C4A 8298   1.934  16.209   9.154 -0.1730 -0.0183 -0.1519
  519loPI   C5A 8299   1.785  16.308   8.721  0.0413  0.0137  0.2374
  519loPI   C6A 8300   1.411  16.445   8.563  0.2560  0.3835 -0.1282
  519loPI   C1B 8301   1.753  15.718  10.453 -0.0369 -0.3841 -0.0176
  519loPI   C2B 8302   1.745  15.658  10.065  0.1309  0.2514 -0.1956
  519loPI   C3B 8303   1.770  15.624   9.631  0.0579 -0.0043  0.0237
  519loPI   C4B 8304   1.783  15.709   9.228 -0.0799  0.1307 -0.0706
  520loPI    C1 8305   2.147   8.795  11.409 -0.3058  0.0169 -0.0534
  520loPI    C2 8306   2.195   8.954  11.772 -0.1314 -0.0122 -0.0631
  520loPI    C3 8307   2.418   8.642  11.659 -0.1631  0.0163 -0.2065
  520loPI   PO4 8308   2.214   8.957  11.175 -0.5011 -0.1589  0.0579
  520loPI   GL1 8309   2.180   8.882  10.743 -0.1065  0.3178 -0.3332
  520loPI   GL2 8310   2.495   8.810  10.685 -0.2582  0.1315  0.0407
  520loPI   C1A 8311   1.926   8.793  10.431 -0.2847  0.1374  0.2447
  520loPI   C2A 8312   2.025   8.773   9.986  0.0735  0.0996  0.2613
  520loPI   C3A 8313   2.004   8.791   9.581 -0.0662 -0.1823 -0.0195
  520loPI   C4A 8314   1.913   8.780   9.169  0.2234 -0.2500 -0.0633
  520loPI   C5A 8315   1.930   8.797   8.705 -0.0741 -0.0174  0.1830
  520loPI   C6A 8316   2.190   8.513   8.358  0.0122  0.0552 -0.2112
  520loPI   C1B 8317   2.418   8.892  10.269  0.1716  0.1771 -0.2346
  520loPI   C2B 8318   2.447   8.985   9.865  0.2698 -0.1892 -0.1194
  520loPI   C3B 8319   2.448   8.984   9.403 -0.1149  0.2098  0.1734
  520loPI   C4B 8320   2.457   8.927   9.059  0.0846  0.1678 -0.1006
  521loPI    C1 8321  14.087  14.154  11.440 -0.1978  0.2517  0.0087
  521loPI    C2 8322  13.795  13.950  11.258  0.1507 -0.0429 -0.2351
  521loPI    C3 8323  14.094  13.754  11.436  0.0246  0.2493  0.3208
  521loPI   PO4 8324  14.117  14.351  11.248 -0.0323 -0.0847 -0.0661
  521loPI   GL1 8325  14.239  14.395  10.866 -0.2597 -0.0548  0.1014
  521loPI   GL2 8326  13.834  14.287  10.843 -0.3215  0.0968  0.1681
  521loPI   C1A 8327  14.269  14.483  10.470 -0.3157  0.0213  0.1281
  521loPI   C2A 8328  14.195  14.553  10.092 -0.0331  0.2715 -0.2668
  521loPI   C3A 8329  14.179  14.552   9.671 -0.3135 -0.1590  0.5769
  521loPI   C4A 8330  14.255  14.507   9.225 -0.0661 -0.2772 -0.3379
  521loPI   C5A 8331  13.981  14.479   8.934 -0.0734 -0.0647 -0.0345
  521loPI   C6A 8332  13.744  14.500   8.602  0.0490  0.2182  0.0513
  521loPI   C1B 8333  13.782  14.312  10.410 -0.1077  0.0727 -0.2070
  521loPI   C2B 8334  13.699  14.387  10.015 -0.3338 -0.0116 -0.2349
  521loPI   C3B 8335  13.681  14.384   9.736  0.2315  0.0278 -0.0645
  521loPI   C4B 8336  13.780  14.372   9.395 -0.0558  0.0557 -0.1222
  522loPI    C1 8337  13.777  15.838  11.614  0.0630  0.0027 -0.1358
  522loPI    C2 8338  13.980  16.179  11.569 -0.1701  0.1738  0.0820
  522loPI    C3 8339  14.041  15.951  11.892  0.1360 -0.1003 -0.1628
  522loPI   PO4 8340  13.788  15.703  11.459 -0.0023 -0.0698 -0.1327
  522loPI   GL1 8341  13.946  15.757  11.094 -0.1778 -0.3186  0.1069
  522loPI   GL2 8342  13.709  16.022  11.081  0.3086 -0.1280 -0.1288
  522loPI   C1A 8343  14.048  15.744  10.684  0.0859 -0.1947  0.2527
  522loPI   C2A 8344  14.053  15.825  10.339  0.4973 -0.1629 -0.0119
  522loPI   C3A 8345  13.998  15.874   9.916  0.0767  0.0352  0.2511
  522loPI   C4A 8346  14.123  15.845   9.477 -0.0111  0.2477  0.0188
  522loPI   C5A 8347  14.058  15.977   9.040 -0.2932  0.0639  0.0769
  522loPI   C6A 8348  13.890  15.819   8.589 -0.0375 -0.2885 -0.4735
  522loPI   C1B 8349  13.721  16.115  10.707  0.1847 -0.1587  0.2479
  522loPI   C2B 8350  13.679  16.182  10.320  0.0516  0.1547  0.1295
  522loPI   C3B 8351  13.646  16.215   9.899 -0.1763 -0.0264  0.0946
  522loPI   C4B 8352  13.745  16.233   9.434  0.0375  0.1941  0.0166
  523loPI    C1 8353   9.308  17.393  11.538 -0.2811 -0.0880  0.0378
  523loPI    C2 8354   8.977  17.611  11.594 -0.1390  0.0792  0.2374
  523loPI    C3 8355   9.337  17.785  11.608 -0.0478 -0.0656 -0.1735
  523loPI   PO4 8356   9.223  17.267  11.380 -0.3420 -0.0773  0.0431
  523loPI   GL1 8357   8.900  17.284  11.041  0.1631 -0.1183 -0.0857
  523loPI   GL2 8358   9.255  17.220  10.887  0.0564 -0.1456 -0.2870
  523loPI   C1A 8359   8.853  16.965  10.640 -0.2679 -0.2717 -0.1245
  523loPI   C2A 8360   8.857  16.976  10.176  0.0419  0.0460  0.2207
  523loPI   C3A 8361   8.766  17.040   9.715  0.3430  0.2472  0.1157
  523loPI   C4A 8362   8.858  17.033   9.274 -0.0148 -0.1520  0.2099
  523loPI   C5A 8363   8.741  17.198   8.876  0.2737 -0.0968  0.1076
  523loPI   C6A 8364   8.604  17.306   8.614 -0.0097  0.4866 -0.0232
  523loPI   C1B 8365   9.329  17.148  10.483 -0.1774 -0.0384 -0.0906
  523loPI   C2B 8366   9.304  17.101  10.032 -0.0177 -0.4742  0.0645
  523loPI   C3B 8367   9.332  17.251   9.592  0.3581 -0.1709 -0.0054
  523loPI   C4B 8368   9.298  17.274   9.123 -0.2326  0.0908 -0.1394
  524loPI    C1 8369  11.745  16.655  11.700 -0.1315  0.0422 -0.1646
  524loPI    C2 8370  11.569  16.966  11.879  0.0420  0.1098 -0.1090
  524loPI    C3 8371  11.776  16.701  12.096 -0.1493 -0.0751 -0.1493
  524loPI   PO4 8372  11.634  16.598  11.506  0.2708  0.0947  0.0646
  524loPI   GL1 8373  11.519  16.484  11.101  0.3843  0.0116 -0.1714
  524loPI   GL2 8374  11.733  16.671  11.059 -0.0216 -0.1660  0.0693
  524loPI   C1A 8375  11.415  16.404  10.672 -0.1341  0.0575 -0.1082
  524loPI   C2A 8376  11.416  16.393  10.230  0.0638 -0.1554  0.1020
  524loPI   C3A 8377  11.412  16.434   9.801  0.0199 -0.0669  0.2355
  524loPI   C4A 8378  11.433  16.401   9.400  0.2610  0.1706  0.1312
  524loPI   C5A 8379  11.609  16.474   8.859 -0.3049 -0.0600  0.2894
  524loPI   C6A 8380  11.587  16.646   8.479 -0.0982  0.1340  0.1367
  524loPI   C1B 8381  11.873  16.543  10.725  0.2933 -0.0073  0.1065
  524loPI   C2B 8382  11.889  16.546  10.244 -0.3410  0.3145 -0.1299
  524loPI   C3B 8383  11.951  16.593   9.837  0.1143  0.0597  0.1723
  524loPI   C4B 8384  11.882  16.617   9.328 -0.0473 -0.1523 -0.0825
  525loPI    C1 8385  15.800   3.252  11.694 -0.0831  0.0208 -0.1001
  525loPI    C2 8386  16.030   3.403  11.984  0.0725 -0.1075 -0.1551
  525loPI    C3 8387  15.832   3.060  12.044 -0.2436  0.0895 -0.0467
  525loPI   PO4 8388  16.012   3.281  11.438 -0.1634 -0.1181 -0.2021
  525loPI   GL1 8389  15.993   3.400  10.928  0.2672 -0.2448  0.2075
  525loPI   GL2 8390  15.708   3.292  10.758  0.0972  0.1495 -0.1379
  525loPI   C1A 8391  16.186   3.413  10.557  0.1747  0.2070 -0.0884
  525loPI   C2A 8392  16.192   3.465  10.119  0.0579 -0.2376 -0.1541
  525loPI   C3A 8393  16.264   3.427   9.619  0.0245  0.1333  0.1883
  525loPI   C4A 8394  16.273   3.476   9.145 -0.0070  0.0983 -0.2492
  525loPI   C5A 8395  16.039   3.557   8.768 -0.1680 -0.0273  0.1968
  525loPI   C6A 8396  15.699   3.457   8.586 -0.1368  0.0748  0.2510
  525loPI   C1B 8397  15.692   3.284  10.336  0.0274 -0.1264 -0.0424
  525loPI   C2B 8398  15.711   3.327   9.857 -0.0734  0.0024 -0.4716
  525loPI   C3B 8399  15.848   3.334   9.428  0.1172 -0.1148  0.1337
  525loPI   C4B 8400  15.755   3.386   9.092  0.1096 -0.0692  0.6024
  526loPI    C1 8401   1.149   5.393  11.685  0.1113 -0.2714 -0.0031
  526loPI    C2 8402   0.849   5.482  11.935 -0.0872 -0.2171 -0.2564
  526loPI    C3 8403   1.211   5.642  11.992 -0.1426 -0.1688 -0.0320
  526loPI   PO4 8404   0.921   5.435  11.421 -0.2834  0.1175  0.2434
  526loPI   GL1 8405   0.911   5.243  10.999 -0.1478  0.0777  0.0411
  526loPI   GL2 8406   0.799   5.453  10.918 -0.0623  0.2454 -0.0928
  526loPI   C1A 8407   0.692   5.025  10.630  0.1085  0.0341  0.0188
  526loPI   C2A 8408   0.709   5.040  10.184 -0.5581  0.0320 -0.1570
  526loPI   C3A 8409   0.667   5.029   9.724 -0.0587  0.0263 -0.0475
  526loPI   C4A 8410   0.700   5.116   9.313  0.1703 -0.1632 -0.3911
  526loPI   C5A 8411   0.738   5.118   8.855  0.1808  0.3231  0.1412
  526loPI   C6A 8412   0.951   5.232   8.370  0.2352  0.1653  0.3198
  526loPI   C1B 8413   0.827   5.605  10.431  0.3141  0.3772 -0.0867
  526loPI   C2B 8414   0.766   5.538   9.989 -0.0110 -0.1599  0.1821
  526loPI   C3B 8415   0.753   5.593   9.512 -0.1389 -0.0731 -0.1576
  526loPI   C4B 8416   0.888   5.560   9.060  0.0505 -0.1889 -0.1686
  527loPI    C1 8417   9.337  10.719  11.460  0.1499 -0.1255 -0.2203
  527loPI    C2 8418   8.942  10.771  11.494  0.1280 -0.3841 -0.0578
  527loPI    C3 8419   9.192  10.992  11.714  0.0721 -0.2662 -0.1121
  527loPI   PO4 8420   9.380  10.630  11.184  0.0360 -0.0980  0.3761
  527loPI   GL1 8421   9.197  10.741  10.778  0.1933  0.2738  0.0841
  527loPI   GL2 8422   9.131  10.479  10.681  0.0322  0.1170 -0.1415
  527loPI   C1A 8423   8.823  10.809  10.490 -0.1458 -0.3225 -0.1115
  527loPI   C2A 8424   8.897  10.954  10.070  0.1532  0.1341  0.1059
  527loPI   C3A 8425   8.866  10.993   9.641 -0.2255  0.0840 -0.1248
  527loPI   C4A 8426   8.799  10.985   9.177 -0.1836  0.1912  0.0847
  527loPI   C5A 8427   8.825  10.783   8.780  0.2227 -0.0178  0.0336
  527loPI   C6A 8428   8.809  10.935   8.347  0.1779  0.2319  0.0447
  527loPI   C1B 8429   9.188  10.569  10.201  0.1243 -0.3084  0.0489
  527loPI   C2B 8430   9.239  10.630   9.718 -0.1560 -0.0288 -0.0846
  527loPI   C3B 8431   9.163  10.631   9.285  0.4409 -0.1585  0.0425
  527loPI   C4B 8432   9.340  10.703   8.881  0.1915  0.2425 -0.2370
  528loPI    C1 8433   5.411  12.149  11.508 -0.0740 -0.0775 -0.0298
  528loPI    C2 8434   5.309  12.260  11.878 -0.0322 -0.1553  0.0052
  528loPI    C3 8435   5.134  11.943  11.709 -0.2966  0.0805 -0.1708
  528loPI   PO4 8436   5.429  12.358  11.305 -0.0660  0.3661 -0.1579
  528loPI   GL1 8437   5.518  12.384  10.946 -0.3059 -0.0741 -0.2327
  528loPI   GL2 8438   5.753  12.609  10.831  0.1211 -0.0034 -0.1564
  528loPI   C1A 8439   5.566  12.137  10.563 -0.0945  0.0887 -0.0010
  528loPI   C2A 8440   5.608  12.242  10.157  0.0066  0.1057 -0.0449
  528loPI   C3A 8441   5.499  12.210   9.680  0.0860  0.0005 -0.1681
  528loPI   C4A 8442   5.454  12.279   9.320  0.2849  0.0011 -0.1989
  528loPI   C5A 8443   5.228  12.324   8.932  0.0167 -0.1259 -0.0685
  528loPI   C6A 8444   4.970  12.176   8.596  0.0260  0.0422 -0.1935
  528loPI   C1B 8445   5.748  12.642  10.407  0.1828  0.1029 -0.0435
  528loPI   C2B 8446   5.695  12.724   9.914  0.0694 -0.1623 -0.0629
  528loPI   C3B 8447   5.632  12.740   9.567 -0.0057  0.1382  0.0449
  528loPI   C4B 8448   5.566  12.770   9.126  0.0215 -0.0467  0.0201
  529loPI    C1 8449   5.657  13.754  11.625 -0.0003 -0.2168 -0.1707
  529loPI    C2 8450   5.615  13.493  11.925  0.2968 -0.0323  0.0372
  529loPI    C3 8451   5.545  13.882  11.987 -0.1995 -0.0610 -0.2852
  529loPI   PO4 8452   5.500  13.779  11.433  0.1639  0.0431  0.2638
  529loPI   GL1 8453   5.289  13.780  11.105 -0.0935  0.1058 -0.0819
  529loPI   GL2 8454   5.524  13.998  10.842  0.0493  0.0469 -0.1300
  529loPI   C1A 8455   5.101  13.826  10.728 -0.1069  0.1105  0.1167
  529loPI   C2A 8456   4.996  13.874  10.259  0.1451 -0.2022  0.0487
  529loPI   C3A 8457   4.942  13.926   9.851  0.3856 -0.0067  0.2053
  529loPI   C4A 8458   4.967  13.820   9.393  0.1916 -0.2983 -0.1073
  529loPI   C5A 8459   5.034  13.992   8.946  0.0005  0.0738 -0.2539
  529loPI   C6A 8460   5.366  14.057   8.692 -0.2112  0.1196  0.1381
  529loPI   C1B 8461   5.508  13.979  10.402 -0.1429 -0.0243 -0.0045
  529loPI   C2B 8462   5.453  14.089   9.994 -0.2380  0.1617  0.1205
  529loPI   C3B 8463   5.433  14.144   9.542  0.1047  0.0038 -0.0876
  529loPI   C4B 8464   5.455  14.049   9.188  0.4146 -0.2575 -0.2483
  530loPI    C1 8465   5.217   3.825  11.560 -0.2709  0.0145  0.0175
  530loPI    C2 8466   5.225   4.194  11.713  0.0893  0.0924 -0.1787
  530loPI    C3 8467   5.158   3.881  11.952 -0.1970  0.2798 -0.0074
  530loPI   PO4 8468   5.398   3.944  11.336  0.2600  0.1541 -0.0670
  530loPI   GL1 8469   5.438   3.884  10.958  0.0886  0.0205 -0.1328
  530loPI   GL2 8470   5.184   4.034  10.735 -0.0324 -0.0071 -0.1203
  530loPI   C1A 8471   5.442   3.724  10.514 -0.1089  0.3017  0.1182
  530loPI   C2A 8472   5.413   3.788  10.143 -0.0871  0.0428 -0.0498
  530loPI   C3A 8473   5.373   3.764   9.824 -0.1133 -0.1102 -0.0379
  530loPI   C4A 8474   5.340   3.754   9.278  0.2471 -0.0830  0.1862
  530loPI   C5A 8475   5.387   3.892   8.838 -0.1315  0.1862  0.1603
  530loPI   C6A 8476   5.666   4.127   8.496 -0.0902  0.5869 -0.4011
  530loPI   C1B 8477   5.033   4.125  10.290  0.2684  0.1205 -0.0533
  530loPI   C2B 8478   4.989   4.099   9.806  0.0435  0.2000  0.2927
  530loPI   C3B 8479   5.006   4.095   9.440  0.0263 -0.2624 -0.0453
  530loPI   C4B 8480   5.025   4.221   9.004  0.1086 -0.0704 -0.1972
  531loPI    C1 8481   4.152   0.298  11.634  0.2678  0.0266  0.1766
  531loPI    C2 8482   3.986   0.649  11.537 -0.0081 -0.1775 -0.1130
  531loPI    C3 8483   4.205   0.616  11.870 -0.0586  0.2433 -0.0328
  531loPI   PO4 8484   3.980   0.174  11.386  0.0395 -0.0660 -0.0974
  531loPI   GL1 8485   4.071   0.094  10.984  0.0911  0.1128 -0.2266
  531loPI   GL2 8486   4.339  -0.047  10.762  0.0876 -0.2591 -0.0080
  531loPI   C1A 8487   3.777   0.363  10.801 -0.1380  0.1556 -0.4381
  531loPI   C2A 8488   3.650   0.372  10.326 -0.1853  0.1463 -0.1022
  531loPI   C3A 8489   3.621   0.489   9.893 -0.2515 -0.0931 -0.0073
  531loPI   C4A 8490   3.586   0.443   9.420 -0.0963  0.0285  0.0456
  531loPI   C5A 8491   3.593   0.653   9.054  0.3157  0.1550 -0.2570
  531loPI   C6A 8492   3.748   0.913   8.798  0.0539  0.1046  0.3542
  531loPI   C1B 8493   4.450   0.100  10.356 -0.0096 -0.0162  0.3056
  531loPI   C2B 8494   4.556   0.243   9.937 -0.1741 -0.1887  0.0433
  531loPI   C3B 8495   4.508   0.260   9.430  0.2350  0.2585 -0.1139
  531loPI   C4B 8496   4.519   0.230   9.020 -0.1461  0.1863  0.1231
  532loPI    C1 8497  16.947   7.577  11.424 -0.0269 -0.1937 -0.0689
  532loPI    C2 8498  17.305   7.607  11.601 -0.0847  0.0327  0.0129
  532loPI    C3 8499  16.977   7.544  11.822 -0.0975 -0.1680 -0.0613
  532loPI   PO4 8500  17.001   7.654  11.180  0.1598 -0.1239  0.1832
  532loPI   GL1 8501  16.950   7.304  10.905  0.2661 -0.1226  0.0771
  532loPI   GL2 8502  17.200   7.450  10.717 -0.4529 -0.0083  0.2541
  532loPI   C1A 8503  16.679   7.316  10.487  0.2571  0.0651 -0.3291
  532loPI   C2A 8504  16.753   7.317  10.053  0.1169  0.0715 -0.1468
  532loPI   C3A 8505  16.709   7.321   9.629  0.0409 -0.0708 -0.1453
  532loPI   C4A 8506  16.669   7.297   9.194  0.1275  0.0633 -0.1838
  532loPI   C5A 8507  16.549   7.486   8.751 -0.1156  0.0665 -0.0920
  532loPI   C6A 8508  16.309   7.582   8.516 -0.3170  0.1281 -0.0278
  532loPI   C1B 8509  17.246   7.492  10.248 -0.0131 -0.2210 -0.1210
  532loPI   C2B 8510  17.153   7.479   9.748  0.0523  0.2081  0.0927
  532loPI   C3B 8511  17.231   7.497   9.290 -0.2636  0.1095 -0.1453
  532loPI   C4B 8512  17.229   7.458   8.862 -0.0892  0.1585  0.0195
  533loPI    C1 8513   0.572   4.559  11.564  0.1065  0.1946  0.1146
  533loPI    C2 8514   0.330   4.255  11.661  0.3570 -0.0487 -0.0086
  533loPI    C3 8515   0.626   4.361  11.908  0.1319  0.2474  0.1410
  533loPI   PO4 8516   0.366   4.707  11.420  0.1768  0.1536  0.3867
  533loPI   GL1 8517   0.425   4.676  10.955 -0.0101 -0.0760  0.2330
  533loPI   GL2 8518   0.240   4.855  10.897 -0.1873  0.2163 -0.0074
  533loPI   C1A 8519   0.570   4.531  10.594 -0.2100  0.0274 -0.0396
  533loPI   C2A 8520   0.597   4.487  10.228  0.1038  0.2659  0.2140
  533loPI   C3A 8521   0.605   4.528   9.810  0.1179  0.1380  0.0894
  533loPI   C4A 8522   0.600   4.552   9.475 -0.1040  0.1537  0.1734
  533loPI   C5A 8523   0.609   4.655   9.108  0.2568 -0.0784  0.3002
  533loPI   C6A 8524   0.314   4.851   8.779  0.3129 -0.1459  0.0301
  533loPI   C1B 8525   0.213   4.940  10.444 -0.1411 -0.0978 -0.2029
  533loPI   C2B 8526   0.260   4.841  10.027  0.0251 -0.2313  0.2198
  533loPI   C3B 8527   0.191   4.872   9.658  0.0357  0.0512 -0.0660
  533loPI   C4B 8528   0.233   4.934   9.239  0.3865 -0.1922  0.0902
  534loPI    C1 8529   5.899   5.102  11.570 -0.0143 -0.2161 -0.1112
  534loPI    C2 8530   5.655   4.818  11.710 -0.0904 -0.0854  0.0247
  534loPI    C3 8531   5.800   5.097  11.957  0.0008 -0.0181 -0.1039
  534loPI   PO4 8532   6.024   5.065  11.410 -0.0658 -0.1724 -0.0992
  534loPI   GL1 8533   5.968   5.087  10.941 -0.2648  0.0874 -0.0625
  534loPI   GL2 8534   6.195   4.779  10.739  0.0705 -0.1217 -0.0016
  534loPI   C1A 8535   5.798   5.195  10.523 -0.0800  0.2316  0.1756
  534loPI   C2A 8536   5.686   5.264  10.070 -0.1194  0.0441  0.0828
  534loPI   C3A 8537   5.625   5.355   9.680 -0.1393 -0.1299 -0.0064
  534loPI   C4A 8538   5.710   5.280   9.251 -0.3660  0.1017  0.2405
  534loPI   C5A 8539   5.910   5.416   8.900  0.3211  0.0211 -0.2264
  534loPI   C6A 8540   5.888   5.119   8.570  0.2119 -0.0268  0.2063
  534loPI   C1B 8541   6.131   4.883  10.375 -0.1229  0.3637  0.1010
  534loPI   C2B 8542   6.074   4.836  10.010 -0.1053  0.1246  0.3500
  534loPI   C3B 8543   6.022   4.911   9.583 -0.1175  0.2878 -0.0002
  534loPI   C4B 8544   6.154   5.017   9.231 -0.3357  0.1240 -0.3861
  535loPI    C1 8545  15.158   6.276  11.426 -0.0634  0.1237  0.1221
  535loPI    C2 8546  14.789   6.294  11.274 -0.0140 -0.3313 -0.0664
  535loPI    C3 8547  14.844   6.324  11.669 -0.2400 -0.1535 -0.0460
  535loPI   PO4 8548  15.288   6.067  11.280  0.3247  0.1676  0.1937
  535loPI   GL1 8549  15.411   6.057  10.852 -0.0188 -0.0436  0.1297
  535loPI   GL2 8550  15.386   5.926  10.636 -0.0259 -0.1481 -0.1668
  535loPI   C1A 8551  15.541   6.528  10.592  0.1389  0.0143 -0.0541
  535loPI   C2A 8552  15.648   6.639  10.250 -0.0255 -0.0019 -0.2397
  535loPI   C3A 8553  15.661   6.494   9.809  0.3977  0.1160  0.2687
  535loPI   C4A 8554  15.527   6.618   9.454  0.0108 -0.0163  0.2354
  535loPI   C5A 8555  15.481   6.607   9.041 -0.1875  0.1031  0.0666
  535loPI   C6A 8556  15.359   6.734   8.704 -0.0838  0.1269 -0.2074
  535loPI   C1B 8557  15.421   5.947  10.185  0.1848 -0.2674  0.3642
  535loPI   C2B 8558  15.477   6.016   9.800  0.0364  0.1090  0.0963
  535loPI   C3B 8559  15.420   5.992   9.348 -0.0154 -0.0968  0.2358
  535loPI   C4B 8560  15.420   6.157   8.855  0.2982  0.1468 -0.1297
  536loPI    C1 8561   5.110   1.442  11.364  0.1155 -0.0726  0.2214
  536loPI    C2 8562   5.185   1.641  11.703  0.1533  0.0488  0.1422
  536loPI    C3 8563   5.262   1.250  11.680  0.0193  0.0111  0.3194
  536loPI   PO4 8564   5.180   1.492  11.203 -0.0470 -0.1358  0.1825
  536loPI   GL1 8565   5.148   1.295  10.861  0.1988  0.0607 -0.0734
  536loPI   GL2 8566   4.920   1.083  10.677  0.0713 -0.1957 -0.0924
  536loPI   C1A 8567   5.337   1.348  10.493  0.1323  0.0174 -0.1117
  536loPI   C2A 8568   5.275   1.383  10.094  0.0601  0.2764  0.2155
  536loPI   C3A 8569   5.262   1.300   9.532 -0.1505 -0.1564 -0.3126
  536loPI   C4A 8570   5.113   1.438   9.159 -0.0360  0.1985  0.1381
  536loPI   C5A 8571   5.134   1.554   8.743 -0.0714 -0.0279  0.2237
  536loPI   C6A 8572   5.188   1.672   8.273  0.2529 -0.0953  0.1019
  536loPI   C1B 8573   4.798   1.241  10.274  0.1991  0.1855 -0.1275
  536loPI   C2B 8574   4.840   1.247   9.789 -0.1226  0.0075 -0.1308
  536loPI   C3B 8575   4.702   1.208   9.321  0.0443 -0.2492  0.2782
  536loPI   C4B 8576   4.716   1.295   8.931  0.3836 -0.0501 -0.2381
  537loPI    C1 8577   9.985  13.476  11.399  0.0014  0.0763  0.1023
  537loPI    C2 8578  10.241  13.532  11.701  0.1018  0.1569  0.0035
  537loPI    C3 8579  10.033  13.191  11.675  0.0278  0.1843  0.2105
  537loPI   PO4 8580  10.051  13.489  11.148 -0.1824 -0.1043 -0.0392
  537loPI   GL1 8581  10.097  13.728  10.883 -0.1800  0.1153 -0.5354
  537loPI   GL2 8582   9.865  13.616  10.661 -0.0901 -0.2720 -0.2896
  537loPI   C1A 8583  10.373  13.670  10.501  0.0763 -0.3352 -0.4019
  537loPI   C2A 8584  10.406  13.699  10.094  0.0437 -0.2201 -0.0646
  537loPI   C3A 8585  10.430  13.722   9.614  0.0788 -0.1426 -0.1410
  537loPI   C4A 8586  10.403  13.728   9.218  0.2315 -0.0273 -0.0592
  537loPI   C5A 8587  10.379  13.682   8.771  0.0261 -0.1210  0.2741
  537loPI   C6A 8588  10.591  13.509   8.423 -0.1989 -0.2281 -0.1101
  537loPI   C1B 8589   9.947  13.566  10.204  0.0510 -0.2360 -0.2117
  537loPI   C2B 8590   9.974  13.603   9.786 -0.0190  0.1338 -0.2397
  537loPI   C3B 8591   9.852  13.663   9.405  0.2237  0.1552  0.1173
  537loPI   C4B 8592   9.947  13.626   9.030 -0.2196  0.0960 -0.0815
  538loPI    C1 8593  12.694   4.602  11.204  0.0911  0.2695 -0.1875
  538loPI    C2 8594  12.877   4.787  11.508 -0.0258  0.1011 -0.0123
  538loPI    C3 8595  12.883   4.949  11.142  0.2629  0.2190  0.0423
  538loPI   PO4 8596  12.778   4.385  11.190 -0.2068 -0.1190  0.0111
  538loPI   GL1 8597  12.698   4.162  10.746 -0.1297  0.1368  0.1755
  538loPI   GL2 8598  12.620   3.809  10.700 -0.0717 -0.1387  0.2187
  538loPI   C1A 8599  12.769   4.246  10.307 -0.0422 -0.1235  0.1560
  538loPI   C2A 8600  12.651   4.212   9.989 -0.0716 -0.1084 -0.1364
  538loPI   C3A 8601  12.789   4.159   9.521 -0.1475 -0.0155 -0.2541
  538loPI   C4A 8602  12.851   4.200   9.083 -0.1192 -0.3240 -0.2439
  538loPI   C5A 8603  12.696   4.283   8.700  0.1737  0.0142 -0.1064
  538loPI   C6A 8604  12.735   4.536   8.353  0.2103 -0.0183  0.2315
  538loPI   C1B 8605  12.644   3.682  10.241 -0.0615 -0.0073  0.2162
  538loPI   C2B 8606  12.634   3.641   9.819 -0.0187 -0.4050  0.2322
  538loPI   C3B 8607  12.625   3.649   9.397  0.0689  0.0859  0.0588
  538loPI   C4B 8608  12.659   3.738   8.967  0.0117 -0.1162  0.1066
  539loPI    C1 8609  10.081  10.533  11.672 -0.2303 -0.0937  0.1521
  539loPI    C2 8610   9.997  10.174  11.827 -0.0335 -0.0960  0.2564
  539loPI    C3 8611  10.082  10.482  12.068 -0.0500 -0.0173  0.1624
  539loPI   PO4 8612  10.191  10.359  11.405 -0.0680  0.3637 -0.0329
  539loPI   GL1 8613  10.322  10.465  10.997  0.2645 -0.1126 -0.1282
  539loPI   GL2 8614  10.610  10.409  10.849 -0.0810 -0.0598  0.0804
  539loPI   C1A 8615  10.096  10.444  10.639 -0.0211  0.1837  0.1276
  539loPI   C2A 8616  10.114  10.323  10.247  0.1998 -0.1241  0.0324
  539loPI   C3A 8617  10.105  10.403   9.753 -0.1182  0.2320  0.0719
  539loPI   C4A 8618  10.088  10.460   9.332  0.1349  0.2489  0.2885
  539loPI   C5A 8619  10.060  10.385   8.975 -0.1143 -0.1231  0.2875
  539loPI   C6A 8620  10.365  10.284   8.601  0.0025  0.0606 -0.1119
  539loPI   C1B 8621  10.616  10.572  10.418 -0.4135  0.2538  0.0479
  539loPI   C2B 8622  10.621  10.470   9.936  0.1460 -0.0185 -0.1898
  539loPI   C3B 8623  10.630  10.497   9.486 -0.0886  0.1280 -0.1515
  539loPI   C4B 8624  10.523  10.597   9.008  0.1972  0.0318  0.1525
  540loPI    C1 8625   2.699  11.072  11.338  0.0004  0.1942 -0.0796
  540loPI    C2 8626   2.609  10.942  10.971 -0.1345  0.0391  0.0071
  540loPI    C3 8627   2.321  10.980  11.246 -0.0113  0.0115  0.1412
  540loPI   PO4 8628   2.852  11.191  11.296  0.0784  0.1813  0.0194
  540loPI   GL1 8629   3.051  11.186  10.856  0.1709 -0.0780  0.0549
  540loPI   GL2 8630   3.068  11.487  10.629  0.0603  0.0222 -0.0320
  540loPI   C1A 8631   2.894  10.964  10.495  0.1388 -0.0719 -0.2441
  540loPI   C2A 8632   2.970  10.905  10.085 -0.2735  0.0872 -0.1688
  540loPI   C3A 8633   2.855  10.966   9.614 -0.0528  0.0849  0.1004
  540loPI   C4A 8634   2.934  11.002   9.247 -0.2084  0.0052 -0.2631
  540loPI   C5A 8635   2.991  10.918   8.783  0.3710 -0.3231 -0.4455
  540loPI   C6A 8636   2.741  10.730   8.468 -0.3188 -0.1966 -0.2119
  540loPI   C1B 8637   3.039  11.396  10.233  0.0059  0.1157  0.1007
  540loPI   C2B 8638   3.002  11.456   9.704 -0.2167 -0.0281 -0.0873
  540loPI   C3B 8639   2.994  11.548   9.269  0.0778 -0.1437  0.5663
  540loPI   C4B 8640   2.998  11.426   8.836  0.0572 -0.0086  0.0448
  541loPI    C1 8641   3.516  16.640  11.756 -0.0521  0.1744  0.2096
  541loPI    C2 8642   3.151  16.498  11.837  0.0395 -0.2529 -0.0917
  541loPI    C3 8643   3.442  16.469  12.110 -0.1279  0.0270  0.1231
  541loPI   PO4 8644   3.606  16.503  11.476 -0.1594 -0.1229 -0.4016
  541loPI   GL1 8645   3.509  16.683  10.982 -0.5753 -0.2654  0.2380
  541loPI   GL2 8646   3.810  16.634  10.903  0.2180  0.2405 -0.0025
  541loPI   C1A 8647   3.286  16.534  10.557 -0.1709  0.2215 -0.2104
  541loPI   C2A 8648   3.149  16.551  10.108 -0.2365 -0.1087  0.0386
  541loPI   C3A 8649   3.302  16.619   9.681 -0.0068  0.0728 -0.0156
  541loPI   C4A 8650   3.277  16.716   9.250  0.1329  0.0343 -0.1618
  541loPI   C5A 8651   3.414  16.832   8.856 -0.2393 -0.0723 -0.3218
  541loPI   C6A 8652   3.492  17.041   8.480  0.1277  0.1506  0.0678
  541loPI   C1B 8653   3.809  16.686  10.429  0.1084  0.1681 -0.0327
  541loPI   C2B 8654   3.724  16.679   9.968 -0.0314  0.2281 -0.3395
  541loPI   C3B 8655   3.744  16.792   9.528  0.1253  0.3216  0.0576
  541loPI   C4B 8656   3.782  16.855   9.162 -0.0250  0.0114 -0.1007
  542loPI    C1 8657   5.135  10.680  11.514 -0.1150 -0.1728 -0.1655
  542loPI    C2 8658   5.467  10.510  11.660  0.0099  0.0890 -0.1376
  542loPI    C3 8659   5.145  10.554  11.894  0.0503  0.0860 -0.0813
  542loPI   PO4 8660   5.075  10.552  11.260  0.2006  0.0224  0.0553
  542loPI   GL1 8661   5.018  10.443  10.895  0.0625 -0.1193  0.0543
  542loPI   GL2 8662   5.238  10.683  10.749  0.2624  0.0901  0.1396
  542loPI   C1A 8663   5.016  10.169  10.522  0.1756 -0.2342  0.0169
  542loPI   C2A 8664   5.026  10.115  10.132 -0.1072 -0.0239  0.0621
  542loPI   C3A 8665   5.022  10.160   9.665  0.5813  0.0385 -0.1067
  542loPI   C4A 8666   5.060  10.260   9.198  0.0752 -0.4394 -0.0517
  542loPI   C5A 8667   5.088  10.220   8.759 -0.1528  0.0796  0.1140
  542loPI   C6A 8668   4.885  10.039   8.415 -0.1227 -0.1208  0.1063
  542loPI   C1B 8669   5.148  10.689  10.221 -0.0706 -0.1855  0.1400
  542loPI   C2B 8670   5.127  10.644   9.817  0.0154  0.1135 -0.2122
  542loPI   C3B 8671   5.162  10.677   9.390 -0.3346 -0.0018 -0.1635
  542loPI   C4B 8672   5.120  10.701   8.988 -0.2769 -0.2246  0.0187
  543loPI    C1 8673  14.506  12.988  11.485  0.0316 -0.3608  0.1131
  543loPI    C2 8674  14.840  13.099  11.296 -0.1350  0.0513  0.0506
  543loPI    C3 8675  14.785  13.198  11.680 -0.2183  0.0521  0.0386
  543loPI   PO4 8676  14.375  12.938  11.330 -0.0886  0.2288 -0.0248
  543loPI   GL1 8677  14.405  13.048  10.899  0.1604 -0.0911 -0.2023
  543loPI   GL2 8678  14.331  13.364  10.954 -0.2846  0.1652 -0.1631
  543loPI   C1A 8679  14.378  13.090  10.511  0.4021 -0.1690 -0.1396
  543loPI   C2A 8680  14.378  13.128  10.021 -0.0969 -0.1022 -0.2093
  543loPI   C3A 8681  14.339  13.121   9.577 -0.1523 -0.0448  0.3291
  543loPI   C4A 8682  14.396  13.207   9.219 -0.0978  0.1541 -0.1473
  543loPI   C5A 8683  14.391  13.237   8.771  0.0269  0.0253  0.1667
  543loPI   C6A 8684  14.327  13.148   8.421  0.0744 -0.3105 -0.0065
  543loPI   C1B 8685  14.459  13.591  10.566  0.3239 -0.0364 -0.0196
  543loPI   C2B 8686  14.404  13.592  10.183  0.0582  0.0159  0.0181
  543loPI   C3B 8687  14.519  13.650   9.840 -0.1643  0.0755  0.4131
  543loPI   C4B 8688  14.437  13.643   9.463 -0.1915 -0.1286  0.0703
  544loPI    C1 8689  11.579   2.163  11.429 -0.0287  0.0288 -0.0724
  544loPI    C2 8690  11.625   2.107  11.823  0.2834  0.2107 -0.0802
  544loPI    C3 8691  11.451   2.441  11.687 -0.1080  0.0087 -0.0896
  544loPI   PO4 8692  11.591   2.000  11.260  0.0702  0.1019  0.3245
  544loPI   GL1 8693  11.675   1.827  10.900  0.2462 -0.0802 -0.0574
  544loPI   GL2 8694  11.395   2.009  10.796  0.0028 -0.3405  0.1769
  544loPI   C1A 8695  11.646   1.584  10.484 -0.2090 -0.0414 -0.0697
  544loPI   C2A 8696  11.629   1.576   9.968 -0.0392 -0.0491 -0.0189
  544loPI   C3A 8697  11.685   1.583   9.553  0.0959  0.1556 -0.2355
  544loPI   C4A 8698  11.600   1.573   9.194  0.0866 -0.1501  0.3895
  544loPI   C5A 8699  11.656   1.734   8.770  0.1510 -0.1316 -0.1301
  544loPI   C6A 8700  12.084   1.844   8.487  0.0544 -0.0083 -0.0179
  544loPI   C1B 8701  11.309   1.947  10.369 -0.3695 -0.1147  0.3825
  544loPI   C2B 8702  11.280   1.879   9.889 -0.0288 -0.1871  0.2659
  544loPI   C3B 8703  11.300   1.920   9.448  0.1238 -0.1490 -0.4469
  544loPI   C4B 8704  11.327   2.001   9.049 -0.2314 -0.2297 -0.0768
  545loPI    C1 8705   7.052   1.627  11.462 -0.2215 -0.0720  0.0681
  545loPI    C2 8706   6.810   1.360  11.638  0.1926 -0.2944  0.3169
  545loPI    C3 8707   7.063   1.577  11.859 -0.1285  0.3095  0.1171
  545loPI   PO4 8708   6.990   1.631  11.220  0.0199  0.0344  0.0023
  545loPI   GL1 8709   6.963   1.452  10.813  0.2942  0.2286 -0.1080
  545loPI   GL2 8710   6.598   1.310  10.546 -0.0453  0.2698 -0.2259
  545loPI   C1A 8711   7.030   1.491  10.370 -0.0227 -0.1674 -0.0224
  545loPI   C2A 8712   7.018   1.447   9.979  0.2051  0.1028  0.0880
  545loPI   C3A 8713   7.106   1.603   9.552 -0.0978  0.0847 -0.1151
  545loPI   C4A 8714   7.016   1.636   9.141 -0.3602 -0.1036  0.0652
  545loPI   C5A 8715   6.921   1.587   8.660 -0.0317 -0.0047  0.1053
  545loPI   C6A 8716   6.809   1.645   8.257  0.0075 -0.1028 -0.0159
  545loPI   C1B 8717   6.551   1.393  10.167  0.0843 -0.0286  0.0423
  545loPI   C2B 8718   6.634   1.347   9.739 -0.1540  0.1163  0.1576
  545loPI   C3B 8719   6.563   1.466   9.249 -0.1467  0.0436  0.1250
  545loPI   C4B 8720   6.468   1.365   8.758 -0.0389 -0.0453 -0.0577
  546loPI    C1 8721   0.089   7.782  11.463 -0.0084 -0.1394 -0.0924
  546loPI    C2 8722   0.399   7.688  11.697  0.2106 -0.2552 -0.4220
  546loPI    C3 8723   0.026   7.630  11.827  0.3206 -0.0184  0.0192
  546loPI   PO4 8724   0.106   7.787  11.232 -0.0684  0.1570  0.0247
  546loPI   GL1 8725   0.126   7.610  10.852  0.0464  0.0328 -0.0945
  546loPI   GL2 8726  -0.010   7.668  10.713 -0.1596  0.0450 -0.3516
  546loPI   C1A 8727   0.405   7.756  10.462 -0.0572  0.2591  0.1708
  546loPI   C2A 8728   0.400   7.800  10.059 -0.0487 -0.0484  0.0089
  546loPI   C3A 8729   0.365   7.808   9.629 -0.2764 -0.1759 -0.0724
  546loPI   C4A 8730   0.435   7.827   9.206 -0.2213 -0.2371 -0.0698
  546loPI   C5A 8731   0.415   7.803   8.740 -0.0430 -0.0970 -0.3196
  546loPI   C6A 8732   0.134   7.638   8.313  0.1163 -0.2175  0.1755
  546loPI   C1B 8733  -0.033   7.640  10.287  0.0292 -0.0808  0.3312
  546loPI   C2B 8734  -0.076   7.697   9.846 -0.0543 -0.0489  0.0535
  546loPI   C3B 8735   0.000   7.669   9.373  0.0697 -0.3035  0.2051
  546loPI   C4B 8736  -0.035   7.625   8.911 -0.2601 -0.0743 -0.2439
  547loPI    C1 8737   3.082   8.838  11.437  0.2318  0.0513  0.0816
  547loPI    C2 8738   2.708   8.980  11.457  0.2014  0.0017 -0.1140
  547loPI    C3 8739   2.982   9.098  11.724  0.0543  0.0615  0.0117
  547loPI   PO4 8740   3.019   8.865  11.112 -0.3478  0.2790 -0.3807
  547loPI   GL1 8741   2.961   8.879  10.789 -0.1154  0.2018 -0.2047
  547loPI   GL2 8742   2.945   8.560  10.734  0.0348  0.0283  0.0672
  547loPI   C1A 8743   2.937   8.981  10.370 -0.0875  0.2795  0.1052
  547loPI   C2A 8744   2.915   9.153  10.055 -0.3140 -0.1591  0.2793
  547loPI   C3A 8745   2.897   9.055   9.687  0.0079 -0.0965  0.0094
  547loPI   C4A 8746   2.911   9.136   9.234 -0.3053  0.2826  0.3050
  547loPI   C5A 8747   2.872   9.094   8.790 -0.1375  0.1919 -0.1241
  547loPI   C6A 8748   3.075   9.135   8.324 -0.3607  0.1828 -0.1489
  547loPI   C1B 8749   2.857   8.471  10.299  0.0988 -0.3205 -0.1038
  547loPI   C2B 8750   2.828   8.629   9.931  0.2254 -0.0641  0.0914
  547loPI   C3B 8751   2.793   8.634   9.446 -0.1674 -0.1341 -0.0327
  547loPI   C4B 8752   2.820   8.584   8.991  0.0530  0.0279  0.1328
  548loPI    C1 8753   3.389  14.769  11.780  0.1593 -0.6666  0.1195
  548loPI    C2 8754   3.181  14.850  12.112 -0.0198 -0.0478 -0.1282
  548loPI    C3 8755   3.543  14.681  12.139  0.1050  0.2791  0.4035
  548loPI   PO4 8756   3.257  14.803  11.561 -0.1317 -0.0207 -0.0869
  548loPI   GL1 8757   3.006  14.629  11.154 -0.0069 -0.0710  0.0437
  548loPI   GL2 8758   3.046  14.956  11.041  0.0400 -0.0988  0.0161
  548loPI   C1A 8759   2.898  14.486  10.778  0.2442  0.0595 -0.2237
  548loPI   C2A 8760   2.885  14.622  10.335 -0.0762 -0.2694 -0.1080
  548loPI   C3A 8761   2.818  14.666   9.884 -0.1529 -0.2753 -0.0774
  548loPI   C4A 8762   2.913  14.715   9.481  0.3439  0.1056 -0.0861
  548loPI   C5A 8763   2.878  14.667   9.069  0.1534  0.2379 -0.2358
  548loPI   C6A 8764   3.094  14.701   8.680 -0.0101 -0.0742 -0.0593
  548loPI   C1B 8765   3.121  14.976  10.617  0.1361  0.1804 -0.0982
  548loPI   C2B 8766   2.991  15.080  10.209 -0.0424 -0.0374  0.1867
  548loPI   C3B 8767   2.884  15.155   9.734 -0.1939 -0.2787 -0.4493
  548loPI   C4B 8768   2.901  15.190   9.327 -0.0205  0.0669 -0.0697
  549loPI    C1 8769   7.410  -0.059  11.562 -0.1306  0.1733  0.0098
  549loPI    C2 8770   7.750   0.139  11.634 -0.0297  0.0524 -0.1287
  549loPI    C3 8771   7.442   0.173  11.886  0.1536  0.0046  0.1058
  549loPI   PO4 8772   7.508  -0.167  11.339 -0.1051  0.0169  0.2166
  549loPI   GL1 8773   7.489  -0.342  10.853  0.1458  0.0388 -0.3969
  549loPI   GL2 8774   7.625  -0.102  10.843  0.0063 -0.0391 -0.1630
  549loPI   C1A 8775   7.243  -0.371  10.469 -0.0085 -0.0590 -0.0286
  549loPI   C2A 8776   7.015  -0.430  10.106 -0.1892 -0.0634 -0.1321
  549loPI   C3A 8777   7.052  -0.377   9.646 -0.1164 -0.0337  0.1817
  549loPI   C4A 8778   6.994  -0.332   9.241 -0.0171 -0.1591  0.1154
  549loPI   C5A 8779   7.167  -0.248   8.775  0.0508  0.1369 -0.2155
  549loPI   C6A 8780   7.258  -0.305   8.347  0.2332  0.4463  0.2869
  549loPI   C1B 8781   7.732  -0.194  10.403 -0.1611  0.0061  0.0499
  549loPI   C2B 8782   7.510  -0.195   9.980  0.0205  0.2216 -0.1287
  549loPI   C3B 8783   7.507  -0.209   9.546 -0.0037  0.3366  0.0563
  549loPI   C4B 8784   7.548  -0.252   9.139 -0.0755 -0.1092  0.3334
  550loPI    C1 8785  15.232   9.371  11.895 -0.0175 -0.1790 -0.0137
  550loPI    C2 8786  15.295   9.666  12.157 -0.1060 -0.1342 -0.0426
  550loPI    C3 8787  15.337   9.285  12.271 -0.0849 -0.1131  0.0201
  550loPI   PO4 8788  15.132   9.535  11.709 -0.1945 -0.4017  0.1632
  550loPI   GL1 8789  15.075   9.510  11.276  0.1800  0.0689  0.3253
  550loPI   GL2 8790  15.059   9.827  11.111  0.2753  0.3366  0.3192
  550loPI   C1A 8791  14.936   9.454  10.733 -0.1513 -0.1955 -0.0165
  550loPI   C2A 8792  14.912   9.460  10.336  0.3505 -0.0950 -0.0583
  550loPI   C3A 8793  14.934   9.579   9.877  0.1418 -0.0819  0.0661
  550loPI   C4A 8794  14.873   9.568   9.516  0.0106  0.0610  0.0050
  550loPI   C5A 8795  14.890   9.648   9.068 -0.0380  0.2339  0.1003
  550loPI   C6A 8796  14.727   9.952   8.852  0.2973 -0.0890  0.2508
  550loPI   C1B 8797  14.957  10.010  10.666  0.1889  0.2289 -0.1377
  550loPI   C2B 8798  14.942  10.047  10.244 -0.2482  0.0446  0.0824
  550loPI   C3B 8799  14.987  10.102   9.752  0.1811 -0.1329 -0.1074
  550loPI   C4B 8800  15.013  10.104   9.334 -0.0191  0.1318  0.1874
  551loPI    C1 8801   7.835  16.729  11.641 -0.0500 -0.0794  0.0298
  551loPI    C2 8802   7.917  17.018  11.905 -0.0976 -0.0163 -0.0241
  551loPI    C3 8803   7.767  16.669  12.031 -0.0622 -0.0092  0.0385
  551loPI   PO4 8804   7.749  16.845  11.424 -0.1186  0.3406  0.1037
  551loPI   GL1 8805   7.675  16.951  10.971  0.5433  0.2420  0.0429
  551loPI   GL2 8806   7.799  16.674  10.961  0.1838 -0.2601  0.1760
  551loPI   C1A 8807   7.529  16.928  10.581 -0.0039  0.1840 -0.3107
  551loPI   C2A 8808   7.455  16.947  10.231 -0.0867 -0.1909 -0.0260
  551loPI   C3A 8809   7.456  17.051   9.821  0.1718  0.1370  0.2463
  551loPI   C4A 8810   7.478  17.055   9.360 -0.0383 -0.0138 -0.0858
  551loPI   C5A 8811   7.461  17.018   8.948  0.1984 -0.1671 -0.0419
  551loPI   C6A 8812   7.707  16.760   8.609  0.1622  0.1966  0.0653
  551loPI   C1B 8813   7.963  16.710  10.490  0.2674  0.1409 -0.0429
  551loPI   C2B 8814   7.915  16.654   9.987  0.0390  0.1627 -0.1492
  551loPI   C3B 8815   7.925  16.772   9.599 -0.1974  0.1318 -0.2316
  551loPI   C4B 8816   7.795  16.735   9.135  0.0007  0.0984  0.0392
  552loPI    C1 8817   9.905  13.997  11.461 -0.0670 -0.0377 -0.0073
  552loPI    C2 8818   9.693  14.200  11.732 -0.0878 -0.0411 -0.0211
  552loPI    C3 8819   9.964  13.931  11.851 -0.0106  0.0448 -0.0017
  552loPI   PO4 8820   9.962  14.150  11.312 -0.1241  0.1243  0.2234
  552loPI   GL1 8821   9.951  14.180  10.930  0.1517 -0.0045  0.0593
  552loPI   GL2 8822   9.632  14.222  10.782  0.2856  0.3616  0.0155
  552loPI   C1A 8823  10.090  14.092  10.421 -0.1807 -0.0862  0.1257
  552loPI   C2A 8824   9.995  14.048  10.081 -0.0040 -0.1480  0.3031
  552loPI   C3A 8825  10.019  14.112   9.644  0.1134 -0.0353 -0.0653
  552loPI   C4A 8826  10.038  14.115   9.234  0.2860  0.1399 -0.1075
  552loPI   C5A 8827  10.086  14.083   8.727 -0.2041 -0.3706  0.1355
  552loPI   C6A 8828   9.964  14.203   8.243  0.2327 -0.1330 -0.1358
  552loPI   C1B 8829   9.669  14.451  10.397  0.3277  0.0366 -0.1441
  552loPI   C2B 8830   9.628  14.421  10.034  0.1670 -0.0732  0.2564
  552loPI   C3B 8831   9.656  14.505   9.639  0.0846  0.1599  0.0184
  552loPI   C4B 8832   9.691  14.435   9.175 -0.2287 -0.1265 -0.1325
  553loPI    C1 8833  17.457  15.983  11.725 -0.1961  0.1386 -0.0292
  553loPI    C2 8834  17.470  15.852  12.103 -0.1952 -0.0138 -0.0817
  553loPI    C3 8835  17.121  15.960  11.940 -0.1865  0.1136 -0.0164
  553loPI   PO4 8836  17.445  15.837  11.535 -0.2945  0.4520  0.2636
  553loPI   GL1 8837  17.431  15.792  11.109  0.0926  0.0547  0.2022
  553loPI   GL2 8838  17.171  15.938  10.916  0.4422 -0.0828  0.2781
  553loPI   C1A 8839  17.586  15.587  10.801  0.0668  0.0712 -0.1847
  553loPI   C2A 8840  17.613  15.545  10.376  0.0969  0.0876  0.3717
  553loPI   C3A 8841  17.604  15.612  10.016  0.1913 -0.0098  0.1688
  553loPI   C4A 8842  17.661  15.638   9.542 -0.3204  0.1391  0.3085
  553loPI   C5A 8843  17.572  15.669   9.105 -0.3028  0.0116 -0.1561
  553loPI   C6A 8844  17.699  15.512   8.642  0.3376 -0.0594  0.1645
  553loPI   C1B 8845  17.243  15.968  10.525  0.2908 -0.0637  0.3311
  553loPI   C2B 8846  17.217  15.896  10.099 -0.1387 -0.3071  0.2691
  553loPI   C3B 8847  17.318  16.026   9.674  0.3135 -0.2209 -0.0830
  553loPI   C4B 8848  17.271  15.972   9.258  0.0279 -0.3549 -0.0917
  554loPI    C1 8849   5.775   5.891  11.534  0.0095  0.1139  0.0396
  554loPI    C2 8850   5.413   5.755  11.637 -0.0968  0.1634 -0.2577
  554loPI    C3 8851   5.741   5.582  11.786 -0.2388 -0.0429 -0.1793
  554loPI   PO4 8852   5.856   5.944  11.253 -0.1658  0.1572 -0.3380
  554loPI   GL1 8853   5.942   5.943  10.784  0.0944 -0.1128  0.0109
  554loPI   GL2 8854   5.753   5.671  10.696 -0.1387 -0.0818  0.0363
  554loPI   C1A 8855   6.255   5.884  10.502 -0.0675 -0.2192  0.1052
  554loPI   C2A 8856   6.254   5.885  10.097 -0.5228  0.1999  0.0426
  554loPI   C3A 8857   6.303   5.864   9.709 -0.0120  0.0076  0.0436
  554loPI   C4A 8858   6.353   6.110   9.330  0.2628 -0.1487 -0.0919
  554loPI   C5A 8859   6.458   6.148   8.967 -0.0418 -0.2109  0.2568
  554loPI   C6A 8860   6.340   6.203   8.554 -0.2065 -0.1092 -0.3884
  554loPI   C1B 8861   5.806   5.656  10.296  0.0815 -0.2935  0.0391
  554loPI   C2B 8862   5.859   5.736   9.945  0.1732  0.2200  0.2041
  554loPI   C3B 8863   5.812   5.831   9.522  0.1815 -0.3093  0.1696
  554loPI   C4B 8864   5.904   5.866   9.147 -0.1418  0.1164  0.0271
  555loPI    C1 8865   4.528   7.244  11.430 -0.0916 -0.2559 -0.2183
  555loPI    C2 8866   4.157   7.379  11.490  0.0869  0.0824  0.1731
  555loPI    C3 8867   4.274   7.035  11.658 -0.1481 -0.2044 -0.2341
  555loPI   PO4 8868   4.574   7.296  11.110  0.1690  0.3773  0.3391
  555loPI   GL1 8869   4.465   7.496  10.715 -0.1098 -0.0486  0.1678
  555loPI   GL2 8870   4.654   7.710  10.768  0.0293  0.4364 -0.3400
  555loPI   C1A 8871   4.492   7.627  10.312  0.0739  0.1076 -0.0689
  555loPI   C2A 8872   4.531   7.702   9.875  0.2126 -0.1597  0.0744
  555loPI   C3A 8873   4.451   7.782   9.379  0.0369  0.1620 -0.1100
  555loPI   C4A 8874   4.506   7.800   8.938 -0.0128  0.1471  0.1856
  555loPI   C5A 8875   4.856   7.879   8.682 -0.2733  0.2645  0.0574
  555loPI   C6A 8876   5.196   7.942   8.455  0.1831  0.1034  0.1085
  555loPI   C1B 8877   4.935   7.786  10.437  0.0783 -0.0691 -0.1968
  555loPI   C2B 8878   5.010   7.833  10.031 -0.2238 -0.0613 -0.4540
  555loPI   C3B 8879   4.948   7.833   9.607  0.2464  0.1960 -0.1745
  555loPI   C4B 8880   4.913   7.863   9.150 -0.1349 -0.5858  0.2758
  556loPI    C1 8881   1.090   1.520  11.777  0.1504 -0.0383  0.0264
  556loPI    C2 8882   1.102   1.274  12.092 -0.0707 -0.1204 -0.0273
  556loPI    C3 8883   1.014   1.660  12.144  0.0909 -0.0910  0.0344
  556loPI   PO4 8884   0.870   1.440  11.605  0.0524  0.1667  0.1086
  556loPI   GL1 8885   0.818   1.360  11.156 -0.0656  0.1650 -0.0212
  556loPI   GL2 8886   1.126   1.495  10.839 -0.1391  0.1423 -0.0115
  556loPI   C1A 8887   0.645   1.269  10.767  0.2013  0.1440  0.3364
  556loPI   C2A 8888   0.611   1.333  10.261 -0.1542  0.1107 -0.1383
  556loPI   C3A 8889   0.712   1.335   9.763  0.1357  0.0653  0.0487
  556loPI   C4A 8890   0.778   1.463   9.318  0.2429  0.3013  0.1943
  556loPI   C5A 8891   0.827   1.266   8.890 -0.0084 -0.0526 -0.1435
  556loPI   C6A 8892   0.947   1.134   8.484 -0.2728 -0.1067 -0.0421
  556loPI   C1B 8893   1.087   1.509  10.363  0.1892 -0.1786 -0.2053
  556loPI   C2B 8894   1.189   1.490   9.989  0.0166 -0.2100 -0.0072
  556loPI   C3B 8895   1.208   1.501   9.511  0.2763  0.2936 -0.1464
  556loPI   C4B 8896   1.282   1.557   9.051  0.0339 -0.0616  0.1932
  557loPI    C1 8897   9.712  11.054  11.652  0.0805 -0.1635 -0.1590
  557loPI    C2 8898  10.015  11.297  11.747 -0.1831  0.0473  0.1659
  557loPI    C3 8899   9.965  10.953  11.945 -0.0881 -0.0454  0.0303
  557loPI   PO4 8900   9.684  11.126  11.367  0.1952  0.1298  0.4327
  557loPI   GL1 8901   9.592  11.213  10.913  0.0653  0.0806 -0.0452
  557loPI   GL2 8902   9.678  10.889  10.841 -0.2507  0.0228 -0.0184
  557loPI   C1A 8903   9.772  11.221  10.450 -0.0470  0.0270 -0.2226
  557loPI   C2A 8904   9.858  11.289   9.954 -0.2909 -0.2350  0.1994
  557loPI   C3A 8905   9.787  11.283   9.540  0.0280  0.0233  0.0824
  557loPI   C4A 8906   9.807  11.300   9.099 -0.0254  0.0782 -0.1751
  557loPI   C5A 8907   9.659  11.505   8.787 -0.0845  0.1826  0.1087
  557loPI   C6A 8908   9.304  11.700   8.751 -0.0255  0.0090 -0.2709
  557loPI   C1B 8909   9.734  10.733  10.439  0.2026 -0.1161  0.2982
  557loPI   C2B 8910   9.670  10.759  10.043 -0.1861  0.2599 -0.1088
  557loPI   C3B 8911   9.748  10.841   9.645 -0.1287  0.2381  0.2277
  557loPI   C4B 8912   9.725  10.784   9.251 -0.1068  0.0887 -0.2192
  558loPI    C1 8913   9.809   1.375  11.568 -0.2215  0.0987  0.1306
  558loPI    C2 8914  10.081   1.457  11.850  0.0993 -0.1789 -0.0897
  558loPI    C3 8915   9.786   1.198  11.927  0.1315 -0.1832  0.0207
  558loPI   PO4 8916   9.940   1.342  11.382 -0.1566 -0.0247  0.0835
  558loPI   GL1 8917   9.890   1.290  10.893 -0.3713  0.2111 -0.1331
  558loPI   GL2 8918   9.893   0.961  10.692  0.0267  0.1084  0.1767
  558loPI   C1A 8919   9.866   1.490  10.493  0.0148  0.4874  0.2117
  558loPI   C2A 8920   9.890   1.474  10.066 -0.1128 -0.0213  0.0020
  558loPI   C3A 8921   9.797   1.416   9.609 -0.0147 -0.0256 -0.1338
  558loPI   C4A 8922   9.806   1.453   9.176 -0.1085  0.3512 -0.0632
  558loPI   C5A 8923   9.997   1.423   8.766  0.0165 -0.3195  0.2529
  558loPI   C6A 8924  10.352   1.175   8.463 -0.0813 -0.0569 -0.0388
  558loPI   C1B 8925   9.695   0.900  10.294 -0.2295 -0.0451  0.0117
  558loPI   C2B 8926   9.638   0.892   9.794  0.0726  0.0690 -0.3428
  558loPI   C3B 8927   9.707   0.983   9.380 -0.0303  0.0714 -0.0306
  558loPI   C4B 8928   9.729   0.991   8.877 -0.1650 -0.0441 -0.3270
  559loPI    C1 8929   6.714   8.647  11.298 -0.1868  0.3487  0.0250
  559loPI    C2 8930   6.849   8.517  11.651 -0.1500  0.1242 -0.0703
  559loPI    C3 8931   6.506   8.722  11.632 -0.2343 -0.0000  0.0777
  559loPI   PO4 8932   6.906   8.668  11.213  0.1666 -0.1817  0.1532
  559loPI   GL1 8933   6.983   8.806  10.852 -0.3051 -0.3418  0.3786
  559loPI   GL2 8934   6.930   8.386  10.797  0.2513 -0.0822  0.1377
  559loPI   C1A 8935   7.041   8.895  10.435  0.0373  0.0171 -0.0940
  559loPI   C2A 8936   7.097   8.888  10.013 -0.2032  0.1394 -0.1412
  559loPI   C3A 8937   7.008   8.953   9.599 -0.0694 -0.0144  0.0287
  559loPI   C4A 8938   7.050   9.015   9.196  0.3070  0.1460  0.1377
  559loPI   C5A 8939   7.146   9.087   8.718  0.2865 -0.1656  0.0054
  559loPI   C6A 8940   7.292   8.936   8.413  0.0462  0.4119  0.1853
  559loPI   C1B 8941   6.994   8.397  10.435 -0.2486 -0.0378 -0.2850
  559loPI   C2B 8942   6.961   8.427   9.941  0.0804  0.1307 -0.0009
  559loPI   C3B 8943   6.940   8.451   9.584  0.1341 -0.0417  0.1121
  559loPI   C4B 8944   6.961   8.530   9.139  0.2318  0.1291  0.0735
  560loPI    C1 8945   3.255  14.276  11.815 -0.0991 -0.1170 -0.2344
  560loPI    C2 8946   3.298  14.040  12.135 -0.1302  0.0230 -0.1259
  560loPI    C3 8947   3.034  14.340  12.142  0.1785  0.2992 -0.1212
  560loPI   PO4 8948   3.189  14.002  11.628 -0.0153  0.0223  0.3015
  560loPI   GL1 8949   3.334  13.927  11.262  0.2916 -0.2802  0.1770
  560loPI   GL2 8950   3.626  13.854  11.035  0.2997  0.1852 -0.2149
  560loPI   C1A 8951   3.204  14.031  10.841 -0.1866 -0.1084 -0.0426
  560loPI   C2A 8952   3.280  14.244  10.353 -0.3474  0.0400  0.0042
  560loPI   C3A 8953   3.214  14.218   9.924  0.1593  0.0605 -0.1099
  560loPI   C4A 8954   3.260  14.299   9.437 -0.0200  0.1608  0.1055
  560loPI   C5A 8955   3.349  14.389   8.977 -0.0479  0.0089  0.0158
  560loPI   C6A 8956   2.991  14.163   8.732 -0.1588  0.1637 -0.2769
  560loPI   C1B 8957   3.589  13.918  10.561 -0.0228  0.3438 -0.0288
  560loPI   C2B 8958   3.598  13.923  10.139  0.4107 -0.2031 -0.0584
  560loPI   C3B 8959   3.622  13.973   9.645  0.2811  0.1341  0.0087
  560loPI   C4B 8960   3.611  13.972   9.220  0.4012  0.0921 -0.1347
  561loPI    C1 8961   7.146   9.238  11.331 -0.0064 -0.3805 -0.1443
  561loPI    C2 8962   7.103   9.374  11.704  0.1632  0.1167 -0.2990
  561loPI    C3 8963   6.948   9.020  11.602 -0.0731  0.0732  0.1824
  561loPI   PO4 8964   7.076   9.382  11.174 -0.2185 -0.0697  0.0994
  561loPI   GL1 8965   7.060   9.482  10.794 -0.3163 -0.2784  0.1338
  561loPI   GL2 8966   7.206   9.360  10.578 -0.1734 -0.0619  0.2294
  561loPI   C1A 8967   6.830   9.717  10.481  0.0681 -0.2793 -0.2775
  561loPI   C2A 8968   6.830   9.766  10.004 -0.0689 -0.1582 -0.0844
  561loPI   C3A 8969   6.776   9.812   9.526  0.1616 -0.0971  0.1315
  561loPI   C4A 8970   6.922   9.880   9.043 -0.1834 -0.2684  0.0056
  561loPI   C5A 8971   6.938   9.632   8.616  0.3937 -0.3996  0.2366
  561loPI   C6A 8972   7.003   9.352   8.259 -0.1192  0.1722 -0.4501
  561loPI   C1B 8973   7.132   9.349  10.185 -0.0509 -0.1427  0.0017
  561loPI   C2B 8974   7.256   9.411   9.816  0.2718  0.1630  0.0947
  561loPI   C3B 8975   7.189   9.451   9.414  0.0176 -0.1899 -0.0466
  561loPI   C4B 8976   7.241   9.521   8.986 -0.0569 -0.4283  0.1539
  562loPI    C1 8977   5.049   5.906  11.344  0.0770  0.1823 -0.1666
  562loPI    C2 8978   4.742   5.689  11.482  0.2590 -0.1199 -0.2286
  562loPI    C3 8979   4.950   5.921  11.732  0.0269  0.0309 -0.1725
  562loPI   PO4 8980   4.915   5.937  11.067 -0.2188 -0.0472  0.2538
  562loPI   GL1 8981   5.124   6.175  10.729 -0.2577 -0.0858  0.1638
  562loPI   GL2 8982   5.407   6.018  10.581  0.2605  0.2646  0.4181
  562loPI   C1A 8983   4.795   6.313  10.445  0.1634 -0.1755  0.2042
  562loPI   C2A 8984   4.626   6.399  10.004 -0.0874  0.0043 -0.3341
  562loPI   C3A 8985   4.606   6.375   9.558 -0.0921 -0.0187 -0.0329
  562loPI   C4A 8986   4.669   6.449   9.135  0.1255 -0.3277  0.2588
  562loPI   C5A 8987   4.595   6.491   8.651 -0.0288  0.1265 -0.1667
  562loPI   C6A 8988   4.402   6.696   8.269  0.1187 -0.0780 -0.2588
  562loPI   C1B 8989   5.506   6.110  10.161 -0.0580 -0.1827  0.2448
  562loPI   C2B 8990   5.490   6.164   9.704  0.2301 -0.2074  0.0020
  562loPI   C3B 8991   5.526   6.168   9.274  0.1453  0.1331 -0.1839
  562loPI   C4B 8992   5.429   6.129   8.903  0.1698 -0.2597 -0.3163
  563loPI    C1 8993   3.868   1.690  11.566 -0.1506 -0.0338 -0.1951
  563loPI    C2 8994   4.124   1.935  11.751 -0.0227 -0.1185 -0.2583
  563loPI    C3 8995   3.753   1.889  11.893  0.0592 -0.1474 -0.0504
  563loPI   PO4 8996   3.874   1.718  11.285  0.0177  0.0115  0.0151
  563loPI   GL1 8997   4.163   1.691  10.878  0.1795  0.1482 -0.1927
  563loPI   GL2 8998   4.440   1.520  10.691 -0.1965 -0.1452 -0.0921
  563loPI   C1A 8999   4.112   1.854  10.517 -0.1039  0.2448 -0.2630
  563loPI   C2A 9000   4.012   1.880  10.128  0.0275  0.4852  0.0583
  563loPI   C3A 9001   4.111   1.982   9.735 -0.0533 -0.2055 -0.1356
  563loPI   C4A 9002   4.013   2.041   9.303 -0.1870 -0.0452 -0.2541
  563loPI   C5A 9003   3.841   2.036   8.908 -0.1647  0.0287 -0.0953
  563loPI   C6A 9004   3.950   2.211   8.486 -0.0102  0.2935  0.0217
  563loPI   C1B 9005   4.431   1.539  10.254 -0.2905  0.0868  0.0697
  563loPI   C2B 9006   4.470   1.634   9.857 -0.3348 -0.1756  0.1692
  563loPI   C3B 9007   4.389   1.742   9.389  0.2056 -0.0922  0.2834
  563loPI   C4B 9008   4.404   1.675   8.932  0.1688  0.1986  0.0776
  564loPI    C1 9009  12.524   2.855  11.561 -0.1502 -0.3557 -0.0240
  564loPI    C2 9010  12.422   2.691  11.912 -0.0011 -0.1032  0.1411
  564loPI    C3 9011  12.392   3.086  11.860  0.3029 -0.0975 -0.0143
  564loPI   PO4 9012  12.801   2.683  11.468 -0.0729 -0.1182 -0.0417
  564loPI   GL1 9013  13.097   2.677  11.120 -0.0373  0.2133  0.4782
  564loPI   GL2 9014  13.384   2.399  10.998 -0.0595 -0.1518  0.1822
  564loPI   C1A 9015  12.972   2.788  10.800  0.4025 -0.1978 -0.1476
  564loPI   C2A 9016  12.914   2.757  10.339  0.0296 -0.1691 -0.0847
  564loPI   C3A 9017  12.960   2.855   9.855 -0.1287 -0.1022 -0.1951
  564loPI   C4A 9018  12.893   2.818   9.477  0.0613 -0.3714 -0.1737
  564loPI   C5A 9019  12.945   2.919   8.975  0.1521 -0.0965  0.0166
  564loPI   C6A 9020  13.226   2.760   8.740  0.3522 -0.0714 -0.4051
  564loPI   C1B 9021  13.249   2.447  10.559  0.0197 -0.2190 -0.0090
  564loPI   C2B 9022  13.275   2.547  10.067 -0.0247 -0.1792  0.1859
  564loPI   C3B 9023  13.243   2.506   9.617  0.2851 -0.3760 -0.3152
  564loPI   C4B 9024  13.226   2.495   9.171 -0.0563 -0.2651  0.3985
  565loPI    C1 9025   9.601  16.921  11.606 -0.0528  0.1607 -0.0308
  565loPI    C2 9026   9.493  16.718  11.933  0.0650  0.1845  0.0231
  565loPI    C3 9027   9.664  17.078  11.968  0.2881  0.0882 -0.0555
  565loPI   PO4 9028   9.713  16.785  11.421  0.0085  0.0881  0.3420
  565loPI   GL1 9029   9.601  16.880  10.909 -0.0237  0.2481 -0.0560
  565loPI   GL2 9030   9.946  16.916  10.958 -0.2797  0.0552 -0.1963
  565loPI   C1A 9031   9.698  16.775  10.502  0.1696 -0.1407  0.0084
  565loPI   C2A 9032   9.714  16.760  10.072 -0.1119  0.3745 -0.0697
  565loPI   C3A 9033   9.676  16.939   9.640  0.0056  0.1620 -0.1036
  565loPI   C4A 9034   9.641  16.933   9.186  0.2143 -0.1497  0.0035
  565loPI   C5A 9035   9.903  16.926   8.838  0.0299 -0.2142 -0.0010
  565loPI   C6A 9036  10.305  17.130   8.811 -0.3669 -0.0293 -0.0056
  565loPI   C1B 9037  10.151  16.995  10.641  0.0537 -0.1953  0.2133
  565loPI   C2B 9038  10.170  16.910  10.182  0.1576 -0.0642 -0.1939
  565loPI   C3B 9039  10.110  16.976   9.831 -0.1538 -0.0598 -0.1874
  565loPI   C4B 9040  10.212  17.099   9.307 -0.0800  0.1904 -0.1880
  566loPI    C1 9041  13.323  14.788  11.494  0.1227 -0.0203 -0.1058
  566loPI    C2 9042  13.121  14.681  11.822  0.1096 -0.4365 -0.2436
  566loPI    C3 9043  13.501  14.566  11.775  0.3047  0.1187 -0.1088
  566loPI   PO4 9044  13.180  14.764  11.333  0.0008 -0.0325  0.1673
  566loPI   GL1 9045  12.817  14.889  11.184  0.1694  0.0896  0.2382
  566loPI   GL2 9046  12.774  14.607  11.048 -0.0311 -0.0080  0.0348
  566loPI   C1A 9047  12.953  14.950  10.735 -0.1954  0.2057  0.1307
  566loPI   C2A 9048  13.009  15.074  10.352 -0.0684  0.2707  0.2825
  566loPI   C3A 9049  12.975  15.067   9.897 -0.0023 -0.3173 -0.3897
  566loPI   C4A 9050  13.033  15.169   9.481 -0.0617  0.4877  0.0769
  566loPI   C5A 9051  12.997  15.087   9.150 -0.2016 -0.0332  0.0526
  566loPI   C6A 9052  13.223  14.962   8.802 -0.0446 -0.1721 -0.3632
  566loPI   C1B 9053  12.856  14.513  10.657  0.2614 -0.2968  0.0335
  566loPI   C2B 9054  12.832  14.528  10.200 -0.0203 -0.3113 -0.1068
  566loPI   C3B 9055  12.844  14.540   9.781 -0.1858  0.1693 -0.1444
  566loPI   C4B 9056  12.868  14.658   9.354  0.3229 -0.0273 -0.2932
  567loPI    C1 9057   7.274  10.901  11.296  0.0466  0.1344 -0.2097
  567loPI    C2 9058   7.472  10.766  11.616 -0.0665 -0.1422 -0.2535
  567loPI    C3 9059   7.417  11.159  11.566 -0.2476 -0.1067  0.1869
  567loPI   PO4 9060   7.323  10.847  11.055  0.1723  0.1972 -0.2867
  567loPI   GL1 9061   7.152  10.891  10.721 -0.1689 -0.0224 -0.1087
  567loPI   GL2 9062   7.209  11.175  10.566  0.2254 -0.0290 -0.0741
  567loPI   C1A 9063   7.030  10.786  10.297  0.1819  0.0595 -0.2004
  567loPI   C2A 9064   6.999  10.739   9.888  0.0121  0.1386  0.3910
  567loPI   C3A 9065   6.962  10.839   9.461 -0.1853 -0.1977  0.2391
  567loPI   C4A 9066   6.895  10.847   9.026  0.0015 -0.1004  0.0200
  567loPI   C5A 9067   7.073  10.916   8.634 -0.1197  0.0355  0.2390
  567loPI   C6A 9068   6.887  11.212   8.422 -0.1668 -0.0446  0.0253
  567loPI   C1B 9069   7.214  11.320  10.220 -0.1621  0.2203 -0.1514
  567loPI   C2B 9070   7.101  11.245   9.801  0.1096  0.2049 -0.1006
  567loPI   C3B 9071   7.039  11.309   9.322 -0.0636 -0.3431  0.1080
  567loPI   C4B 9072   7.074  11.369   8.901 -0.2660  0.2538 -0.1688
  568loPI    C1 9073  13.543   6.225  11.269  0.0080  0.0721 -0.0999
  568loPI    C2 9074  13.859   6.246  11.513 -0.0847 -0.0210  0.0294
  568loPI    C3 9075  13.503   6.132  11.656 -0.1859  0.1185 -0.1078
  568loPI   PO4 9076  13.646   6.042  11.124  0.0330  0.0092  0.1232
  568loPI   GL1 9077  13.366   5.821  10.822  0.0224  0.2908  0.2201
  568loPI   GL2 9078  13.042   5.666  10.597 -0.1488 -0.0730 -0.0220
  568loPI   C1A 9079  13.450   5.832  10.363  0.0459  0.0585  0.2549
  568loPI   C2A 9080  13.570   5.911   9.982  0.0326 -0.0344  0.1729
  568loPI   C3A 9081  13.585   5.974   9.530 -0.0818  0.2927  0.4432
  568loPI   C4A 9082  13.497   5.845   9.063 -0.0525  0.3792  0.1747
  568loPI   C5A 9083  13.199   5.704   8.866  0.0889 -0.1333 -0.1903
  568loPI   C6A 9084  12.947   5.514   8.640 -0.1641  0.2362 -0.1723
  568loPI   C1B 9085  12.938   5.787  10.159 -0.1344 -0.2302 -0.0775
  568loPI   C2B 9086  13.106   5.811   9.758 -0.0993  0.1016  0.1358
  568loPI   C3B 9087  12.993   5.734   9.334  0.0087  0.1521  0.0244
  568loPI   C4B 9088  12.878   5.387   9.106 -0.2228  0.1952 -0.0429
  569loPI    C1 9089  16.064   8.797  11.311  0.0674 -0.0258 -0.0634
  569loPI    C2 9090  16.226   8.729  11.671 -0.0387  0.0555  0.0005
  569loPI    C3 9091  15.959   9.023  11.624  0.0314  0.0947 -0.1618
  569loPI   PO4 9092  16.041   8.581  11.222 -0.0933  0.0565  0.0402
  569loPI   GL1 9093  15.863   8.514  10.899 -0.1446 -0.3207 -0.1334
  569loPI   GL2 9094  16.153   8.420  10.770  0.2034 -0.0343 -0.0697
  569loPI   C1A 9095  15.725   8.812  10.597  0.0482 -0.1333  0.1071
  569loPI   C2A 9096  15.789   8.924  10.158  0.2054  0.1169  0.1009
  569loPI   C3A 9097  15.665   8.956   9.773 -0.0532  0.1326  0.1264
  569loPI   C4A 9098  15.673   9.030   9.294  0.0024  0.0363 -0.0545
  569loPI   C5A 9099  15.765   9.046   8.869 -0.0484  0.2665  0.2485
  569loPI   C6A 9100  15.912   8.885   8.500  0.3925  0.0316 -0.1891
  569loPI   C1B 9101  16.063   8.500  10.263  0.1329 -0.1856 -0.0524
  569loPI   C2B 9102  16.016   8.563   9.803 -0.1580 -0.0724 -0.2900
  569loPI   C3B 9103  16.000   8.649   9.393 -0.0756 -0.0035  0.3131
  569loPI   C4B 9104  15.649   8.599   9.100 -0.0726 -0.1627  0.0941
  570loPI    C1 9105   7.592  12.321  11.276  0.0349  0.3421  0.1399
  570loPI    C2 9106   7.260  12.136  11.400  0.1246  0.1719  0.1289
  570loPI    C3 9107   7.535  12.252  11.666  0.2345 -0.0335  0.1067
  570loPI   PO4 9108   7.506  12.388  11.012  0.0119 -0.1163  0.0664
  570loPI   GL1 9109   7.395  12.145  10.709  0.1054 -0.1408  0.0395
  570loPI   GL2 9110   7.674  12.116  10.661  0.0053 -0.0470  0.0805
  570loPI   C1A 9111   7.429  12.308  10.277 -0.0522  0.0680  0.1251
  570loPI   C2A 9112   7.409  12.366   9.820 -0.0565  0.2659 -0.0093
  570loPI   C3A 9113   7.329  12.380   9.394  0.0979  0.2587 -0.1997
  570loPI   C4A 9114   7.416  12.375   8.971 -0.0153 -0.1512 -0.0052
  570loPI   C5A 9115   7.597  12.646   8.565 -0.0696 -0.2114  0.1476
  570loPI   C6A 9116   7.582  12.704   8.127 -0.1781 -0.0551  0.1840
  570loPI   C1B 9117   7.767  11.959  10.371  0.3096 -0.1912  0.0085
  570loPI   C2B 9118   7.682  11.929   9.991 -0.3404 -0.0042  0.2643
  570loPI   C3B 9119   7.714  12.066   9.539  0.1078 -0.0898  0.2174
  570loPI   C4B 9120   7.676  11.991   9.164 -0.3835 -0.0099 -0.1867
  571loPI    C1 9121   0.432  16.333  11.634 -0.0308  0.1235  0.0577
  571loPI    C2 9122   0.443  16.472  12.009 -0.0588  0.2424  0.0150
  571loPI    C3 9123   0.115  16.288  11.874  0.0255  0.0179  0.1124
  571loPI   PO4 9124   0.433  16.492  11.446  0.0745  0.0079 -0.2015
  571loPI   GL1 9125   0.510  16.496  10.962 -0.2917 -0.0864  0.1055
  571loPI   GL2 9126   0.536  16.752  10.746 -0.0193 -0.2141 -0.0739
  571loPI   C1A 9127   0.422  16.335  10.495  0.0071 -0.2362  0.0077
  571loPI   C2A 9128   0.420  16.235  10.113 -0.2594  0.0800 -0.2228
  571loPI   C3A 9129   0.415  16.289   9.668 -0.0134  0.0673 -0.2506
  571loPI   C4A 9130   0.494  16.236   9.306 -0.1059  0.3470  0.1225
  571loPI   C5A 9131   0.529  16.274   8.897  0.2992 -0.3169 -0.0763
  571loPI   C6A 9132   0.443  16.233   8.479 -0.0423  0.0262 -0.1361
  571loPI   C1B 9133   0.527  16.747  10.309  0.4467  0.2464  0.0874
  571loPI   C2B 9134   0.541  16.677   9.966  0.1774  0.1428 -0.0453
  571loPI   C3B 9135   0.617  16.746   9.612  0.1253  0.0129 -0.1961
  571loPI   C4B 9136   0.653  16.758   9.200  0.0942  0.2428  0.2239
  572loPI    C1 9137  12.223   1.496  11.617  0.3725  0.1384  0.0359
  572loPI    C2 9138  12.046   1.849  11.678  0.0070 -0.0479  0.0836
  572loPI    C3 9139  12.188   1.641  11.988  0.2027  0.0441  0.0577
  572loPI   PO4 9140  12.287   1.484  11.319  0.0768  0.0482  0.1808
  572loPI   GL1 9141  12.130   1.493  10.911 -0.0864  0.0764 -0.3124
  572loPI   GL2 9142  12.190   1.761  10.760  0.1996 -0.2226  0.0840
  572loPI   C1A 9143  12.336   1.304  10.639 -0.0975  0.0105 -0.1584
  572loPI   C2A 9144  12.508   1.388  10.247  0.0056  0.2058  0.0557
  572loPI   C3A 9145  12.520   1.429   9.799  0.0280  0.0115  0.1888
  572loPI   C4A 9146  12.571   1.400   9.409 -0.0100 -0.2213  0.1647
  572loPI   C5A 9147  12.525   1.405   8.977  0.0502 -0.1567 -0.1311
  572loPI   C6A 9148  12.403   1.129   8.632 -0.2171  0.1666  0.1083
  572loPI   C1B 9149  12.136   1.694  10.303  0.0328 -0.2571  0.2911
  572loPI   C2B 9150  12.119   1.722   9.837  0.1866 -0.3959 -0.0208
  572loPI   C3B 9151  12.204   1.754   9.485  0.3276 -0.2739  0.0783
  572loPI   C4B 9152  12.110   1.829   9.068 -0.0476  0.0557  0.0001
  573loPI    C1 9153   2.207   5.997  11.461 -0.0278  0.0931 -0.0640
  573loPI    C2 9154   2.346   5.662  11.629  0.0115  0.0479 -0.1859
  573loPI    C3 9155   2.174   5.942  11.856  0.1339  0.0219 -0.0595
  573loPI   PO4 9156   2.169   5.939  11.195  0.0332 -0.1537 -0.0524
  573loPI   GL1 9157   2.477   5.768  10.940  0.1262 -0.1371  0.0531
  573loPI   GL2 9158   2.739   5.518  10.873  0.3367  0.1126 -0.2896
  573loPI   C1A 9159   2.312   5.992  10.562  0.1224  0.3102  0.0437
  573loPI   C2A 9160   2.279   6.116  10.111  0.1922 -0.1603 -0.1226
  573loPI   C3A 9161   2.270   6.097   9.718  0.1246  0.4059 -0.0539
  573loPI   C4A 9162   2.235   6.023   9.337 -0.1532 -0.0789  0.2125
  573loPI   C5A 9163   2.335   6.151   8.792  0.1528  0.2043  0.1034
  573loPI   C6A 9164   2.418   6.195   8.400  0.0634 -0.1402 -0.3411
  573loPI   C1B 9165   2.714   5.654  10.457 -0.0620 -0.2142  0.0554
  573loPI   C2B 9166   2.623   5.799   9.983  0.2421  0.1866  0.4856
  573loPI   C3B 9167   2.602   5.746   9.613  0.0401  0.2701  0.2717
  573loPI   C4B 9168   2.657   5.700   9.120  0.0063 -0.2656  0.1177
  574loPI    C1 9169   7.356   1.261  11.617  0.3641  0.1521 -0.3096
  574loPI    C2 9170   7.633   1.337  11.895 -0.0667  0.4002  0.0632
  574loPI    C3 9171   7.451   0.981  11.886  0.1914  0.2706 -0.1226
  574loPI   PO4 9172   7.452   1.359  11.444  0.1434  0.2100  0.0869
  574loPI   GL1 9173   7.447   1.591  10.982  0.1899  0.0562  0.2057
  574loPI   GL2 9174   7.714   1.888  10.945  0.3939  0.0160  0.0312
  574loPI   C1A 9175   7.610   1.570  10.572  0.0332 -0.2455 -0.0463
  574loPI   C2A 9176   7.509   1.610  10.072  0.1227  0.0427  0.0159
  574loPI   C3A 9177   7.572   1.768   9.663 -0.3044 -0.3411  0.0353
  574loPI   C4A 9178   7.562   1.799   9.247  0.0676 -0.1677 -0.1374
  574loPI   C5A 9179   7.397   1.785   8.833 -0.1819  0.1255  0.2912
  574loPI   C6A 9180   7.417   1.717   8.429  0.0650  0.0249 -0.1432
  574loPI   C1B 9181   7.653   2.092  10.525  0.0838  0.2449 -0.0860
  574loPI   C2B 9182   7.731   2.171  10.039  0.0237  0.0269 -0.0470
  574loPI   C3B 9183   7.713   2.260   9.557 -0.0917  0.1607 -0.0720
  574loPI   C4B 9184   7.525   2.224   9.016 -0.2183 -0.0746  0.1483
  575loPI    C1 9185   5.685   9.836  11.197 -0.1406  0.1353 -0.0665
  575loPI    C2 9186   5.921   9.807  11.519  0.0593  0.3816 -0.1875
  575loPI    C3 9187   5.556   9.968  11.552 -0.1072 -0.0203  0.0045
  575loPI   PO4 9188   5.727   9.671  11.101 -0.0907 -0.3184 -0.0974
  575loPI   GL1 9189   5.855   9.602  10.735  0.3485  0.1149 -0.1063
  575loPI   GL2 9190   5.888   9.360  10.637 -0.0341 -0.1806 -0.0397
  575loPI   C1A 9191   5.970   9.889  10.470  0.0468 -0.0703 -0.0317
  575loPI   C2A 9192   5.930   9.958  10.030 -0.0713  0.1455  0.2901
  575loPI   C3A 9193   5.954   9.981   9.539 -0.0480  0.2204  0.2181
  575loPI   C4A 9194   5.897  10.070   9.138 -0.0647  0.0493  0.0555
  575loPI   C5A 9195   5.797  10.039   8.737 -0.2152 -0.0207 -0.0103
  575loPI   C6A 9196   5.973   9.760   8.345 -0.0492  0.2544 -0.4739
  575loPI   C1B 9197   5.879   9.484  10.164 -0.1072  0.0358  0.4708
  575loPI   C2B 9198   5.879   9.542   9.770 -0.0962  0.1940 -0.0805
  575loPI   C3B 9199   5.742   9.525   9.281 -0.0431  0.1588  0.2054
  575loPI   C4B 9200   5.859   9.553   8.805  0.0798  0.1516  0.0063
  576loPI    C1 9201   0.977   0.491  11.683  0.1566 -0.0962 -0.3196
  576loPI    C2 9202   0.780   0.151  11.758 -0.2691  0.1396 -0.3363
  576loPI    C3 9203   1.024   0.306  12.035 -0.2455 -0.0616 -0.2426
  576loPI   PO4 9204   1.032   0.493  11.398 -0.2413  0.0031 -0.2381
  576loPI   GL1 9205   1.051   0.394  11.017 -0.0229 -0.0958  0.1682
  576loPI   GL2 9206   1.423   0.405  11.132  0.2797  0.0360  0.0465
  576loPI   C1A 9207   0.961   0.443  10.583 -0.0668  0.1556  0.0451
  576loPI   C2A 9208   0.900   0.510  10.130  0.0819  0.2602 -0.1255
  576loPI   C3A 9209   0.921   0.563   9.754  0.1543  0.0084 -0.1938
  576loPI   C4A 9210   0.950   0.533   9.347 -0.2814 -0.1325  0.1141
  576loPI   C5A 9211   1.155   0.415   9.060  0.1818 -0.0329  0.2487
  576loPI   C6A 9212   1.522   0.179   8.894 -0.0877 -0.1079 -0.1094
  576loPI   C1B 9213   1.364   0.114  10.714  0.2319  0.0782 -0.1351
  576loPI   C2B 9214   1.310   0.124  10.294 -0.0093 -0.0564  0.1455
  576loPI   C3B 9215   1.324   0.164   9.928  0.1002  0.0742  0.1184
  576loPI   C4B 9216   1.249   0.167   9.484  0.0259  0.2429 -0.2446
  577loPI    C1 9217   8.156  12.841  11.611  0.0492 -0.2148 -0.2164
  577loPI    C2 9218   7.809  12.682  11.730  0.0695 -0.1031 -0.0031
  577loPI    C3 9219   8.148  12.588  11.920  0.1050  0.0645  0.0182
  577loPI   PO4 9220   8.226  12.871  11.350 -0.0441  0.1696 -0.0365
  577loPI   GL1 9221   8.089  12.896  10.913 -0.3857 -0.0064  0.1657
  577loPI   GL2 9222   7.958  12.618  10.822 -0.1886  0.2053  0.1331
  577loPI   C1A 9223   8.092  12.976  10.458 -0.0530  0.0205  0.1117
  577loPI   C2A 9224   8.015  13.013   9.963  0.1239 -0.1860  0.1072
  577loPI   C3A 9225   8.017  12.975   9.537  0.2791 -0.3956 -0.0237
  577loPI   C4A 9226   7.967  13.097   9.138  0.2548  0.1288 -0.1048
  577loPI   C5A 9227   7.884  13.076   8.774 -0.0556  0.2672 -0.2078
  577loPI   C6A 9228   7.946  13.051   8.330 -0.0608  0.0891  0.0630
  577loPI   C1B 9229   7.906  12.499  10.425 -0.0160 -0.0847  0.0800
  577loPI   C2B 9230   7.898  12.506   9.963 -0.1857 -0.0206  0.0412
  577loPI   C3B 9231   7.844  12.553   9.589  0.0644  0.0276  0.1160
  577loPI   C4B 9232   7.808  12.597   9.078 -0.0976 -0.0406 -0.0184
  578loPI    C1 9233  10.654  14.784  11.299  0.1889  0.0956 -0.0499
  578loPI    C2 9234  10.960  15.034  11.356  0.3364 -0.0571 -0.1620
  578loPI    C3 9235  10.770  14.875  11.670  0.4451 -0.0504 -0.0923
  578loPI   PO4 9236  10.485  14.892  11.169  0.2400  0.0676 -0.0036
  578loPI   GL1 9237  10.526  14.815  10.753 -0.0959 -0.0539 -0.0565
  578loPI   GL2 9238  10.171  15.086  10.812 -0.3791  0.2159  0.0014
  578loPI   C1A 9239  10.546  14.709  10.320  0.0102  0.3065 -0.0792
  578loPI   C2A 9240  10.550  14.692   9.961 -0.2531 -0.0070  0.1740
  578loPI   C3A 9241  10.637  14.802   9.593  0.0318  0.1256 -0.0389
  578loPI   C4A 9242  10.702  14.712   9.224  0.4289  0.0750  0.2162
  578loPI   C5A 9243  10.627  14.863   8.751 -0.0724  0.1373 -0.1959
  578loPI   C6A 9244  10.412  15.173   8.484  0.1006 -0.0249  0.1240
  578loPI   C1B 9245  10.179  14.996  10.352 -0.0308 -0.0234  0.4840
  578loPI   C2B 9246  10.220  15.097   9.961 -0.1786  0.2981  0.0636
  578loPI   C3B 9247  10.236  15.222   9.558  0.0569  0.1304 -0.0428
  578loPI   C4B 9248  10.324  15.067   9.112 -0.0278 -0.2873  0.0622
  579loPI    C1 9249   3.620   6.555  11.501 -0.1290  0.3109 -0.0076
  579loPI    C2 9250   3.592   6.707  11.870  0.0585 -0.1025  0.1832
  579loPI    C3 9251   3.498   6.324  11.804  0.1215 -0.0587 -0.1811
  579loPI   PO4 9252   3.429   6.721  11.358 -0.1810 -0.3163  0.2661
  579loPI   GL1 9253   3.144   6.769  10.929 -0.0512  0.1993 -0.0449
  579loPI   GL2 9254   2.804   6.704  10.831  0.2024 -0.1388 -0.0716
  579loPI   C1A 9255   3.367   6.825  10.549  0.2441  0.0608  0.0114
  579loPI   C2A 9256   3.362   6.865  10.161 -0.2808  0.1542  0.2573
  579loPI   C3A 9257   3.327   6.910   9.742 -0.2361 -0.0294  0.3423
  579loPI   C4A 9258   3.357   6.954   9.276 -0.1387  0.1849  0.1310
  579loPI   C5A 9259   3.515   6.796   8.774  0.0370  0.1489  0.0169
  579loPI   C6A 9260   3.588   6.782   8.329 -0.1642 -0.0881  0.0302
  579loPI   C1B 9261   2.904   6.706  10.472 -0.1153 -0.0069  0.0596
  579loPI   C2B 9262   2.946   6.726  10.062 -0.0524  0.0305  0.3778
  579loPI   C3B 9263   2.859   6.691   9.604 -0.2690 -0.0745  0.1995
  579loPI   C4B 9264   2.889   6.775   9.138 -0.1366 -0.1576 -0.0708
  580loPI    C1 9265  16.707  16.225  11.798  0.0498  0.3563  0.1078
  580loPI    C2 9266  16.355  16.211  11.987 -0.0153  0.0778 -0.0284
  580loPI    C3 9267  16.667  16.006  12.130  0.0770  0.2759  0.0583
  580loPI   PO4 9268  16.624  16.225  11.506 -0.2377  0.0638 -0.2633
  580loPI   GL1 9269  16.373  16.081  11.021  0.0703  0.1169 -0.2100
  580loPI   GL2 9270  16.622  16.016  11.060  0.1089  0.2898 -0.2545
  580loPI   C1A 9271  16.370  16.101  10.613 -0.0090 -0.1823 -0.1672
  580loPI   C2A 9272  16.412  16.156  10.181 -0.0240  0.0184 -0.1394
  580loPI   C3A 9273  16.428  16.160   9.726  0.2425  0.0642  0.0766
  580loPI   C4A 9274  16.397  16.154   9.272  0.1207 -0.0917 -0.0197
  580loPI   C5A 9275  16.023  16.119   9.015 -0.1981  0.0409  0.2291
  580loPI   C6A 9276  15.737  15.852   8.736 -0.1262  0.0231  0.0776
  580loPI   C1B 9277  16.777  15.844  10.585  0.5300  0.0459 -0.1014
  580loPI   C2B 9278  16.753  15.764  10.137  0.4308 -0.1872 -0.2020
  580loPI   C3B 9279  16.808  15.790   9.667  0.1015 -0.1733  0.1288
  580loPI   C4B 9280  16.791  15.819   9.163  0.0635  0.0218 -0.4351
  581loPI    C1 9281  14.788   4.060  11.596  0.0792 -0.0326  0.2375
  581loPI    C2 9282  15.141   4.220  11.695  0.1538  0.0351 -0.1259
  581loPI    C3 9283  14.869   4.146  11.978  0.3665  0.2044  0.1273
  581loPI   PO4 9284  14.807   4.051  11.334  0.0620 -0.0826  0.1880
  581loPI   GL1 9285  14.885   3.971  10.961 -0.0234  0.2827 -0.1206
  581loPI   GL2 9286  14.622   3.765  10.949  0.0197 -0.0750 -0.1033
  581loPI   C1A 9287  14.875   3.941  10.504 -0.0426  0.2092  0.3425
  581loPI   C2A 9288  14.946   3.877  10.088  0.0095  0.0388 -0.2928
  581loPI   C3A 9289  14.982   4.031   9.760 -0.1790  0.0204  0.0241
  581loPI   C4A 9290  14.995   4.062   9.196 -0.4214  0.0036 -0.3144
  581loPI   C5A 9291  15.131   4.117   8.691 -0.0236  0.2121  0.2547
  581loPI   C6A 9292  15.234   4.374   8.405  0.0823  0.0318 -0.0019
  581loPI   C1B 9293  14.365   3.773  10.561  0.1214 -0.2024 -0.2081
  581loPI   C2B 9294  14.408   3.796  10.117  0.0852 -0.4275 -0.1747
  581loPI   C3B 9295  14.526   3.828   9.678  0.0174 -0.0650  0.0915
  581loPI   C4B 9296  14.541   3.806   9.282  0.0876  0.0053  0.1833
  582loPI    C1 9297   6.826   4.634  11.510  0.1866 -0.0629  0.0373
  582loPI    C2 9298   6.624   4.500  11.829 -0.1530  0.1424 -0.0854
  582loPI    C3 9299   6.972   4.693  11.878 -0.1141  0.0166  0.1469
  582loPI   PO4 9300   6.762   4.427  11.340  0.0196 -0.1054 -0.3095
  582loPI   GL1 9301   6.677   4.478  10.910  0.2556  0.2399 -0.2461
  582loPI   GL2 9302   6.921   4.359  10.835 -0.2315 -0.2123  0.3927
  582loPI   C1A 9303   6.477   4.469  10.471 -0.0989  0.0176  0.2464
  582loPI   C2A 9304   6.421   4.485  10.160 -0.0363  0.0078  0.0892
  582loPI   C3A 9305   6.407   4.552   9.762  0.0384  0.1761 -0.0397
  582loPI   C4A 9306   6.452   4.633   9.371 -0.2869 -0.1220  0.0673
  582loPI   C5A 9307   6.457   4.726   8.940  0.1099 -0.0227 -0.1057
  582loPI   C6A 9308   6.586   4.381   8.559 -0.0948  0.0454 -0.2668
  582loPI   C1B 9309   6.902   4.090  10.465 -0.0891  0.0762 -0.1209
  582loPI   C2B 9310   6.837   4.190  10.082  0.1170 -0.0538  0.0543
  582loPI   C3B 9311   6.808   4.223   9.619  0.1479 -0.0838 -0.0715
  582loPI   C4B 9312   6.835   4.344   9.117  0.0051  0.1081  0.1276
  583loPI    C1 9313   7.155  13.730  11.281 -0.1634  0.2513 -0.1043
  583loPI    C2 9314   7.545  13.787  11.212 -0.1142  0.1601  0.0916
  583loPI    C3 9315   7.427  13.544  11.508 -0.3199 -0.1744 -0.2548
  583loPI   PO4 9316   7.070  13.713  11.096 -0.1492  0.0475 -0.1354
  583loPI   GL1 9317   7.294  13.623  10.628 -0.1548  0.3823  0.0874
  583loPI   GL2 9318   7.385  13.893  10.745 -0.0181  0.0923  0.3968
  583loPI   C1A 9319   7.272  13.695  10.206  0.1021  0.1356  0.2084
  583loPI   C2A 9320   7.160  13.687   9.767  0.0239 -0.0709 -0.0862
  583loPI   C3A 9321   7.179  13.698   9.340  0.1070 -0.2609 -0.1370
  583loPI   C4A 9322   7.188  13.721   8.969 -0.1046  0.0448 -0.0511
  583loPI   C5A 9323   6.955  13.623   8.626  0.0449 -0.1791 -0.2188
  583loPI   C6A 9324   6.530  13.661   8.456 -0.0572  0.0796 -0.0556
  583loPI   C1B 9325   7.364  14.139  10.391  0.0866  0.0441 -0.1465
  583loPI   C2B 9326   7.322  14.193   9.909  0.0322  0.3600 -0.0510
  583loPI   C3B 9327   7.258  14.164   9.465  0.1192  0.2159 -0.2561
  583loPI   C4B 9328   7.289  14.241   9.030 -0.0495  0.1728  0.0068
  584loPI    C1 9329  13.356   2.894  11.666  0.0648  0.0369 -0.2006
  584loPI    C2 9330  13.699   2.842  11.865 -0.1790 -0.1005  0.1976
  584loPI    C3 9331  13.471   3.162  11.940 -0.1725 -0.0434 -0.0183
  584loPI   PO4 9332  13.445   2.755  11.457 -0.0686  0.0175  0.1423
  584loPI   GL1 9333  13.686   2.829  11.122 -0.1772 -0.2878  0.1995
  584loPI   GL2 9334  13.462   3.038  10.989 -0.1019 -0.0816 -0.0943
  584loPI   C1A 9335  13.725   2.733  10.738  0.2315  0.1319  0.3133
  584loPI   C2A 9336  13.760   2.622  10.345  0.2305  0.2307 -0.1774
  584loPI   C3A 9337  13.759   2.724   9.996  0.1101 -0.0476  0.3978
  584loPI   C4A 9338  13.754   2.672   9.618 -0.0931  0.2016  0.1107
  584loPI   C5A 9339  13.877   2.653   9.244 -0.0989  0.1830 -0.2459
  584loPI   C6A 9340  14.162   2.473   9.101  0.2188 -0.0434 -0.0879
  584loPI   C1B 9341  13.352   2.911  10.493 -0.1244 -0.0336 -0.0093
  584loPI   C2B 9342  13.410   3.055  10.087 -0.0723 -0.0966  0.0623
  584loPI   C3B 9343  13.375   3.052   9.706  0.1398 -0.1225 -0.0740
  584loPI   C4B 9344  13.415   2.927   9.248  0.1208  0.0927  0.0012
  585loPI    C1 9345   8.417  16.038  11.850 -0.0019 -0.0174  0.0301
  585loPI    C2 9346   8.180  16.356  11.902  0.0230  0.0026  0.0201
  585loPI    C3 9347   8.195  16.070  12.181 -0.2787 -0.1719 -0.1368
  585loPI   PO4 9348   8.491  16.134  11.595  0.1824  0.2543  0.0599
  585loPI   GL1 9349   8.493  16.146  11.194 -0.1524  0.0228 -0.2843
  585loPI   GL2 9350   8.344  16.344  11.011 -0.0828  0.2541  0.1380
  585loPI   C1A 9351   8.690  16.046  10.829  0.1858 -0.3344 -0.0048
  585loPI   C2A 9352   8.590  15.949  10.415  0.1726  0.2187  0.2495
  585loPI   C3A 9353   8.607  15.946  10.006  0.0277 -0.4230 -0.0557
  585loPI   C4A 9354   8.675  15.953   9.602 -0.2855 -0.1732 -0.2278
  585loPI   C5A 9355   8.543  16.177   9.331  0.0511 -0.0173  0.0606
  585loPI   C6A 9356   8.515  16.214   8.923  0.0793  0.2643  0.0760
  585loPI   C1B 9357   8.296  16.301  10.647 -0.0972  0.0082 -0.0044
  585loPI   C2B 9358   8.292  16.293  10.164  0.0925 -0.1643 -0.0043
  585loPI   C3B 9359   8.238  16.321   9.724  0.0760  0.0938  0.1418
  585loPI   C4B 9360   8.124  16.380   9.315  0.0436 -0.3205  0.2121
  586loPI    C1 9361   9.776  15.788  11.696 -0.0281  0.0126  0.1721
  586loPI    C2 9362  10.043  15.904  11.970  0.0561 -0.2150  0.1887
  586loPI    C3 9363   9.652  15.947  12.042  0.0851  0.3410  0.0660
  586loPI   PO4 9364   9.991  15.548  11.572 -0.3353 -0.0545 -0.1215
  586loPI   GL1 9365  10.143  15.613  11.169  0.0227  0.1602 -0.1507
  586loPI   GL2 9366   9.834  15.524  11.043  0.2479  0.1157  0.0439
  586loPI   C1A 9367  10.286  15.502  10.743  0.3521  0.2380  0.1291
  586loPI   C2A 9368  10.326  15.541  10.287  0.1149 -0.0413  0.2869
  586loPI   C3A 9369  10.325  15.616   9.846 -0.2497 -0.2288  0.1318
  586loPI   C4A 9370  10.425  15.649   9.390  0.1489  0.0957  0.0808
  586loPI   C5A 9371  10.472  15.550   8.944  0.1163  0.4529 -0.0441
  586loPI   C6A 9372  10.104  15.474   8.708  0.1674 -0.0038 -0.1575
  586loPI   C1B 9373   9.805  15.474  10.652 -0.3398 -0.0428 -0.0366
  586loPI   C2B 9374   9.820  15.462  10.136 -0.1326  0.0026 -0.0141
  586loPI   C3B 9375   9.851  15.534   9.697 -0.0035 -0.0274  0.0931
  586loPI   C4B 9376   9.940  15.523   9.212  0.0818  0.1876  0.5583
  587loPI    C1 9377  10.388  13.864  11.301  0.0717 -0.1132 -0.0670
  587loPI    C2 9378  10.630  13.811  11.615  0.0560  0.0426 -0.0283
  587loPI    C3 9379  10.346  14.093  11.626 -0.0046 -0.0133 -0.1467
  587loPI   PO4 9380  10.530  13.846  11.157  0.1207 -0.1679 -0.0127
  587loPI   GL1 9381  10.531  14.050  10.821  0.2320  0.1873 -0.1379
  587loPI   GL2 9382  10.443  14.311  10.709 -0.0854 -0.0946  0.1157
  587loPI   C1A 9383  10.846  13.931  10.554  0.1024 -0.3709  0.1446
  587loPI   C2A 9384  10.897  13.877  10.110  0.1455 -0.2084  0.1207
  587loPI   C3A 9385  10.888  13.896   9.660 -0.1948  0.1270  0.1544
  587loPI   C4A 9386  10.869  13.884   9.179 -0.0388  0.1906  0.2111
  587loPI   C5A 9387  11.079  13.878   8.760  0.0383  0.0874 -0.2274
  587loPI   C6A 9388  11.178  14.256   8.467  0.1129 -0.1093  0.0830
  587loPI   C1B 9389  10.553  14.201  10.269 -0.2203  0.1653 -0.2697
  587loPI   C2B 9390  10.534  14.170   9.892  0.1148  0.1636  0.1373
  587loPI   C3B 9391  10.469  14.245   9.439 -0.3837  0.2320 -0.2359
  587loPI   C4B 9392  10.521  14.223   9.034  0.0351  0.1369  0.1375
  588loPI    C1 9393   2.760   1.047  11.469 -0.0562  0.0156 -0.1078
  588loPI    C2 9394   2.750   1.432  11.577  0.0650 -0.0455  0.1289
  588loPI    C3 9395   2.890   1.157  11.831 -0.0095 -0.2452 -0.0431
  588loPI   PO4 9396   2.594   1.006  11.375  0.0312  0.0082 -0.1070
  588loPI   GL1 9397   2.524   0.850  10.934  0.0382  0.4686 -0.2095
  588loPI   GL2 9398   2.309   1.173  10.886  0.0111  0.1121 -0.4689
  588loPI   C1A 9399   2.503   0.934  10.486  0.1266 -0.0435 -0.2196
  588loPI   C2A 9400   2.397   0.923  10.089 -0.3634 -0.1055 -0.2777
  588loPI   C3A 9401   2.438   0.990   9.640 -0.0013 -0.1266  0.4371
  588loPI   C4A 9402   2.503   1.086   9.215  0.2359  0.0897 -0.1810
  588loPI   C5A 9403   2.408   1.391   8.810  0.3723  0.1393 -0.0308
  588loPI   C6A 9404   2.640   1.650   8.673  0.1949  0.0155 -0.4311
  588loPI   C1B 9405   2.111   1.243  10.497  0.0127 -0.0908  0.0435
  588loPI   C2B 9406   2.009   1.254  10.135  0.1411 -0.2600 -0.0233
  588loPI   C3B 9407   2.067   1.311   9.795  0.1730  0.1188  0.0951
  588loPI   C4B 9408   2.104   1.418   9.324 -0.2015  0.2902 -0.0142
  589loPI    C1 9409  15.560   8.650  11.489  0.1413 -0.2519  0.0764
  589loPI    C2 9410  15.535   8.840  11.840 -0.0114 -0.0942 -0.0179
  589loPI    C3 9411  15.807   8.552  11.788 -0.0332 -0.1665  0.2512
  589loPI   PO4 9412  15.564   8.832  11.318 -0.0355 -0.0648  0.0647
  589loPI   GL1 9413  15.349   9.063  11.082  0.0606 -0.3307  0.1096
  589loPI   GL2 9414  15.668   9.228  10.898  0.0062  0.2630 -0.1300
  589loPI   C1A 9415  15.315   9.126  10.612  0.0711 -0.0432 -0.1627
  589loPI   C2A 9416  15.311   9.217  10.185 -0.2005 -0.0714 -0.3954
  589loPI   C3A 9417  15.313   9.264   9.741  0.0233 -0.0698 -0.0497
  589loPI   C4A 9418  15.212   9.285   9.302  0.3377 -0.1630  0.2612
  589loPI   C5A 9419  15.469   9.481   8.977 -0.0290 -0.3566  0.2785
  589loPI   C6A 9420  15.589   9.517   8.565 -0.1020  0.0664  0.0262
  589loPI   C1B 9421  15.743   9.347  10.463 -0.0490  0.0430 -0.2025
  589loPI   C2B 9422  15.759   9.434   9.995 -0.1184 -0.2099 -0.2394
  589loPI   C3B 9423  15.772   9.487   9.590 -0.4123 -0.3452  0.0295
  589loPI   C4B 9424  15.875   9.456   9.169 -0.1025 -0.0516 -0.1341
  590loPI    C1 9425  11.909   9.851  11.355 -0.0152 -0.0633  0.2187
  590loPI    C2 9426  11.948   9.544  11.608  0.1205  0.0005  0.2767
  590loPI    C3 9427  12.231   9.825  11.590  0.1527 -0.0461 -0.0062
  590loPI   PO4 9428  11.881   9.786  11.126  0.0731  0.2140 -0.1009
  590loPI   GL1 9429  12.245   9.741  10.782  0.1026  0.1510 -0.1217
  590loPI   GL2 9430  12.327  10.030  10.672  0.0254 -0.2942  0.1773
  590loPI   C1A 9431  12.235   9.591  10.394 -0.0089 -0.2170  0.0325
  590loPI   C2A 9432  12.208   9.653   9.924 -0.3519  0.0194 -0.0960
  590loPI   C3A 9433  12.190   9.667   9.379  0.1149  0.0070  0.0822
  590loPI   C4A 9434  12.118   9.683   8.923 -0.1310  0.0730 -0.2640
  590loPI   C5A 9435  11.911   9.639   8.535  0.0842  0.0050 -0.0499
  590loPI   C6A 9436  11.846   9.647   8.113  0.1204  0.0885 -0.0054
  590loPI   C1B 9437  12.397  10.087  10.271  0.0913  0.2193 -0.0197
  590loPI   C2B 9438  12.228  10.171   9.826  0.2579  0.1666  0.1246
  590loPI   C3B 9439  12.409  10.203   9.381  0.3007  0.0877  0.1966
  590loPI   C4B 9440  12.403  10.218   8.977 -0.3700  0.0861 -0.1469
  591loPI    C1 9441   7.895   0.555  11.423 -0.4000 -0.0835 -0.0376
  591loPI    C2 9442   8.159   0.489  11.716 -0.0978  0.0439 -0.2756
  591loPI    C3 9443   7.796   0.631  11.803 -0.0173  0.0658  0.0372
  591loPI   PO4 9444   8.062   0.514  11.168  0.0192  0.1787  0.0032
  591loPI   GL1 9445   8.257   0.661  10.801 -0.1679  0.2712  0.3583
  591loPI   GL2 9446   8.485   0.423  10.867 -0.0288 -0.1656 -0.0460
  591loPI   C1A 9447   8.212   0.524  10.427  0.0309  0.2855  0.1048
  591loPI   C2A 9448   8.168   0.435   9.933 -0.1281  0.1077  0.0700
  591loPI   C3A 9449   8.095   0.482   9.453 -0.1096  0.0408  0.0221
  591loPI   C4A 9450   8.243   0.569   9.051 -0.0836  0.1399  0.2226
  591loPI   C5A 9451   8.015   0.605   8.645 -0.2483  0.0729  0.0098
  591loPI   C6A 9452   7.872   0.481   8.278  0.2337  0.1490  0.0413
  591loPI   C1B 9453   8.591   0.215  10.450  0.4059  0.2007  0.0068
  591loPI   C2B 9454   8.536   0.031  10.103 -0.4349 -0.1161 -0.2019
  591loPI   C3B 9455   8.536   0.105   9.692 -0.0424  0.2197 -0.1257
  591loPI   C4B 9456   8.543   0.197   9.261  0.4955  0.0019 -0.1854
  592loPI    C1 9457  11.448   9.656  11.568  0.0240 -0.0578 -0.0662
  592loPI    C2 9458  11.403   9.337  11.805  0.2399 -0.0607 -0.0270
  592loPI    C3 9459  11.605   9.656  11.936  0.0724  0.0710 -0.0866
  592loPI   PO4 9460  11.497   9.547  11.332  0.2404 -0.0394  0.1401
  592loPI   GL1 9461  11.545   9.672  10.874  0.1798 -0.2539  0.2807
  592loPI   GL2 9462  11.360   9.887  10.812 -0.2072 -0.1959  0.2580
  592loPI   C1A 9463  11.786   9.477  10.445 -0.0382 -0.1840 -0.3176
  592loPI   C2A 9464  11.734   9.480  10.009 -0.2262  0.2623  0.0100
  592loPI   C3A 9465  11.772   9.488   9.587  0.1468  0.1233 -0.0839
  592loPI   C4A 9466  11.711   9.484   9.021  0.1035  0.1838 -0.1688
  592loPI   C5A 9467  11.376   9.566   8.746  0.0810  0.1113  0.1423
  592loPI   C6A 9468  11.007   9.897   8.763 -0.0464 -0.0455  0.1538
  592loPI   C1B 9469  11.343   9.812  10.360  0.1590 -0.0916  0.4923
  592loPI   C2B 9470  11.290   9.810   9.934  0.1321 -0.1485 -0.0892
  592loPI   C3B 9471  11.311   9.828   9.503  0.0030  0.3735 -0.0751
  592loPI   C4B 9472  11.387   9.981   9.101  0.2614 -0.0701  0.1675
  593loPI    C1 9473   5.717   8.534  11.356 -0.0563  0.1859  0.1255
  593loPI    C2 9474   5.736   8.803  11.652 -0.4172  0.0824  0.2489
  593loPI    C3 9475   5.438   8.536  11.644 -0.1617 -0.2033  0.0322
  593loPI   PO4 9476   5.764   8.699  11.140  0.0868 -0.1712  0.2791
  593loPI   GL1 9477   5.739   8.808  10.726  0.2352  0.1401 -0.1765
  593loPI   GL2 9478   5.966   8.656  10.670 -0.3723 -0.0989 -0.1951
  593loPI   C1A 9479   5.713   8.993  10.305 -0.1849 -0.4127 -0.1144
  593loPI   C2A 9480   5.723   9.044   9.848 -0.0230  0.0148  0.1783
  593loPI   C3A 9481   5.659   9.011   9.497  0.0403 -0.0477 -0.0536
  593loPI   C4A 9482   5.726   9.084   8.964  0.1606 -0.1169 -0.3995
  593loPI   C5A 9483   5.822   9.028   8.548  0.0360  0.0667  0.1699
  593loPI   C6A 9484   6.105   9.261   8.315  0.1425 -0.0027 -0.2868
  593loPI   C1B 9485   6.086   8.615  10.202 -0.1287  0.0713 -0.3086
  593loPI   C2B 9486   6.085   8.677   9.707  0.2477 -0.2505  0.0943
  593loPI   C3B 9487   6.093   8.692   9.238  0.2831  0.1864  0.2017
  593loPI   C4B 9488   6.073   8.653   8.812 -0.0393  0.0138  0.0431
  594loPI    C1 9489   2.554  17.549  11.772  0.1935 -0.0161 -0.0793
  594loPI    C2 9490   2.842  17.428  12.022 -0.0359 -0.0676  0.1657
  594loPI    C3 9491   2.458  17.375  12.119 -0.1309  0.0513 -0.1318
  594loPI   PO4 9492   2.561  17.444  11.565  0.0663  0.1295  0.1291
  594loPI   GL1 9493   2.466  17.437  11.090  0.0999  0.0785  0.2015
  594loPI   GL2 9494   2.604  17.236  10.874  0.1055 -0.0714  0.1112
  594loPI   C1A 9495   2.641  17.795  10.796 -0.0632  0.0039 -0.2983
  594loPI   C2A 9496   2.659  17.863  10.443  0.1218  0.0024 -0.1634
  594loPI   C3A 9497   2.654  17.795  10.070  0.2777  0.1737 -0.0591
  594loPI   C4A 9498   2.715  17.902   9.535 -0.0128 -0.0791 -0.1067
  594loPI   C5A 9499   2.689  17.753   9.043 -0.0114  0.0066  0.2891
  594loPI   C6A 9500   3.035  17.804   8.774  0.0259  0.0746  0.5000
  594loPI   C1B 9501   2.477  17.250  10.495  0.1270  0.0419 -0.0964
  594loPI   C2B 9502   2.483  17.339  10.044  0.3994  0.0707  0.0648
  594loPI   C3B 9503   2.538  17.346   9.617  0.3793 -0.3398  0.0745
  594loPI   C4B 9504   2.550  17.318   9.145  0.0568 -0.0698  0.1822
  595loPI    C1 9505   5.786  11.781  11.573  0.0165  0.1459  0.0265
  595loPI    C2 9506   5.987  11.913  11.892  0.2260 -0.2619  0.0698
  595loPI    C3 9507   5.620  11.760  11.936  0.1935 -0.1775  0.0931
  595loPI   PO4 9508   5.995  11.670  11.464 -0.1010 -0.0987 -0.2537
  595loPI   GL1 9509   6.081  11.760  10.945 -0.0470 -0.1194 -0.0396
  595loPI   GL2 9510   6.414  11.996  10.936 -0.3052  0.0507  0.0493
  595loPI   C1A 9511   5.924  11.749  10.587  0.0212 -0.2631 -0.1885
  595loPI   C2A 9512   5.859  11.796  10.172 -0.2026 -0.0643  0.0727
  595loPI   C3A 9513   5.917  11.878   9.785  0.1195 -0.1485  0.1195
  595loPI   C4A 9514   5.853  11.854   9.362 -0.2351  0.0446 -0.2386
  595loPI   C5A 9515   5.814  12.015   8.999 -0.3786 -0.1588 -0.1406
  595loPI   C6A 9516   5.567  12.083   8.615 -0.2314  0.0359  0.1340
  595loPI   C1B 9517   6.425  11.895  10.423  0.0954  0.0753 -0.1003
  595loPI   C2B 9518   6.436  12.090   9.941  0.2065  0.0947  0.0404
  595loPI   C3B 9519   6.364  12.039   9.504  0.2040 -0.0263 -0.1992
  595loPI   C4B 9520   6.361  12.099   9.092  0.0027  0.1211 -0.0155
  596loPI    C1 9521   8.292   3.676  11.375  0.1206  0.0718  0.0793
  596loPI    C2 9522   8.151   3.456  11.678 -0.1215  0.2013  0.0636
  596loPI    C3 9523   8.412   3.751  11.749  0.1441 -0.0362  0.0938
  596loPI   PO4 9524   8.131   3.837  11.215  0.1422  0.2114 -0.0804
  596loPI   GL1 9525   8.198   3.897  10.766  0.0088  0.3979 -0.1303
  596loPI   GL2 9526   8.127   4.126  10.568  0.1752  0.3415 -0.0954
  596loPI   C1A 9527   8.498   3.787  10.323  0.0013 -0.0462  0.1281
  596loPI   C2A 9528   8.499   3.802   9.848  0.3085  0.0961  0.2799
  596loPI   C3A 9529   8.583   3.826   9.400 -0.2781 -0.2131  0.0640
  596loPI   C4A 9530   8.522   3.984   9.029 -0.2359  0.1951  0.2821
  596loPI   C5A 9531   8.632   4.041   8.523  0.0621 -0.3372 -0.0292
  596loPI   C6A 9532   8.881   4.085   8.169  0.0922  0.0652 -0.0166
  596loPI   C1B 9533   8.142   4.100  10.143  0.0754 -0.1142 -0.2512
  596loPI   C2B 9534   8.187   4.189   9.628  0.2679 -0.1120 -0.1360
  596loPI   C3B 9535   8.169   4.216   9.259  0.0959  0.1116 -0.4042
  596loPI   C4B 9536   8.187   4.292   8.873 -0.1971  0.1005  0.1604
  597loPI    C1 9537   0.562   8.338  11.601 -0.1525  0.1662  0.0764
  597loPI    C2 9538   0.240   8.181  11.778 -0.0989 -0.0278  0.0040
  597loPI    C3 9539   0.278   8.578  11.749 -0.4618 -0.0048 -0.2237
  597loPI   PO4 9540   0.557   8.078  11.362 -0.3035 -0.0203 -0.3432
  597loPI   GL1 9541   0.735   8.106  11.004 -0.0067  0.0102  0.2221
  597loPI   GL2 9542   0.376   8.085  10.894 -0.1666 -0.1753  0.1326
  597loPI   C1A 9543   0.847   7.996  10.571  0.0275 -0.4928  0.2424
  597loPI   C2A 9544   0.879   7.871  10.163 -0.1316  0.2205 -0.1905
  597loPI   C3A 9545   0.872   7.973   9.774  0.4826 -0.1067 -0.0946
  597loPI   C4A 9546   0.928   7.935   9.398  0.0820  0.3027  0.0805
  597loPI   C5A 9547   0.910   8.003   8.989  0.1243  0.1870 -0.1391
  597loPI   C6A 9548   0.893   7.808   8.575  0.0089  0.3215  0.1066
  597loPI   C1B 9549   0.438   8.233  10.483 -0.0960 -0.3289  0.0520
  597loPI   C2B 9550   0.524   8.270  10.072 -0.0279  0.0683 -0.2005
  597loPI   C3B 9551   0.554   8.330   9.663 -0.1780  0.0627  0.3208
  597loPI   C4B 9552   0.567   8.350   9.231 -0.1408  0.0675 -0.3129
  598loPI    C1 9553   4.309   9.119  11.230 -0.1962 -0.3859 -0.2247
  598loPI    C2 9554   4.510   9.247  11.551 -0.0600  0.0118 -0.4614
  598loPI    C3 9555   4.186   9.017  11.597  0.0534 -0.0742 -0.0493
  598loPI   PO4 9556   4.545   9.218  11.009 -0.2821  0.3147 -0.2620
  598loPI   GL1 9557   4.595   9.061  10.661  0.2705 -0.2008  0.1323
  598loPI   GL2 9558   4.921   9.240  10.719  0.1012 -0.2540  0.0145
  598loPI   C1A 9559   4.367   9.011  10.290  0.1641  0.3092  0.2129
  598loPI   C2A 9560   4.309   9.063   9.924  0.0201  0.0119 -0.0124
  598loPI   C3A 9561   4.315   9.112   9.470  0.2278 -0.2503 -0.3049
  598loPI   C4A 9562   4.401   9.059   9.082 -0.4873  0.1322 -0.3423
  598loPI   C5A 9563   4.415   9.119   8.635 -0.1909 -0.0515  0.1337
  598loPI   C6A 9564   4.461   9.273   8.155 -0.0764  0.2924 -0.3093
  598loPI   C1B 9565   4.872   9.164  10.219 -0.3132 -0.1734 -0.1277
  598loPI   C2B 9566   4.783   9.199   9.847  0.0168 -0.0468 -0.0592
  598loPI   C3B 9567   4.827   9.217   9.452 -0.0695 -0.0062  0.2087
  598loPI   C4B 9568   4.826   9.231   8.999  0.0707  0.0014  0.0965
  599loPI    C1 9569  14.839  12.096  11.447 -0.0387 -0.1617  0.1389
  599loPI    C2 9570  15.120  12.172  11.722  0.1389 -0.0360 -0.0731
  599loPI    C3 9571  14.972  11.802  11.683  0.1497 -0.0659  0.1540
  599loPI   PO4 9572  14.876  12.216  11.262 -0.3163 -0.1311 -0.1001
  599loPI   GL1 9573  14.743  12.592  11.103  0.1982  0.1362 -0.1256
  599loPI   GL2 9574  14.518  12.273  10.933 -0.1738 -0.2470  0.4166
  599loPI   C1A 9575  14.757  12.705  10.742 -0.1695  0.1650  0.1920
  599loPI   C2A 9576  14.675  12.809  10.247  0.0637  0.2071 -0.1702
  599loPI   C3A 9577  14.765  12.813   9.872  0.1878 -0.2809 -0.0056
  599loPI   C4A 9578  14.863  12.795   9.403 -0.1254 -0.0093 -0.3806
  599loPI   C5A 9579  14.661  12.795   8.952 -0.0511 -0.2764  0.2617
  599loPI   C6A 9580  14.637  12.749   8.474  0.4331  0.2591  0.3078
  599loPI   C1B 9581  14.596  12.319  10.491  0.0928  0.0669  0.0612
  599loPI   C2B 9582  14.672  12.359  10.070 -0.1803 -0.3230  0.0586
  599loPI   C3B 9583  14.641  12.376   9.616 -0.2861 -0.4453  0.1765
  599loPI   C4B 9584  14.605  12.357   9.237  0.2874 -0.1574 -0.2744
  600loPI    C1 9585   9.616   0.448  11.374  0.0991 -0.0276  0.0860
  600loPI    C2 9586   9.782   0.312  11.712  0.1129 -0.1764  0.0201
  600loPI    C3 9587  10.014   0.430  11.408  0.1002 -0.0746  0.0497
  600loPI   PO4 9588   9.294   0.403  11.304 -0.2500  0.0607  0.0845
  600loPI   GL1 9589   9.091   0.518  10.914 -0.1457 -0.3061 -0.0399
  600loPI   GL2 9590   9.151   0.310  10.751 -0.1100 -0.1200 -0.0685
  600loPI   C1A 9591   9.177   0.792  10.551  0.3302  0.0656 -0.0111
  600loPI   C2A 9592   9.205   0.686  10.115 -0.0366  0.1826 -0.1454
  600loPI   C3A 9593   9.119   0.672   9.714 -0.0653 -0.1555  0.0407
  600loPI   C4A 9594   9.159   0.847   9.313 -0.0576 -0.2801  0.1829
  600loPI   C5A 9595   9.207   0.808   8.814  0.0467 -0.0864  0.1741
  600loPI   C6A 9596   9.251   0.757   8.474  0.0326  0.2941  0.0574
  600loPI   C1B 9597   9.072   0.206  10.388  0.3863  0.2006  0.3746
  600loPI   C2B 9598   9.022   0.216   9.903  0.2502 -0.1792 -0.1707
  600loPI   C3B 9599   9.037   0.238   9.441  0.0170  0.1244 -0.2394
  600loPI   C4B 9600   9.155   0.329   9.075 -0.0661  0.0600 -0.1219
  601loPI    C1 9601   8.889   9.931  11.408  0.1522  0.0390  0.0115
  601loPI    C2 9602   9.115  10.250  11.494  0.1238  0.0145  0.1819
  601loPI    C3 9603   9.039   9.978  11.776 -0.0728 -0.0062  0.1105
  601loPI   PO4 9604   8.898   9.888  11.130  0.2247  0.2099 -0.1419
  601loPI   GL1 9605   8.795  10.030  10.733 -0.0525 -0.3408 -0.1284
  601loPI   GL2 9606   8.596   9.749  10.727 -0.0068  0.1899  0.0663
  601loPI   C1A 9607   9.091   9.995  10.505  0.0085  0.2633 -0.0216
  601loPI   C2A 9608   9.128  10.014  10.030 -0.1461  0.0090 -0.1308
  601loPI   C3A 9609   9.135  10.112   9.585  0.0516  0.3805 -0.0993
  601loPI   C4A 9610   9.102  10.187   9.166 -0.1899 -0.0607  0.0103
  601loPI   C5A 9611   9.067  10.305   8.718  0.0217 -0.3155  0.1154
  601loPI   C6A 9612   9.259  10.610   8.382 -0.1860 -0.2724  0.4050
  601loPI   C1B 9613   8.651   9.863  10.294  0.0932  0.3120  0.0156
  601loPI   C2B 9614   8.660   9.864   9.796 -0.0038 -0.0762  0.3254
  601loPI   C3B 9615   8.645  10.011   9.345 -0.2348  0.0012 -0.0486
  601loPI   C4B 9616   8.739   9.980   8.913  0.0480 -0.0038 -0.3341
  602loPI    C1 9617   6.686   7.257  11.233  0.2106 -0.1502  0.1308
  602loPI    C2 9618   6.843   7.087  11.559  0.0301 -0.0620  0.2650
  602loPI    C3 9619   6.565   7.372  11.596 -0.1804 -0.2335  0.0312
  602loPI   PO4 9620   6.678   7.184  11.044 -0.1364 -0.0708 -0.1980
  602loPI   GL1 9621   6.564   6.915  10.707 -0.0033 -0.0635 -0.4518
  602loPI   GL2 9622   6.268   6.782  10.723 -0.1137 -0.2620 -0.1681
  602loPI   C1A 9623   6.594   6.934  10.343 -0.0361 -0.0934  0.1572
  602loPI   C2A 9624   6.509   6.954   9.862 -0.1266  0.0494 -0.3526
  602loPI   C3A 9625   6.553   7.003   9.485  0.0627 -0.1034  0.5614
  602loPI   C4A 9626   6.575   7.097   9.032 -0.0847 -0.2466  0.1910
  602loPI   C5A 9627   6.744   7.120   8.706 -0.1296 -0.0743 -0.0232
  602loPI   C6A 9628   6.718   7.470   8.364  0.1944  0.4050  0.1993
  602loPI   C1B 9629   6.105   6.749  10.325  0.1599 -0.1137  0.3965
  602loPI   C2B 9630   6.057   6.726   9.874  0.2134 -0.0156 -0.0750
  602loPI   C3B 9631   6.112   6.907   9.399 -0.3002  0.0384 -0.0941
  602loPI   C4B 9632   6.085   6.889   8.943  0.1705  0.1905 -0.2715
  603loPI    C1 9633  13.919   3.309  11.873  0.0675 -0.0975  0.1138
  603loPI    C2 9634  14.231   3.431  12.092  0.0000  0.0853  0.1090
  603loPI    C3 9635  14.005   3.127  12.219  0.1689 -0.0368  0.1210
  603loPI   PO4 9636  14.062   3.476  11.597  0.1009 -0.0675 -0.2461
  603loPI   GL1 9637  14.000   3.452  11.215 -0.2956  0.0388  0.2271
  603loPI   GL2 9638  14.065   3.628  11.038  0.0731 -0.1077  0.4040
  603loPI   C1A 9639  13.879   3.225  10.829 -0.2811 -0.1743 -0.2074
  603loPI   C2A 9640  13.844   3.161  10.339 -0.1065 -0.0338  0.2526
  603loPI   C3A 9641  13.848   3.189   9.903  0.1306 -0.2177 -0.2332
  603loPI   C4A 9642  13.869   3.145   9.470 -0.3567 -0.0274 -0.0061
  603loPI   C5A 9643  13.958   3.236   9.041  0.2658  0.1648  0.0456
  603loPI   C6A 9644  13.776   3.535   8.723 -0.0213  0.1547  0.0384
  603loPI   C1B 9645  13.892   3.698  10.623  0.1258  0.0988  0.0696
  603loPI   C2B 9646  13.930   3.719  10.187 -0.0643 -0.1022 -0.2049
  603loPI   C3B 9647  14.011   3.692   9.707 -0.1506 -0.0365 -0.1821
  603loPI   C4B 9648  14.016   3.743   9.247 -0.1434 -0.0107  0.2405
  604loPI    C1 9649  10.130   6.089  11.342  0.2112 -0.1325 -0.0035
  604loPI    C2 9650  10.010   5.720  11.439 -0.1172 -0.0326 -0.0198
  604loPI    C3 9651  10.218   5.938  11.702 -0.2428 -0.0914  0.1299
  604loPI   PO4 9652   9.992   6.128  11.077  0.0278  0.0959 -0.0613
  604loPI   GL1 9653  10.131   6.257  10.607  0.1676 -0.1276 -0.2219
  604loPI   GL2 9654   9.710   6.261  10.614  0.1251  0.0039  0.0635
  604loPI   C1A 9655  10.247   6.461  10.240  0.2032 -0.0517 -0.0344
  604loPI   C2A 9656  10.222   6.603   9.956  0.3632 -0.1459 -0.2112
  604loPI   C3A 9657  10.242   6.663   9.521 -0.0203 -0.1538 -0.0352
  604loPI   C4A 9658  10.159   6.700   9.119  0.6370  0.0388 -0.1757
  604loPI   C5A 9659  10.127   6.964   8.768  0.0460  0.1287  0.2253
  604loPI   C6A 9660  10.185   6.996   8.299  0.0146  0.0084  0.1738
  604loPI   C1B 9661   9.762   6.325  10.113  0.0884 -0.0717 -0.2280
  604loPI   C2B 9662   9.670   6.522   9.723  0.0891 -0.1900 -0.1907
  604loPI   C3B 9663   9.648   6.597   9.269 -0.0948  0.0534 -0.0660
  604loPI   C4B 9664   9.689   6.688   8.823  0.0438  0.1052  0.0398
  605loPI    C1 9665  11.940   6.206  11.239 -0.2631 -0.0452  0.1293
  605loPI    C2 9666  11.995   6.585  11.355 -0.1615 -0.0054 -0.0461
  605loPI    C3 9667  12.237   6.298  11.491 -0.2158 -0.0021  0.0583
  605loPI   PO4 9668  11.876   6.269  11.008 -0.1265  0.1495 -0.1670
  605loPI   GL1 9669  12.098   6.162  10.742  0.1431 -0.1013  0.1205
  605loPI   GL2 9670  12.329   5.905  10.585  0.0060 -0.1039 -0.1225
  605loPI   C1A 9671  12.111   6.346  10.354 -0.2372 -0.2364  0.0002
  605loPI   C2A 9672  11.957   6.589  10.115  0.2654 -0.2293  0.3169
  605loPI   C3A 9673  12.069   6.833   9.761 -0.0644  0.1305 -0.0470
  605loPI   C4A 9674  11.899   6.859   9.320 -0.0596  0.0727 -0.0577
  605loPI   C5A 9675  11.714   6.677   9.082  0.0039  0.0672  0.0245
  605loPI   C6A 9676  11.551   6.861   8.645 -0.3471 -0.2433  0.1900
  605loPI   C1B 9677  12.476   6.012  10.278  0.1699  0.0137  0.0711
  605loPI   C2B 9678  12.682   6.115   9.805  0.1132 -0.2043  0.1931
  605loPI   C3B 9679  12.658   6.149   9.320 -0.4565  0.1257 -0.0076
  605loPI   C4B 9680  12.544   5.801   9.005  0.0067 -0.3517 -0.0292
  606loPI    C1 9681   6.911  15.014  11.627 -0.1139 -0.0747 -0.0234
  606loPI    C2 9682   6.658  15.186  11.885 -0.0990 -0.0519 -0.0239
  606loPI    C3 9683   7.011  15.047  12.012  0.0046  0.1615 -0.0721
  606loPI   PO4 9684   6.920  15.111  11.426  0.2514  0.0876  0.1020
  606loPI   GL1 9685   6.726  15.040  11.053 -0.0836 -0.0077 -0.1340
  606loPI   GL2 9686   6.392  15.049  10.964  0.1739  0.1851  0.1657
  606loPI   C1A 9687   7.004  15.039  10.620 -0.1967 -0.2405  0.3151
  606loPI   C2A 9688   7.057  14.988  10.231 -0.0735 -0.1401  0.0934
  606loPI   C3A 9689   7.040  14.989   9.834  0.1104  0.0324 -0.3178
  606loPI   C4A 9690   6.927  15.029   9.486  0.0362 -0.4603  0.1095
  606loPI   C5A 9691   6.927  15.079   9.077  0.2198 -0.1553 -0.0960
  606loPI   C6A 9692   7.065  15.034   8.711 -0.2096  0.0374  0.0591
  606loPI   C1B 9693   6.214  15.144  10.553  0.0793 -0.0044  0.3207
  606loPI   C2B 9694   6.280  15.198  10.139 -0.1618 -0.0160  0.1247
  606loPI   C3B 9695   6.218  15.250   9.754  0.0536 -0.0505 -0.3078
  606loPI   C4B 9696   6.159  15.300   9.380 -0.2161 -0.1876  0.0035
  607loPI    C1 9697   1.021   0.976  11.749  0.0996  0.3394  0.2846
  607loPI    C2 9698   1.263   0.789  12.006 -0.1164  0.0229  0.2636
  607loPI    C3 9699   0.869   0.797  12.073 -0.1892 -0.1688 -0.1163
  607loPI   PO4 9700   1.142   0.954  11.564  0.0892 -0.1026  0.2035
  607loPI   GL1 9701   1.167   0.943  11.041 -0.0015 -0.0724  0.0761
  607loPI   GL2 9702   0.872   0.817  10.950  0.0644 -0.1454 -0.0209
  607loPI   C1A 9703   1.425   0.688  10.677 -0.2135  0.0024 -0.2288
  607loPI   C2A 9704   1.320   0.690  10.313 -0.1012 -0.3246 -0.1728
  607loPI   C3A 9705   1.421   0.685   9.904  0.0701 -0.4522 -0.1283
  607loPI   C4A 9706   1.398   0.705   9.488  0.1103 -0.4755  0.1456
  607loPI   C5A 9707   1.490   0.785   9.036  0.0807 -0.2107 -0.0145
  607loPI   C6A 9708   1.371   1.148   8.734 -0.1234 -0.2166 -0.1675
  607loPI   C1B 9709   0.943   0.945  10.529 -0.0208 -0.0062 -0.1117
  607loPI   C2B 9710   0.973   1.007  10.091  0.0009  0.2144  0.1369
  607loPI   C3B 9711   1.078   1.038   9.648  0.0686  0.2230 -0.0669
  607loPI   C4B 9712   1.136   1.046   9.218  0.0248 -0.2887  0.1244
  608loPI    C1 9713   5.550  13.159  11.545 -0.0398 -0.0006 -0.1585
  608loPI    C2 9714   5.338  12.824  11.601  0.0994 -0.0617  0.0132
  608loPI    C3 9715   5.614  12.933  11.869 -0.0670  0.2845  0.0502
  608loPI   PO4 9716   5.346  13.323  11.343  0.0573 -0.1804 -0.4055
  608loPI   GL1 9717   5.384  13.276  10.916  0.2067  0.1052 -0.0859
  608loPI   GL2 9718   5.348  12.997  10.700 -0.1519  0.0548  0.1841
  608loPI   C1A 9719   5.364  13.499  10.511  0.0351  0.0126  0.0001
  608loPI   C2A 9720   5.387  13.559  10.099  0.1057  0.0264 -0.0013
  608loPI   C3A 9721   5.367  13.551   9.736 -0.1756  0.0560 -0.0807
  608loPI   C4A 9722   5.397  13.591   9.387  0.1444 -0.1974  0.2137
  608loPI   C5A 9723   5.375  13.580   8.933  0.0146  0.0350 -0.1553
  608loPI   C6A 9724   5.336  13.096   8.645 -0.1870  0.0108 -0.6071
  608loPI   C1B 9725   5.316  12.985  10.315  0.3167  0.2879 -0.1956
  608loPI   C2B 9726   5.279  13.133   9.923 -0.1253  0.3435 -0.0256
  608loPI   C3B 9727   5.183  13.019   9.594  0.3806  0.1438  0.2999
  608loPI   C4B 9728   5.216  13.148   9.181 -0.1154 -0.0049  0.1514
  609loPI    C1 9729   4.190   7.924  11.382 -0.0868  0.0690 -0.0917
  609loPI    C2 9730   4.091   8.207  11.118 -0.1668  0.0577 -0.0741
  609loPI    C3 9731   3.895   8.180  11.465  0.0160  0.1469  0.0376
  609loPI   PO4 9732   4.277   7.720  11.118  0.0173  0.0254  0.2731
  609loPI   GL1 9733   3.985   7.638  10.792  0.2297 -0.0949 -0.0140
  609loPI   GL2 9734   4.139   7.855  10.653 -0.1573 -0.0275 -0.3208
  609loPI   C1A 9735   3.960   7.432  10.467 -0.1142  0.1871  0.0840
  609loPI   C2A 9736   4.064   7.531  10.039  0.0278 -0.3713  0.1189
  609loPI   C3A 9737   3.939   7.571   9.632 -0.0850  0.1766  0.0490
  609loPI   C4A 9738   4.003   7.518   9.283  0.1066 -0.2781  0.3053
  609loPI   C5A 9739   4.046   7.516   8.795  0.0557 -0.0084 -0.0076
  609loPI   C6A 9740   4.109   7.941   8.586 -0.0088  0.0937  0.2190
  609loPI   C1B 9741   4.057   8.012  10.308 -0.1275  0.2012  0.0394
  609loPI   C2B 9742   4.082   8.041   9.890  0.2035 -0.1124 -0.1095
  609loPI   C3B 9743   4.054   8.067   9.437 -0.0781  0.0894  0.1529
  609loPI   C4B 9744   4.079   7.994   9.083 -0.1021 -0.3548  0.0810
  610loPI    C1 9745   5.036   4.835  11.767  0.3113 -0.1870 -0.3133
  610loPI    C2 9746   5.016   4.559  12.055  0.0290  0.2017  0.0530
  610loPI    C3 9747   5.286   4.852  12.079  0.1821  0.0869 -0.2212
  610loPI   PO4 9748   5.084   4.721  11.471 -0.1723 -0.0740 -0.1576
  610loPI   GL1 9749   5.112   4.789  11.059 -0.1465 -0.0703  0.0312
  610loPI   GL2 9750   5.055   5.006  10.937 -0.3442 -0.1451 -0.0080
  610loPI   C1A 9751   5.069   4.582  10.629  0.2260 -0.0723  0.1107
  610loPI   C2A 9752   5.147   4.595  10.223 -0.0654  0.2084 -0.0220
  610loPI   C3A 9753   5.110   4.614   9.772 -0.0753 -0.1201  0.0244
  610loPI   C4A 9754   5.071   4.685   9.290 -0.2890  0.3404  0.1057
  610loPI   C5A 9755   5.143   4.687   8.819  0.0030 -0.1862  0.0187
  610loPI   C6A 9756   5.113   4.658   8.370 -0.0094 -0.3919 -0.4329
  610loPI   C1B 9757   5.183   5.054  10.507  0.0862  0.1139  0.3855
  610loPI   C2B 9758   5.218   5.127  10.063  0.2031  0.0057  0.1694
  610loPI   C3B 9759   5.168   5.239   9.566  0.0386  0.2185  0.0007
  610loPI   C4B 9760   5.197   5.146   9.184  0.6052 -0.0914  0.0465
  611loPI    C1 9761   8.459  14.734  11.564  0.1596 -0.1586 -0.0053
  611loPI    C2 9762   8.825  14.768  11.406  0.1542  0.0065  0.0160
  611loPI    C3 9763   8.720  14.995  11.718  0.0207 -0.0140 -0.0134
  611loPI   PO4 9764   8.321  14.684  11.259 -0.0557 -0.2076 -0.2049
  611loPI   GL1 9765   8.060  14.606  10.960 -0.0188  0.1371 -0.0815
  611loPI   GL2 9766   7.811  14.777  11.020  0.2198 -0.1340  0.3352
  611loPI   C1A 9767   8.273  14.532  10.591 -0.3520  0.1603 -0.2366
  611loPI   C2A 9768   8.386  14.518  10.220  0.1698  0.0376  0.1356
  611loPI   C3A 9769   8.299  14.500   9.838  0.1325  0.0510 -0.1143
  611loPI   C4A 9770   8.316  14.561   9.334 -0.3875 -0.2726 -0.1837
  611loPI   C5A 9771   8.318  14.577   8.978  0.0084 -0.2352 -0.0125
  611loPI   C6A 9772   8.587  14.458   8.635 -0.0975  0.0375 -0.0821
  611loPI   C1B 9773   7.840  14.842  10.503 -0.4336 -0.0444  0.1068
  611loPI   C2B 9774   7.872  14.856  10.105 -0.3610  0.2394  0.3119
  611loPI   C3B 9775   7.881  14.850   9.653  0.0395  0.0811 -0.1706
  611loPI   C4B 9776   7.903  14.881   9.209 -0.1309  0.2063  0.0748
  612loPI    C1 9777  12.410   0.209  11.598 -0.1240  0.0132  0.0926
  612loPI    C2 9778  12.617   0.504  11.772  0.1836 -0.0338 -0.1832
  612loPI    C3 9779  12.500   0.188  11.987  0.2842  0.0556  0.0053
  612loPI   PO4 9780  12.507   0.315  11.334  0.0223  0.2363 -0.2281
  612loPI   GL1 9781  12.572   0.126  10.936 -0.2299  0.0670  0.1652
  612loPI   GL2 9782  12.227   0.233  10.926 -0.0462  0.1988 -0.0953
  612loPI   C1A 9783  12.605  -0.121  10.540 -0.0716  0.0016 -0.0919
  612loPI   C2A 9784  12.695  -0.024  10.159  0.2651 -0.1272 -0.0515
  612loPI   C3A 9785  12.664   0.032   9.705 -0.0759 -0.0025 -0.2909
  612loPI   C4A 9786  12.678   0.078   9.116  0.0109 -0.0240 -0.2111
  612loPI   C5A 9787  12.873   0.195   8.771  0.0284 -0.0244 -0.0086
  612loPI   C6A 9788  12.789   0.683   8.762  0.0013 -0.0308  0.2399
  612loPI   C1B 9789  12.257   0.320  10.532 -0.1690 -0.0275  0.2412
  612loPI   C2B 9790  12.213   0.343  10.077  0.0474  0.0940 -0.1443
  612loPI   C3B 9791  12.252   0.397   9.618 -0.2571 -0.0617 -0.1557
  612loPI   C4B 9792  12.244   0.473   9.224 -0.0662 -0.1237 -0.0447
  613loPI    C1 9793  15.385   3.481  11.504  0.1154 -0.0701  0.0708
  613loPI    C2 9794  15.077   3.628  11.295 -0.0175 -0.5609 -0.0927
  613loPI    C3 9795  15.114   3.714  11.684 -0.0553 -0.0617 -0.1924
  613loPI   PO4 9796  15.614   3.554  11.263  0.3539 -0.3637 -0.0145
  613loPI   GL1 9797  15.649   3.800  10.916 -0.1553  0.2572 -0.3660
  613loPI   GL2 9798  15.372   3.727  10.873 -0.2868 -0.2779  0.2984
  613loPI   C1A 9799  15.785   3.739  10.552  0.2182  0.0168 -0.0644
  613loPI   C2A 9800  15.830   3.789  10.212 -0.1921 -0.0251 -0.1370
  613loPI   C3A 9801  15.874   3.858   9.743 -0.1038  0.3034 -0.0109
  613loPI   C4A 9802  15.852   3.858   9.271  0.0362  0.1298 -0.1892
  613loPI   C5A 9803  15.708   3.931   8.839  0.1493 -0.1583 -0.1600
  613loPI   C6A 9804  15.597   3.920   8.403 -0.2249  0.0070  0.2338
  613loPI   C1B 9805  15.266   3.590  10.401  0.1571 -0.0288  0.3621
  613loPI   C2B 9806  15.371   3.674   9.924  0.4238 -0.6223 -0.1081
  613loPI   C3B 9807  15.449   3.704   9.490  0.3272 -0.0352  0.0936
  613loPI   C4B 9808  15.335   3.685   9.014 -0.0377 -0.2388 -0.0649
  614loPI    C1 9809   9.523   9.267  11.765  0.1675 -0.0258  0.1518
  614loPI    C2 9810   9.358   9.609  11.891  0.2113  0.0480  0.0118
  614loPI    C3 9811   9.220   9.258  12.026 -0.0357  0.1094 -0.0748
  614loPI   PO4 9812   9.549   9.339  11.518 -0.0566  0.2695 -0.3050
  614loPI   GL1 9813   9.478   9.400  11.041 -0.3992  0.0469  0.1869
  614loPI   GL2 9814   9.400   9.685  10.948 -0.0084 -0.0756  0.3578
  614loPI   C1A 9815   9.409   9.207  10.699 -0.3207 -0.0734  0.0101
  614loPI   C2A 9816   9.445   9.103  10.264  0.1799  0.1430  0.2122
  614loPI   C3A 9817   9.415   9.227   9.871 -0.0879 -0.0161 -0.0037
  614loPI   C4A 9818   9.512   9.243   9.485 -0.0308 -0.2658 -0.1101
  614loPI   C5A 9819   9.488   9.310   9.043  0.2280  0.2272 -0.1749
  614loPI   C6A 9820   9.080   9.163   8.823 -0.1533  0.1266  0.0233
  614loPI   C1B 9821   9.479   9.640  10.433  0.0134 -0.0789 -0.1639
  614loPI   C2B 9822   9.572   9.658  10.125  0.1865 -0.0929  0.0776
  614loPI   C3B 9823   9.532   9.803   9.685 -0.0783  0.2035 -0.0251
  614loPI   C4B 9824   9.450   9.831   9.265  0.2697 -0.1438  0.0179
  615loPI    C1 9825   6.460  11.601  11.332  0.0477 -0.1087  0.1387
  615loPI    C2 9826   6.632  11.663  11.687 -0.0462 -0.2799  0.2151
  615loPI    C3 9827   6.400  11.946  11.525  0.0727 -0.1638  0.2456
  615loPI   PO4 9828   6.630  11.541  11.164  0.2948  0.5081  0.1341
  615loPI   GL1 9829   6.672  11.457  10.753  0.1827  0.1411  0.0207
  615loPI   GL2 9830   6.379  11.461  10.628  0.0312 -0.1390  0.1751
  615loPI   C1A 9831   6.800  11.555  10.382 -0.1034 -0.2289 -0.3086
  615loPI   C2A 9832   6.769  11.603   9.953 -0.0272  0.2109  0.1516
  615loPI   C3A 9833   6.738  11.702   9.494  0.3077 -0.1398  0.0590
  615loPI   C4A 9834   6.732  11.750   9.088  0.0868 -0.0279  0.0015
  615loPI   C5A 9835   6.666  11.953   8.717 -0.1745 -0.1076  0.2063
  615loPI   C6A 9836   6.862  12.032   8.330 -0.1875 -0.0768 -0.0357
  615loPI   C1B 9837   6.307  11.446  10.170 -0.0794  0.0306 -0.1193
  615loPI   C2B 9838   6.285  11.561   9.750  0.3931 -0.1282  0.1919
  615loPI   C3B 9839   6.274  11.606   9.309  0.3279  0.2690  0.1956
  615loPI   C4B 9840   6.242  11.608   8.929  0.0971  0.1840 -0.0122
  616loPI    C1 9841  14.061   1.365  11.792 -0.1309 -0.0883  0.0822
  616loPI    C2 9842  14.034   1.249  12.174 -0.0667 -0.0175  0.1087
  616loPI    C3 9843  13.703   1.288  11.952 -0.1193  0.1147  0.2094
  616loPI   PO4 9844  14.183   1.235  11.629  0.0770  0.2887 -0.0598
  616loPI   GL1 9845  14.303   1.152  11.202  0.1230 -0.1328  0.2953
  616loPI   GL2 9846  13.966   1.178  11.098 -0.1593  0.0028  0.1532
  616loPI   C1A 9847  14.626   1.124  10.922  0.2025  0.0216  0.0971
  616loPI   C2A 9848  14.659   1.176  10.591  0.1455  0.2648 -0.0181
  616loPI   C3A 9849  14.804   1.154  10.132 -0.0837  0.0695  0.2108
  616loPI   C4A 9850  14.782   1.189   9.669 -0.0562  0.0801  0.0220
  616loPI   C5A 9851  14.743   1.222   9.214 -0.1132  0.0410  0.0658
  616loPI   C6A 9852  14.514   1.270   8.896  0.0622  0.1600 -0.0096
  616loPI   C1B 9853  13.772   1.255  10.691 -0.2138 -0.0974 -0.0266
  616loPI   C2B 9854  13.855   1.309  10.284  0.0258  0.2644  0.0261
  616loPI   C3B 9855  13.843   1.349   9.819  0.1144 -0.1439  0.1585
  616loPI   C4B 9856  13.760   1.322   9.472  0.3101  0.0845 -0.0577
  617loPI    C1 9857   5.764   2.260  11.398 -0.0676  0.0661 -0.0088
  617loPI    C2 9858   5.527   2.097  11.676 -0.1606  0.1260 -0.0525
  617loPI    C3 9859   5.922   2.117  11.737 -0.1648  0.0137  0.0146
  617loPI   PO4 9860   5.695   2.115  11.174  0.0535  0.1582 -0.1348
  617loPI   GL1 9861   5.879   2.149  10.848  0.0277  0.0617  0.1722
  617loPI   GL2 9862   5.914   1.983  10.720 -0.2867 -0.0047 -0.0896
  617loPI   C1A 9863   5.939   2.491  10.562  0.1127  0.4769 -0.0572
  617loPI   C2A 9864   5.941   2.553  10.114  0.2743 -0.2008 -0.1560
  617loPI   C3A 9865   5.933   2.541   9.673 -0.0844 -0.2638 -0.1698
  617loPI   C4A 9866   5.967   2.683   9.270  0.0889  0.1114 -0.0957
  617loPI   C5A 9867   5.942   2.624   8.818 -0.3059 -0.1552 -0.1977
  617loPI   C6A 9868   5.734   2.341   8.515  0.1846  0.2407  0.0004
  617loPI   C1B 9869   5.925   2.060  10.269  0.3244 -0.0599  0.0869
  617loPI   C2B 9870   5.812   2.099   9.872  0.0086 -0.1132 -0.2461
  617loPI   C3B 9871   5.763   2.101   9.417  0.2124 -0.3548 -0.1373
  617loPI   C4B 9872   5.745   2.106   8.982  0.2042 -0.0141  0.1430
  618loPI    C1 9873  15.286   7.780  11.206  0.3045  0.2604 -0.3158
  618loPI    C2 9874  15.167   8.043  10.930 -0.2834  0.1995 -0.1336
  618loPI    C3 9875  15.044   8.081  11.309  0.0037 -0.0750 -0.0087
  618loPI   PO4 9876  15.591   7.796  11.153 -0.3708  0.0568 -0.1908
  618loPI   GL1 9877  15.763   8.033  10.799 -0.0364 -0.0935 -0.1388
  618loPI   GL2 9878  16.124   7.898  10.700 -0.0933 -0.0693 -0.1833
  618loPI   C1A 9879  15.691   8.298  10.506  0.1194  0.0936 -0.1627
  618loPI   C2A 9880  15.612   8.396  10.073 -0.2384 -0.1665  0.1106
  618loPI   C3A 9881  15.610   8.397   9.595  0.0958 -0.2774  0.1158
  618loPI   C4A 9882  15.230   8.276   9.638 -0.1201  0.3018  0.0011
  618loPI   C5A 9883  15.077   8.188  10.058 -0.1654 -0.1113 -0.2285
  618loPI   C6A 9884  15.038   8.157  10.520  0.0593 -0.1236 -0.1008
  618loPI   C1B 9885  16.035   7.991  10.314  0.1054  0.0546  0.3707
  618loPI   C2B 9886  15.987   8.049   9.805  0.0625  0.1101  0.0650
  618loPI   C3B 9887  15.997   8.055   9.360 -0.2457  0.1146  0.1500
  618loPI   C4B 9888  15.863   8.160   9.068 -0.0834  0.3140 -0.0696
  619loPI    C1 9889  10.898  12.089  11.661  0.2437 -0.0396  0.1201
  619loPI    C2 9890  10.868  12.131  12.058  0.0101 -0.0162  0.1011
  619loPI    C3 9891  10.602  11.907  11.859  0.0935  0.0169 -0.0494
  619loPI   PO4 9892  11.114  12.049  11.606 -0.2396 -0.3211  0.0677
  619loPI   GL1 9893  11.208  11.984  11.207 -0.0717  0.0534  0.1772
  619loPI   GL2 9894  10.962  12.162  11.052 -0.2985 -0.1766 -0.1048
  619loPI   C1A 9895  11.308  11.760  10.842 -0.1786  0.2534  0.1534
  619loPI   C2A 9896  11.333  11.713  10.449  0.3078 -0.1272  0.2304
  619loPI   C3A 9897  11.393  11.646   9.935 -0.0051  0.2971 -0.1555
  619loPI   C4A 9898  11.398  11.697   9.508 -0.1732  0.2631 -0.0275
  619loPI   C5A 9899  11.281  11.653   9.100 -0.3657 -0.6206  0.1140
  619loPI   C6A 9900  10.906  11.851   8.787 -0.0555  0.1293 -0.2208
  619loPI   C1B 9901  10.895  12.012  10.688  0.0707  0.0177  0.1792
  619loPI   C2B 9902  10.980  12.050  10.282 -0.0219  0.2743  0.2065
  619loPI   C3B 9903  11.025  12.017   9.792  0.5135 -0.2377  0.3605
  619loPI   C4B 9904  10.909  12.011   9.405  0.1098  0.0316 -0.0113
  620loPI    C1 9905  15.332  15.658  11.623  0.3404 -0.0403 -0.0789
  620loPI    C2 9906  15.557  15.557  11.938 -0.0408 -0.1491  0.1654
  620loPI    C3 9907  15.251  15.810  11.984  0.0307  0.0025 -0.1636
  620loPI   PO4 9908  15.463  15.625  11.439  0.0174 -0.1220  0.0333
  620loPI   GL1 9909  15.368  15.555  11.044 -0.1491 -0.3234 -0.0525
  620loPI   GL2 9910  15.264  15.222  10.973 -0.3276  0.0253  0.1709
  620loPI   C1A 9911  15.456  15.788  10.669  0.0160 -0.2184  0.1371
  620loPI   C2A 9912  15.380  15.847  10.220  0.0951  0.0705  0.1521
  620loPI   C3A 9913  15.419  15.906   9.817  0.1103  0.1687  0.2261
  620loPI   C4A 9914  15.463  15.875   9.367 -0.3515  0.2632  0.2867
  620loPI   C5A 9915  15.278  15.806   9.007  0.0436 -0.2196  0.0571
  620loPI   C6A 9916  15.221  15.802   8.675 -0.0974 -0.0694 -0.0669
  620loPI   C1B 9917  15.305  15.314  10.574  0.2564 -0.2215  0.1151
  620loPI   C2B 9918  15.328  15.386  10.202 -0.1179  0.1898  0.4653
  620loPI   C3B 9919  15.437  15.370   9.741  0.1187  0.0349  0.2482
  620loPI   C4B 9920  15.344  15.382   9.276 -0.0260  0.1229 -0.0699
  621loPI    C1 9921   9.279  13.502  11.445  0.0631 -0.0051 -0.1504
  621loPI    C2 9922   9.522  13.295  11.686  0.0389  0.1015 -0.0335
  621loPI    C3 9923   9.560  13.692  11.656  0.0519  0.0873 -0.2181
  621loPI   PO4 9924   9.279  13.367  11.208 -0.1197  0.0437 -0.2048
  621loPI   GL1 9925   9.380  13.415  10.801 -0.0351 -0.2207  0.0896
  621loPI   GL2 9926   9.384  13.781  10.758 -0.2978 -0.0815  0.1928
  621loPI   C1A 9927   9.438  13.457  10.407 -0.1764 -0.1940  0.1661
  621loPI   C2A 9928   9.489  13.428   9.993 -0.2380  0.0572  0.0078
  621loPI   C3A 9929   9.367  13.424   9.570 -0.2756  0.1409 -0.0795
  621loPI   C4A 9930   9.429  13.463   9.150  0.2088 -0.1304  0.1283
  621loPI   C5A 9931   9.430  13.507   8.627  0.1028 -0.0527  0.0609
  621loPI   C6A 9932   9.283  13.221   8.346  0.1069  0.1780 -0.1860
  621loPI   C1B 9933   9.550  13.929  10.320 -0.2085  0.0809 -0.0448
  621loPI   C2B 9934   9.576  13.929   9.841 -0.1972 -0.2608 -0.0508
  621loPI   C3B 9935   9.541  14.044   9.430 -0.0255  0.3377 -0.0375
  621loPI   C4B 9936   9.588  13.999   8.971  0.2471  0.3073 -0.1141
  622loPI    C1 9937  15.962  16.499  11.851  0.2365  0.0415  0.1497
  622loPI    C2 9938  15.998  16.866  12.004  0.1987  0.0380  0.1672
  622loPI    C3 9939  15.699  16.629  12.123  0.1114  0.0707  0.0158
  622loPI   PO4 9940  15.868  16.607  11.554  0.0508  0.1437  0.1874
  622loPI   GL1 9941  15.644  16.591  11.176  0.1452 -0.0017 -0.1105
  622loPI   GL2 9942  15.888  16.407  11.070  0.0382 -0.3102 -0.2743
  622loPI   C1A 9943  15.590  16.762  10.813 -0.3269 -0.0928  0.1177
  622loPI   C2A 9944  15.677  16.836  10.430  0.1943 -0.2874 -0.1456
  622loPI   C3A 9945  15.577  16.863   9.988 -0.1893 -0.2368  0.0581
  622loPI   C4A 9946  15.617  16.896   9.494 -0.0745  0.1827 -0.0005
  622loPI   C5A 9947  15.699  16.872   9.007  0.2337 -0.5149  0.2503
  622loPI   C6A 9948  15.515  16.847   8.581 -0.0147  0.1039 -0.0712
  622loPI   C1B 9949  16.010  16.480  10.572  0.4185 -0.0556 -0.0531
  622loPI   C2B 9950  15.986  16.496  10.126  0.0319  0.2654  0.4148
  622loPI   C3B 9951  16.025  16.527   9.684 -0.4145  0.5875  0.0522
  622loPI   C4B 9952  15.993  16.587   9.306 -0.0231  0.1463  0.0787
  623loPI    C1 9953  12.080   8.029  11.802 -0.1224  0.1559  0.2121
  623loPI    C2 9954  12.426   7.842  11.878 -0.1095  0.0666 -0.0557
  623loPI    C3 9955  12.250   8.060  12.163  0.1497  0.0859  0.0932
  623loPI   PO4 9956  12.085   8.151  11.600  0.0486 -0.2020 -0.2803
  623loPI   GL1 9957  11.926   8.324  11.177  0.1910 -0.2467  0.1701
  623loPI   GL2 9958  12.231   8.223  11.085 -0.1603 -0.3751 -0.2920
  623loPI   C1A 9959  11.904   8.549  10.771  0.1632  0.1637 -0.0540
  623loPI   C2A 9960  12.004   8.636  10.324  0.0304  0.2262  0.2723
  623loPI   C3A 9961  12.015   8.656   9.878 -0.5101  0.0185 -0.1848
  623loPI   C4A 9962  12.002   8.648   9.500  0.1995 -0.0826  0.1362
  623loPI   C5A 9963  12.089   8.640   8.977  0.2885 -0.2457  0.0668
  623loPI   C6A 9964  11.878   8.627   8.606 -0.2659 -0.1017  0.3947
  623loPI   C1B 9965  12.373   8.200  10.719  0.1094  0.1880 -0.0417
  623loPI   C2B 9966  12.365   8.259  10.277 -0.0472  0.0973  0.0079
  623loPI   C3B 9967  12.400   8.272   9.845 -0.0066  0.2007 -0.0388
  623loPI   C4B 9968  12.362   8.342   9.411 -0.1904 -0.3662 -0.0980
  624loPI    C1 9969  16.168   2.810  11.421 -0.2276  0.0662 -0.1584
  624loPI    C2 9970  16.339   2.494  11.247  0.0316  0.0584  0.1021
  624loPI    C3 9971  16.168   2.455  11.606 -0.0731  0.1802  0.0658
  624loPI   PO4 9972  16.150   2.929  11.090 -0.1090  0.1832 -0.1008
  624loPI   GL1 9973  16.037   2.850  10.734  0.0810 -0.0790  0.1230
  624loPI   GL2 9974  15.903   2.426  10.723 -0.1134  0.1558 -0.2515
  624loPI   C1A 9975  16.051   2.861  10.302 -0.2075 -0.1893  0.0535
  624loPI   C2A 9976  16.157   3.004   9.878 -0.0175  0.1871 -0.0662
  624loPI   C3A 9977  16.169   2.947   9.385 -0.1461 -0.2064  0.0670
  624loPI   C4A 9978  16.155   2.954   8.919 -0.3194 -0.3155  0.2097
  624loPI   C5A 9979  16.399   3.108   8.586 -0.1537  0.1202  0.0424
  624loPI   C6A 9980  16.413   3.059   8.123 -0.0152  0.1121 -0.2392
  624loPI   C1B 9981  15.926   2.393  10.375 -0.0321  0.3776 -0.0512
  624loPI   C2B 9982  15.951   2.439   9.907  0.0749 -0.3682 -0.0292
  624loPI   C3B 9983  16.027   2.448   9.526  0.0483 -0.4914 -0.1344
  624loPI   C4B 9984  16.062   2.477   9.094 -0.2177 -0.1091 -0.0969
  625loPI    C1 9985   0.645  10.445  11.395 -0.1092  0.1847 -0.1461
  625loPI    C2 9986   0.322  10.290  11.574  0.1116 -0.0706  0.0391
  625loPI    C3 9987   0.569  10.530  11.778  0.4183 -0.4429  0.1163
  625loPI   PO4 9988   0.574  10.525  11.170  0.1537 -0.2388  0.1883
  625loPI   GL1 9989   0.389  10.664  10.893 -0.1514 -0.1405 -0.1285
  625loPI   GL2 9990   0.060  10.671  10.845 -0.0090 -0.0604  0.2987
  625loPI   C1A 9991   0.591  10.684  10.568 -0.1116  0.3044  0.4143
  625loPI   C2A 9992   0.608  10.633  10.127  0.2367  0.2020 -0.0606
  625loPI   C3A 9993   0.532  10.632   9.650  0.1658  0.1016 -0.2549
  625loPI   C4A 9994   0.575  10.650   9.251 -0.1301  0.1767  0.0859
  625loPI   C5A 9995   0.476  10.706   8.809 -0.1320 -0.2646  0.0861
  625loPI   C6A 9996   0.262  10.609   8.378  0.1806  0.0589  0.0091
  625loPI   C1B 9997   0.103  10.600  10.427 -0.2347 -0.2506  0.0885
  625loPI   C2B 9998   0.068  10.555   9.999  0.3310 -0.1188 -0.0717
  625loPI   C3B 9999   0.069  10.521   9.499  0.1486 -0.0918  0.2879
  625loPI   C4B10000   0.008  10.448   9.028  0.0307  0.1031  0.2237
  626loPI    C110001  14.100   7.596  11.681 -0.2102  0.1471 -0.0989
  626loPI    C210002  14.085   7.964  11.839 -0.0211  0.0893  0.0559
  626loPI    C310003  13.754   7.741  11.821 -0.1397  0.2714 -0.0513
  626loPI   PO410004  14.323   7.687  11.488 -0.0711  0.3042  0.2939
  626loPI   GL110005  14.383   7.563  11.162  0.2476 -0.1120  0.2003
  626loPI   GL210006  14.148   7.812  10.987  0.1815 -0.0271 -0.0563
  626loPI   C1A10007  14.436   7.467  10.722 -0.0720  0.0079 -0.0512
  626loPI   C2A10008  14.513   7.572  10.281  0.1822  0.0265  0.1685
  626loPI   C3A10009  14.448   7.597   9.861 -0.0489 -0.0337  0.1366
  626loPI   C4A10010  14.497   7.652   9.410 -0.1651 -0.0021  0.0858
  626loPI   C5A10011  14.348   7.825   8.970  0.2922  0.2408 -0.1958
  626loPI   C6A10012  14.490   8.002   8.650 -0.0603 -0.0995  0.0595
  626loPI   C1B10013  13.963   7.867  10.667 -0.0812 -0.1719  0.0862
  626loPI   C2B10014  14.094   7.911  10.242 -0.0068 -0.0533 -0.4172
  626loPI   C3B10015  14.071   8.005   9.763  0.0471  0.0771  0.1990
  626loPI   C4B10016  14.099   7.966   9.414 -0.3240  0.2180  0.3035
  627loPI    C110017  11.932   4.906  10.879 -0.1066 -0.0487 -0.0237
  627loPI    C210018  11.863   5.248  11.075 -0.3625 -0.1134  0.0024
  627loPI    C310019  11.670   4.914  11.180 -0.2030 -0.2399 -0.1009
  627loPI   PO410020  12.030   5.025  10.596 -0.2530  0.2832 -0.3765
  627loPI   GL110021  12.257   5.262  10.344 -0.2367 -0.0205 -0.2500
  627loPI   GL210022  12.346   5.519  10.276  0.2429 -0.0280  0.1048
  627loPI   C1A10023  12.325   5.069   9.929 -0.2168  0.3143  0.0292
  627loPI   C2A10024  11.984   4.887   9.725  0.4708 -0.0752 -0.1068
  627loPI   C3A10025  11.497   4.700   9.614  0.0198 -0.1363 -0.2856
  627loPI   C4A10026  11.357   4.287   9.626  0.1889 -0.1805 -0.0764
  627loPI   C5A10027  10.987   4.068   9.839 -0.0466 -0.0906 -0.0731
  627loPI   C6A10028  10.737   3.584   9.820 -0.0614  0.1745 -0.1512
  627loPI   C1B10029  12.591   5.472   9.866 -0.0453 -0.2072  0.2933
  627loPI   C2B10030  12.481   5.696   9.480 -0.2276  0.0560 -0.0312
  627loPI   C3B10031  12.216   5.973   9.356  0.0137  0.3230  0.1231
  627loPI   C4B10032  12.229   6.411   9.171 -0.0047  0.3162 -0.0571
  628loPI    C110033   2.241   4.231  11.429  0.0857 -0.0153  0.0994
  628loPI    C210034   2.472   3.978  11.636  0.0821 -0.0031  0.1183
  628loPI    C310035   2.261   4.258  11.828 -0.1631 -0.1891  0.1261
  628loPI   PO410036   2.428   4.312  11.174  0.1822  0.1128  0.0540
  628loPI   GL110037   2.305   4.229  10.762  0.2589 -0.2216 -0.1676
  628loPI   GL210038   2.066   4.347  10.717 -0.0142  0.3935  0.0318
  628loPI   C1A10039   2.237   4.176  10.294 -0.1845  0.1303 -0.1875
  628loPI   C2A10040   2.236   4.202   9.869 -0.0690 -0.1928  0.1107
  628loPI   C3A10041   2.317   4.196   9.418 -0.0436 -0.1128  0.0890
  628loPI   C4A10042   2.347   4.230   8.984  0.2516 -0.0802  0.1353
  628loPI   C5A10043   2.234   4.102   8.505 -0.1997 -0.0555 -0.4260
  628loPI   C6A10044   2.370   3.817   8.095 -0.3214  0.2341 -0.3691
  628loPI   C1B10045   1.869   4.476  10.421 -0.3168 -0.0859  0.1948
  628loPI   C2B10046   1.845   4.526   9.957  0.0014  0.0572 -0.0181
  628loPI   C3B10047   1.896   4.551   9.655 -0.0691  0.3224 -0.0112
  628loPI   C4B10048   1.991   4.524   9.225 -0.0665  0.0028 -0.1899
  629loPI    C110049  15.764   4.775  11.497 -0.0912  0.0355  0.0263
  629loPI    C210050  16.121   4.724  11.670 -0.1526 -0.0716  0.1226
  629loPI    C310051  15.882   5.022  11.789 -0.1022 -0.0093  0.0687
  629loPI   PO410052  15.831   4.818  11.195  0.1989 -0.1700 -0.1984
  629loPI   GL110053  15.973   4.835  10.724  0.0932  0.1373 -0.0942
  629loPI   GL210054  15.971   5.218  10.813 -0.2453  0.0126 -0.0895
  629loPI   C1A10055  16.059   4.812  10.246 -0.0812 -0.0953 -0.1199
  629loPI   C2A10056  16.057   4.816   9.841 -0.2451 -0.0567  0.1080
  629loPI   C3A10057  16.046   4.798   9.432 -0.3507 -0.2508 -0.2582
  629loPI   C4A10058  16.090   4.860   8.988 -0.0954  0.1851  0.1697
  629loPI   C5A10059  16.095   5.190   8.660 -0.1656  0.0031  0.4100
  629loPI   C6A10060  16.188   5.557   8.704 -0.0587 -0.1415  0.0282
  629loPI   C1B10061  16.141   5.290  10.395  0.0461  0.2656  0.2392
  629loPI   C2B10062  16.250   5.286   9.980  0.0830  0.0546  0.0357
  629loPI   C3B10063  16.222   5.275   9.611  0.2530  0.1420 -0.0676
  629loPI   C4B10064  16.140   5.329   9.178 -0.1355 -0.0854  0.1343
  630loPI    C110065   4.177  15.265  11.462 -0.0705  0.0384  0.1827
  630loPI    C210066   4.429  15.096  11.722 -0.0889 -0.0543  0.1408
  630loPI    C310067   4.121  15.313  11.856  0.1055  0.1968  0.1898
  630loPI   PO410068   4.158  15.109  11.233  0.0054  0.1413  0.1870
  630loPI   GL110069   4.236  14.734  10.970 -0.3873  0.0207  0.0832
  630loPI   GL210070   4.373  15.002  10.824  0.0189 -0.0384 -0.1946
  630loPI   C1A10071   4.230  14.538  10.588  0.3269 -0.1710 -0.2455
  630loPI   C2A10072   4.212  14.553  10.179 -0.0022 -0.0764  0.0123
  630loPI   C3A10073   4.186  14.611   9.744  0.0783  0.2973 -0.0349
  630loPI   C4A10074   4.270  14.627   9.319 -0.0735 -0.0426  0.0717
  630loPI   C5A10075   4.110  14.751   8.858  0.2869 -0.0444 -0.1028
  630loPI   C6A10076   4.069  14.850   8.430 -0.2069 -0.0710 -0.0797
  630loPI   C1B10077   4.338  15.061  10.402  0.1287 -0.2290  0.2447
  630loPI   C2B10078   4.381  15.104   9.953  0.0023  0.3202 -0.2232
  630loPI   C3B10079   4.350  15.167   9.551  0.0884 -0.2318  0.1238
  630loPI   C4B10080   4.296  15.142   9.126  0.2558  0.2583  0.1173
  631loPI    C110081   3.827   4.118  11.465  0.0460 -0.0888 -0.0116
  631loPI    C210082   3.627   4.351  11.722  0.1329 -0.0443  0.0164
  631loPI    C310083   3.801   4.014  11.851 -0.0647 -0.1700 -0.0405
  631loPI   PO410084   3.681   4.064  11.253  0.0716 -0.1704 -0.3922
  631loPI   GL110085   3.678   4.194  10.889  0.1279  0.1154  0.0828
  631loPI   GL210086   3.680   4.479  10.747 -0.1844 -0.1360 -0.1636
  631loPI   C1A10087   3.665   4.050  10.489  0.2494  0.2764 -0.2558
  631loPI   C2A10088   3.542   4.128  10.090  0.2554 -0.1039  0.3358
  631loPI   C3A10089   3.619   4.169   9.676  0.4186  0.0320 -0.1644
  631loPI   C4A10090   3.675   4.264   9.265 -0.2572 -0.0841 -0.1611
  631loPI   C5A10091   3.653   4.181   8.848 -0.1720 -0.1986 -0.1317
  631loPI   C6A10092   3.751   4.231   8.319 -0.2149 -0.6164 -0.1429
  631loPI   C1B10093   3.633   4.606  10.302  0.0908 -0.3839 -0.1277
  631loPI   C2B10094   3.609   4.658   9.881 -0.1072  0.0996 -0.0947
  631loPI   C3B10095   3.722   4.747   9.540 -0.0489  0.1160  0.2023
  631loPI   C4B10096   3.822   4.816   9.165 -0.1168  0.3985  0.0537
  632loPI    C110097  14.676  11.039  11.393  0.0586  0.0176  0.1173
  632loPI    C210098  14.715  11.324  11.671  0.0070 -0.0884  0.2342
  632loPI    C310099  14.604  10.954  11.777  0.0735 -0.1527  0.0836
  632loPI   PO410100  14.482  11.065  11.219 -0.2470  0.2473 -0.2471
  632loPI   GL110101  14.443  11.094  10.855  0.0785  0.2707  0.0392
  632loPI   GL210102  14.118  11.081  10.797 -0.0175  0.1098  0.4285
  632loPI   C1A10103  14.408  11.196  10.391 -0.3103 -0.0546  0.0977
  632loPI   C2A10104  14.439  11.366   9.957  0.0374 -0.0379 -0.5217
  632loPI   C3A10105  14.469  11.326   9.563  0.1085  0.1681  0.1231
  632loPI   C4A10106  14.413  11.290   9.065 -0.2501  0.0674  0.0245
  632loPI   C5A10107  14.567  11.032   8.541 -0.2551 -0.1242 -0.0719
  632loPI   C6A10108  14.849  10.850   8.747  0.2491 -0.2982 -0.0138
  632loPI   C1B10109  13.922  11.061  10.354  0.2580 -0.1033 -0.0618
  632loPI   C2B10110  13.949  11.154  10.038  0.0980  0.0925  0.1015
  632loPI   C3B10111  13.906  11.228   9.664 -0.2088  0.4746 -0.2117
  632loPI   C4B10112  13.958  11.194   9.222  0.0402 -0.0121  0.2096
  633loPI    C110113   1.850   5.597  11.465  0.1569 -0.0211  0.0566
  633loPI    C210114   1.634   5.367  11.711  0.1210  0.1329  0.1708
  633loPI    C310115   1.726   5.742  11.816 -0.0276  0.2534 -0.1172
  633loPI   PO410116   1.746   5.546  11.229  0.0812 -0.0179  0.0730
  633loPI   GL110117   1.934   5.650  10.807 -0.0009  0.2629  0.0501
  633loPI   GL210118   2.138   5.413  10.678  0.1199  0.0374 -0.1638
  633loPI   C1A10119   1.808   5.892  10.426 -0.0511 -0.0357 -0.0739
  633loPI   C2A10120   1.788   5.887   9.960 -0.2701  0.1926  0.1211
  633loPI   C3A10121   1.764   5.936   9.628  0.4161  0.3855 -0.1373
  633loPI   C4A10122   1.776   5.887   9.234 -0.0863 -0.3179  0.1017
  633loPI   C5A10123   1.752   6.022   8.817  0.0340 -0.1997  0.0387
  633loPI   C6A10124   1.553   6.418   8.641  0.3371  0.1801  0.0974
  633loPI   C1B10125   2.113   5.537  10.210 -0.2246  0.0678  0.0934
  633loPI   C2B10126   2.132   5.603   9.809 -0.1782  0.0741 -0.0334
  633loPI   C3B10127   2.177   5.517   9.393  0.2831 -0.1738 -0.1027
  633loPI   C4B10128   2.162   5.669   8.958 -0.0558 -0.0841 -0.1045
  634loPI    C110129  13.249  16.594  11.772  0.0644 -0.1356  0.1057
  634loPI    C210130  12.924  16.585  12.006 -0.0532  0.1951 -0.0392
  634loPI    C310131  13.288  16.607  12.170 -0.1040 -0.1145  0.1225
  634loPI   PO410132  13.105  16.657  11.509 -0.0176  0.0429  0.0564
  634loPI   GL110133  13.194  16.968  11.050  0.0333 -0.2202  0.1555
  634loPI   GL210134  12.944  16.818  10.935 -0.2303 -0.5276  0.0403
  634loPI   C1A10135  13.349  16.915  10.675 -0.3554  0.1454 -0.1133
  634loPI   C2A10136  13.381  17.029  10.313 -0.0659  0.0572 -0.2637
  634loPI   C3A10137  13.373  17.104   9.924 -0.1634 -0.0107  0.1733
  634loPI   C4A10138  13.374  17.125   9.462 -0.0164  0.0528 -0.1400
  634loPI   C5A10139  13.473  17.183   9.051  0.1740 -0.3377  0.0438
  634loPI   C6A10140  13.515  17.282   8.697 -0.1165 -0.2367  0.2371
  634loPI   C1B10141  12.880  16.843  10.472 -0.0772  0.0278 -0.1100
  634loPI   C2B10142  12.922  16.941  10.055 -0.1786  0.0248 -0.0362
  634loPI   C3B10143  12.964  16.935   9.663  0.2892  0.3525 -0.3644
  634loPI   C4B10144  12.975  16.958   9.227  0.3482 -0.2093  0.1706
  635loPI    C110145  12.035   7.527  11.656  0.1169 -0.2898 -0.0858
  635loPI    C210146  11.993   7.272  11.962 -0.1445  0.0012  0.1271
  635loPI    C310147  11.845   7.643  11.988  0.0065  0.0958 -0.2778
  635loPI   PO410148  12.178   7.362  11.356 -0.1282  0.2000  0.0053
  635loPI   GL110149  12.157   7.366  10.882 -0.1368  0.0834 -0.0822
  635loPI   GL210150  12.250   7.695  10.852 -0.0594 -0.0469 -0.0789
  635loPI   C1A10151  12.163   7.194  10.396  0.0678  0.0583 -0.1024
  635loPI   C2A10152  12.131   7.243   9.969 -0.0149  0.1648 -0.4541
  635loPI   C3A10153  12.122   7.275   9.540 -0.0496 -0.0982  0.1287
  635loPI   C4A10154  12.112   7.359   9.098  0.4454 -0.2516  0.2587
  635loPI   C5A10155  12.106   7.612   8.725 -0.2423  0.0641 -0.2715
  635loPI   C6A10156  12.396   7.861   8.590 -0.1367 -0.1214  0.0874
  635loPI   C1B10157  12.284   7.715  10.428  0.0578  0.1628  0.2449
  635loPI   C2B10158  12.283   7.735   9.977 -0.0747  0.3590  0.0247
  635loPI   C3B10159  12.268   7.829   9.555  0.0575 -0.1270  0.0150
  635loPI   C4B10160  12.250   7.822   9.166  0.0286 -0.1105  0.0681
  636loPI    C110161  14.232   5.939  11.703 -0.0496 -0.0145  0.0477
  636loPI    C210162  14.212   5.746  12.054 -0.0531 -0.1213 -0.0107
  636loPI    C310163  13.972   6.058  11.983 -0.2840 -0.3041 -0.0426
  636loPI   PO410164  14.477   5.871  11.617  0.3535  0.1811 -0.0256
  636loPI   GL110165  14.612   5.849  11.108 -0.0212 -0.1072  0.2195
  636loPI   GL210166  14.922   5.906  10.947 -0.0757  0.2704  0.1234
  636loPI   C1A10167  14.502   5.690  10.697  0.2828  0.0828 -0.2341
  636loPI   C2A10168  14.406   5.716  10.230  0.1252  0.3211  0.2369
  636loPI   C3A10169  14.433   5.794   9.832  0.1561  0.3084 -0.0894
  636loPI   C4A10170  14.431   5.760   9.419  0.0145  0.1962 -0.0184
  636loPI   C5A10171  14.349   5.930   9.018 -0.2137  0.1628  0.0932
  636loPI   C6A10172  14.320   6.261   8.707  0.0001 -0.2048  0.1176
  636loPI   C1B10173  14.968   5.803  10.442 -0.0151 -0.0627  0.0011
  636loPI   C2B10174  14.944   5.851   9.978  0.4771 -0.3093  0.2480
  636loPI   C3B10175  14.940   5.948   9.571 -0.0061  0.3598  0.0599
  636loPI   C4B10176  14.877   5.966   9.150 -0.1624 -0.0981 -0.2064
  637loPI    C110177  17.083   7.132  11.585 -0.0669 -0.0109 -0.1691
  637loPI    C210178  16.688   7.187  11.609 -0.0667 -0.1006  0.0631
  637loPI    C310179  16.852   6.850  11.749  0.0872 -0.0866 -0.0799
  637loPI   PO410180  17.158   7.149  11.319 -0.0605 -0.1056 -0.0612
  637loPI   GL110181  17.250   6.941  10.847 -0.0630 -0.2612 -0.0111
  637loPI   GL210182  17.549   7.095  10.747 -0.0869  0.1497  0.2745
  637loPI   C1A10183  17.032   6.967  10.493 -0.2270  0.2388  0.0322
  637loPI   C2A10184  17.052   6.897  10.036 -0.3865 -0.0445  0.0352
  637loPI   C3A10185  17.053   6.936   9.542  0.2158 -0.0071  0.0296
  637loPI   C4A10186  17.082   6.988   9.060 -0.1730  0.3176 -0.1886
  637loPI   C5A10187  17.114   6.741   8.678  0.0389  0.3103  0.3198
  637loPI   C6A10188  17.226   6.476   8.247  0.2221 -0.1516 -0.3060
  637loPI   C1B10189  17.490   7.065  10.353 -0.2901  0.0788 -0.0151
  637loPI   C2B10190  17.581   7.156   9.941 -0.1705  0.2047 -0.2416
  637loPI   C3B10191  17.569   7.205   9.536  0.3080 -0.0402  0.0897
  637loPI   C4B10192  17.568   7.159   9.069  0.0473  0.0070  0.0512
  638loPI    C110193   7.692   9.465  11.152 -0.1082 -0.2799 -0.0719
  638loPI    C210194   7.544   9.535  11.517  0.1203 -0.1206 -0.0072
  638loPI    C310195   7.695   9.175  11.428  0.0764 -0.1557  0.0589
  638loPI   PO410196   7.545   9.532  10.945 -0.0384  0.1370  0.0970
  638loPI   GL110197   7.712   9.633  10.541 -0.0442  0.0847  0.1539
  638loPI   GL210198   8.085   9.715  10.444 -0.0165  0.2097 -0.0586
  638loPI   C1A10199   7.649   9.489  10.134 -0.0411  0.2092 -0.0542
  638loPI   C2A10200   7.742   9.562   9.750 -0.0965 -0.0188 -0.0677
  638loPI   C3A10201   7.751   9.657   9.341  0.0225  0.0114  0.1170
  638loPI   C4A10202   7.723   9.686   8.893 -0.3505  0.1565  0.1073
  638loPI   C5A10203   7.538   9.576   8.540  0.0169 -0.0159 -0.2808
  638loPI   C6A10204   7.287   9.827   8.219  0.1817  0.0423  0.0700
  638loPI   C1B10205   8.194   9.753  10.083  0.1630 -0.0436 -0.2919
  638loPI   C2B10206   8.159   9.764   9.704  0.2359  0.3086  0.0663
  638loPI   C3B10207   8.204   9.783   9.156  0.1871  0.3151  0.2372
  638loPI   C4B10208   8.110   9.967   8.806  0.1031 -0.0473  0.0407
  639loPI    C110209   8.592  14.119  11.504  0.0705  0.0175 -0.0859
  639loPI    C210210   8.743  14.020  11.861 -0.1017  0.2644  0.0586
  639loPI    C310211   8.745  13.754  11.563  0.0986  0.0762  0.2243
  639loPI   PO410212   8.719  14.270  11.349 -0.1099  0.0459  0.1538
  639loPI   GL110213   8.652  14.513  10.958  0.2213  0.2238  0.1665
  639loPI   GL210214   8.660  14.206  10.846 -0.1311  0.0124  0.2224
  639loPI   C1A10215   8.795  14.624  10.530  0.1362 -0.0762 -0.0079
  639loPI   C2A10216   8.813  14.556  10.016  0.0000 -0.1538 -0.0521
  639loPI   C3A10217   8.764  14.726   9.475 -0.0511  0.2606 -0.1920
  639loPI   C4A10218   8.797  14.755   9.073  0.1960 -0.1213 -0.1267
  639loPI   C5A10219   9.127  14.916   8.926  0.1360  0.0485 -0.3126
  639loPI   C6A10220   9.442  14.876   8.650  0.0287  0.0151 -0.5541
  639loPI   C1B10221   8.626  14.133  10.403  0.0932  0.1053  0.0997
  639loPI   C2B10222   8.665  14.106   9.959 -0.3065  0.2320  0.1664
  639loPI   C3B10223   8.693  14.138   9.518  0.0389 -0.0870 -0.2318
  639loPI   C4B10224   8.744  14.196   9.068 -0.1861 -0.0720  0.1280
  640loPI    C110225  13.415   8.155  11.858  0.1047  0.0447 -0.3001
  640loPI    C210226  13.450   8.529  11.995  0.0212 -0.0465 -0.0217
  640loPI    C310227  13.297   8.244  12.230  0.0944 -0.2590 -0.2279
  640loPI   PO410228  13.533   8.301  11.565  0.2240  0.2082  0.4758
  640loPI   GL110229  13.649   8.470  11.102  0.2244  0.0742 -0.0330
  640loPI   GL210230  13.864   8.658  11.019  0.1314  0.3368  0.0654
  640loPI   C1A10231  13.671   8.316  10.688  0.1973  0.1449 -0.1039
  640loPI   C2A10232  13.711   8.193  10.291 -0.0892  0.2818  0.0210
  640loPI   C3A10233  13.720   8.326   9.850  0.2060  0.0795 -0.0743
  640loPI   C4A10234  13.688   8.338   9.522  0.2285 -0.1233 -0.0488
  640loPI   C5A10235  13.809   8.494   9.114  0.0587 -0.0036 -0.2101
  640loPI   C6A10236  13.544   8.770   8.866 -0.2172  0.3395 -0.0205
  640loPI   C1B10237  13.822   8.781  10.582 -0.4683 -0.1635 -0.1647
  640loPI   C2B10238  13.877   8.714  10.199 -0.0554  0.2075  0.0825
  640loPI   C3B10239  13.879   8.836   9.835  0.1415  0.0371 -0.3270
  640loPI   C4B10240  13.745   8.889   9.421 -0.2028  0.0151  0.1077
  641loPI    C110241  13.206   9.528  11.663  0.1042 -0.1592  0.2103
  641loPI    C210242  12.952   9.300  11.871 -0.0424  0.0699  0.2860
  641loPI    C310243  13.093   9.639  12.030  0.1515  0.0484  0.1635
  641loPI   PO410244  13.147   9.602  11.467 -0.2334 -0.0241  0.3908
  641loPI   GL110245  13.205   9.582  11.019  0.0877 -0.2190  0.1399
  641loPI   GL210246  13.130   9.883  10.788 -0.2770 -0.0705  0.1125
  641loPI   C1A10247  13.090   9.352  10.676  0.0418  0.1336 -0.3061
  641loPI   C2A10248  13.126   9.486  10.219  0.2031 -0.3874  0.1714
  641loPI   C3A10249  13.037   9.478   9.747 -0.1727 -0.0494 -0.0094
  641loPI   C4A10250  13.074   9.550   9.388  0.0879 -0.1193 -0.2661
  641loPI   C5A10251  13.072   9.533   8.978  0.0241  0.0441  0.2060
  641loPI   C6A10252  12.870   9.348   8.719  0.3450  0.1973 -0.1599
  641loPI   C1B10253  13.192   9.982  10.294 -0.2423  0.0011  0.0507
  641loPI   C2B10254  13.172  10.021   9.861  0.0707 -0.1320  0.0447
  641loPI   C3B10255  13.119  10.071   9.445 -0.0811  0.2376 -0.1555
  641loPI   C4B10256  13.214  10.068   8.964 -0.2659  0.0566  0.2782
  642loPI    C110257   9.340   1.341  11.771  0.2203  0.0742  0.1038
  642loPI    C210258   9.066   1.377  12.061  0.0841 -0.0891 -0.0022
  642loPI    C310259   9.323   1.070  12.065 -0.0201 -0.1790 -0.1375
  642loPI   PO410260   9.258   1.359  11.483 -0.0983  0.3432 -0.2801
  642loPI   GL110261   9.090   1.484  11.198 -0.0638 -0.1428 -0.1818
  642loPI   GL210262   9.255   1.233  10.991 -0.2750 -0.3235  0.0612
  642loPI   C1A10263   9.080   1.639  10.795 -0.2767 -0.1461 -0.2333
  642loPI   C2A10264   8.995   1.724  10.376  0.2931 -0.0642  0.2363
  642loPI   C3A10265   8.921   1.577   9.940  0.0111  0.2056 -0.1402
  642loPI   C4A10266   8.901   1.594   9.473 -0.0340 -0.2697 -0.0181
  642loPI   C5A10267   8.801   1.701   9.176 -0.0445 -0.2602  0.0409
  642loPI   C6A10268   8.919   1.728   8.813 -0.1627  0.0509 -0.0659
  642loPI   C1B10269   9.399   1.284  10.515  0.1098  0.0727  0.0721
  642loPI   C2B10270   9.400   1.248  10.063  0.1482  0.2576 -0.2647
  642loPI   C3B10271   9.293   1.237   9.605 -0.1822 -0.0141  0.1155
  642loPI   C4B10272   9.274   1.342   9.150 -0.3291  0.1612 -0.1231
  643loPI    C110273  12.390  16.100  11.699  0.0919  0.0008  0.1387
  643loPI    C210274  12.167  16.390  11.861  0.0635 -0.0190  0.1355
  643loPI    C310275  12.502  16.270  12.043  0.1777  0.1491  0.0391
  643loPI   PO410276  12.435  16.170  11.465  0.2052  0.0342  0.0208
  643loPI   GL110277  12.616  16.050  11.079  0.1603  0.1105 -0.0283
  643loPI   GL210278  12.283  15.849  11.182 -0.1798 -0.0737  0.0059
  643loPI   C1A10279  12.684  15.874  10.680 -0.0414  0.1638  0.1509
  643loPI   C2A10280  12.651  15.903  10.240  0.0669  0.0448 -0.1995
  643loPI   C3A10281  12.702  16.017   9.905  0.1901 -0.2602 -0.2582
  643loPI   C4A10282  12.751  16.042   9.439 -0.0404 -0.1144 -0.5955
  643loPI   C5A10283  12.674  16.147   8.968 -0.4252 -0.0331  0.0384
  643loPI   C6A10284  12.570  16.031   8.535  0.2166  0.3687 -0.0996
  643loPI   C1B10285  12.199  15.808  10.753  0.1749  0.0286  0.0803
  643loPI   C2B10286  12.148  15.720  10.316 -0.0860  0.0781 -0.0482
  643loPI   C3B10287  12.240  15.741   9.922  0.4246 -0.2886 -0.2213
  643loPI   C4B10288  12.200  15.761   9.485 -0.0574  0.1583 -0.0644
  644loPI    C110289  13.981   8.412  11.802  0.3389 -0.5539 -0.0353
  644loPI    C210290  14.137   8.479  12.164  0.1506  0.0764 -0.0589
  644loPI    C310291  13.790   8.283  12.128 -0.0339  0.3582  0.1388
  644loPI   PO410292  14.106   8.517  11.641  0.0321  0.1286 -0.0225
  644loPI   GL110293  14.300   8.510  11.193 -0.1192  0.3687  0.0871
  644loPI   GL210294  14.338   8.840  11.106  0.1045 -0.0670  0.2229
  644loPI   C1A10295  14.178   8.307  10.804  0.1345  0.1579  0.2130
  644loPI   C2A10296  14.232   8.387  10.347  0.2012  0.0961  0.0414
  644loPI   C3A10297  14.315   8.444   9.962  0.2988 -0.0830  0.2869
  644loPI   C4A10298  14.180   8.454   9.582  0.0647  0.1340 -0.1534
  644loPI   C5A10299  14.362   8.555   9.109  0.2375 -0.0023 -0.0613
  644loPI   C6A10300  14.733   8.807   8.864 -0.2296  0.0848 -0.2204
  644loPI   C1B10301  14.292   8.787  10.717  0.1380 -0.0728  0.2255
  644loPI   C2B10302  14.395   8.904  10.244  0.0433  0.3595  0.1667
  644loPI   C3B10303  14.397   8.892   9.773  0.0806 -0.0971 -0.1334
  644loPI   C4B10304  14.236   8.960   9.368  0.1624  0.3649  0.1423
  645loPI    C110305   4.342   3.558  11.543  0.2629  0.1272 -0.0208
  645loPI    C210306   4.242   3.936  11.626 -0.1059  0.0095  0.0888
  645loPI    C310307   4.434   3.715  11.899  0.1173  0.1177  0.0215
  645loPI   PO410308   4.511   3.570  11.382  0.2806 -0.0592 -0.0766
  645loPI   GL110309   4.372   3.499  10.995 -0.1182  0.1534  0.0875
  645loPI   GL210310   4.149   3.346  11.065  0.0469 -0.3549 -0.1294
  645loPI   C1A10311   4.353   3.440  10.507  0.2575 -0.0992 -0.1247
  645loPI   C2A10312   4.427   3.524  10.042 -0.0292  0.0471  0.0623
  645loPI   C3A10313   4.353   3.498   9.605  0.0872  0.0151 -0.0194
  645loPI   C4A10314   4.410   3.553   9.107 -0.2733 -0.0640 -0.0278
  645loPI   C5A10315   4.483   3.494   8.668  0.1185  0.2260 -0.2042
  645loPI   C6A10316   4.360   3.482   8.249  0.0943 -0.1972 -0.0215
  645loPI   C1B10317   4.282   3.000  10.683  0.5912 -0.2087 -0.2507
  645loPI   C2B10318   4.237   2.911  10.299 -0.0070  0.2254  0.1578
  645loPI   C3B10319   4.291   3.006   9.814  0.2144  0.2132  0.2792
  645loPI   C4B10320   4.263   3.109   9.336 -0.0234 -0.1023  0.5059
  646loPI    C110321   0.599  10.952  11.507 -0.0522  0.0706  0.0763
  646loPI    C210322   0.355  10.990  11.822 -0.2751 -0.0174 -0.0830
  646loPI    C310323   0.703  11.188  11.813 -0.2615 -0.0230  0.2217
  646loPI   PO410324   0.528  11.035  11.253  0.1997  0.1506 -0.2437
  646loPI   GL110325   0.422  11.447  10.961 -0.3375  0.4191  0.2835
  646loPI   GL210326   0.109  11.268  10.856  0.0147  0.2470  0.2803
  646loPI   C1A10327   0.356  11.581  10.521 -0.1147 -0.1240 -0.3005
  646loPI   C2A10328   0.353  11.507  10.139  0.1672 -0.3943 -0.1194
  646loPI   C3A10329   0.269  11.488   9.712  0.1119 -0.0259 -0.1986
  646loPI   C4A10330   0.293  11.547   9.245 -0.0925  0.0705 -0.2504
  646loPI   C5A10331   0.220  11.354   8.820  0.1482  0.3468 -0.0175
  646loPI   C6A10332   0.038  10.931   8.808  0.0757 -0.2651  0.1123
  646loPI   C1B10333   0.220  11.120  10.456 -0.0394  0.1109  0.0243
  646loPI   C2B10334   0.203  10.986  10.086  0.1108 -0.2541 -0.1198
  646loPI   C3B10335   0.279  11.004   9.645 -0.3714  0.4133  0.4085
  646loPI   C4B10336   0.174  10.955   9.263  0.0134 -0.1014  0.0704
  647loPI    C110337  14.358   6.699  11.369  0.0213 -0.0965  0.0760
  647loPI    C210338  14.350   6.379  11.610 -0.2100 -0.0750  0.0994
  647loPI    C310339  14.542   6.711  11.724 -0.0668 -0.1660  0.1245
  647loPI   PO410340  14.410   6.569  11.153 -0.1657 -0.1870 -0.0792
  647loPI   GL110341  14.274   6.582  10.782 -0.0619  0.2804 -0.0686
  647loPI   GL210342  14.495   6.276  10.803  0.0787  0.0118 -0.0972
  647loPI   C1A10343  14.209   6.528  10.290  0.2397  0.2085 -0.1895
  647loPI   C2A10344  14.296   6.565   9.893  0.0374  0.2123  0.1286
  647loPI   C3A10345  14.121   6.653   9.446  0.0457 -0.1349 -0.1829
  647loPI   C4A10346  13.969   6.607   8.997 -0.0847  0.0230  0.2158
  647loPI   C5A10347  13.738   6.728   8.662  0.2832 -0.0099  0.0129
  647loPI   C6A10348  13.502   7.008   8.594 -0.3129 -0.1012 -0.2663
  647loPI   C1B10349  14.618   6.169  10.354  0.2804 -0.1471  0.1055
  647loPI   C2B10350  14.684   6.233   9.947  0.1119  0.1141 -0.1309
  647loPI   C3B10351  14.621   6.261   9.512 -0.1003  0.0290  0.0193
  647loPI   C4B10352  14.504   6.436   9.119 -0.3530 -0.0320  0.1914
  648loPI    C110353   0.771  17.434  11.530  0.0117 -0.0340 -0.1013
  648loPI    C210354   1.018  17.119  11.528  0.1203  0.0508 -0.0502
  648loPI    C310355   0.703  17.124  11.774  0.1486  0.0049 -0.0127
  648loPI   PO410356   0.678  17.428  11.282  0.1533 -0.2906  0.0845
  648loPI   GL110357   0.742  17.198  10.919  0.0888  0.0607 -0.0163
  648loPI   GL210358   0.988  17.026  10.921  0.0023 -0.1115  0.0643
  648loPI   C1A10359   0.682  17.164  10.488 -0.0415  0.0175 -0.1976
  648loPI   C2A10360   0.713  17.205  10.012  0.3150 -0.2492  0.0285
  648loPI   C3A10361   0.736  17.278   9.594  0.2120 -0.0648 -0.0259
  648loPI   C4A10362   0.880  17.234   9.252 -0.0378 -0.1990 -0.0461
  648loPI   C5A10363   0.634  17.313   8.956 -0.0113  0.0521  0.0621
  648loPI   C6A10364   0.626  16.944   8.763  0.0809  0.1440  0.3709
  648loPI   C1B10365   1.012  16.830  10.517 -0.0406 -0.0750 -0.1633
  648loPI   C2B10366   1.029  16.854  10.060 -0.2075 -0.0655 -0.0410
  648loPI   C3B10367   1.117  16.857   9.670 -0.0938  0.1881 -0.2387
  648loPI   C4B10368   1.156  16.808   9.302  0.0249 -0.3701  0.0423
  649loPI    C110369  13.204   3.506  11.652  0.0253  0.1498 -0.0391
  649loPI    C210370  13.555   3.658  11.771  0.0652  0.0369 -0.0118
  649loPI    C310371  13.255   3.620  12.032  0.0809 -0.0045  0.0005
  649loPI   PO410372  13.200   3.596  11.431  0.3714  0.0161 -0.0261
  649loPI   GL110373  13.200   3.626  11.059  0.0097  0.0252  0.3336
  649loPI   GL210374  13.500   3.612  11.031 -0.1580 -0.1592 -0.0396
  649loPI   C1A10375  13.135   3.798  10.624 -0.0834 -0.1038 -0.1153
  649loPI   C2A10376  13.129   3.855  10.170  0.1835 -0.0439  0.1031
  649loPI   C3A10377  13.152   3.854   9.765  0.0449 -0.0621 -0.2505
  649loPI   C4A10378  13.119   3.837   9.343  0.1540  0.1170 -0.2787
  649loPI   C5A10379  13.167   3.852   8.873  0.0813 -0.1459 -0.0105
  649loPI   C6A10380  13.264   3.638   8.443 -0.2228 -0.2293  0.1590
  649loPI   C1B10381  13.443   3.439  10.628  0.1392 -0.0771 -0.2775
  649loPI   C2B10382  13.465   3.518  10.225 -0.2821  0.3046 -0.2903
  649loPI   C3B10383  13.526   3.519   9.732 -0.1954 -0.1070  0.0674
  649loPI   C4B10384  13.495   3.501   9.354  0.3880  0.0745 -0.1249
  650loPI    C110385   7.990   8.524  11.291 -0.0743 -0.1945  0.1265
  650loPI    C210386   7.784   8.618  11.621 -0.1082 -0.0673  0.0701
  650loPI    C310387   7.788   8.241  11.488 -0.1184 -0.1134  0.1988
  650loPI   PO410388   7.814   8.716  11.060 -0.0515 -0.1610 -0.2629
  650loPI   GL110389   7.963   8.903  10.746  0.0244  0.0506 -0.4141
  650loPI   GL210390   7.782   9.175  10.747  0.0578 -0.0067 -0.0267
  650loPI   C1A10391   8.074   9.194  10.352  0.0102 -0.2068  0.0431
  650loPI   C2A10392   8.037   9.214   9.953 -0.3366 -0.2329 -0.0236
  650loPI   C3A10393   8.004   9.251   9.574  0.0227  0.0876 -0.0361
  650loPI   C4A10394   8.022   9.315   9.116  0.0674  0.0568  0.1488
  650loPI   C5A10395   8.123   9.450   8.684 -0.3562  0.1172 -0.1770
  650loPI   C6A10396   8.077   9.725   8.276 -0.2847 -0.1524  0.1434
  650loPI   C1B10397   7.591   9.027  10.367 -0.0081  0.0699  0.0048
  650loPI   C2B10398   7.602   9.009  10.077  0.2226  0.1967  0.1519
  650loPI   C3B10399   7.532   9.043   9.608 -0.1876  0.0320  0.0362
  650loPI   C4B10400   7.518   9.161   9.207  0.0156 -0.3035 -0.0267
  651loPI    C110401   0.198  12.065  11.776  0.0802  0.1558 -0.1267
  651loPI    C210402   0.309  12.181  12.142  0.0262  0.0148 -0.0647
  651loPI    C310403   0.137  12.442  11.893 -0.1975  0.0402  0.1130
  651loPI   PO410404   0.391  11.933  11.655 -0.2676 -0.0764  0.0012
  651loPI   GL110405   0.553  11.937  11.231  0.2172  0.0095 -0.1279
  651loPI   GL210406   0.371  12.102  11.000  0.0293  0.0633 -0.1701
  651loPI   C1A10407   0.730  11.755  10.820  0.0825 -0.4445 -0.0032
  651loPI   C2A10408   0.848  11.654  10.352 -0.1257  0.1176  0.2181
  651loPI   C3A10409   0.745  11.711   9.886  0.1359 -0.1373  0.0498
  651loPI   C4A10410   0.759  11.692   9.379  0.1346 -0.0494 -0.2717
  651loPI   C5A10411   0.713  11.760   9.017  0.2610  0.0067  0.2307
  651loPI   C6A10412   0.487  12.108   8.715  0.0310 -0.1624 -0.2535
  651loPI   C1B10413   0.400  12.113  10.579 -0.1480  0.0527 -0.1041
  651loPI   C2B10414   0.408  11.997  10.133  0.1266  0.0452 -0.2141
  651loPI   C3B10415   0.448  12.048   9.667  0.0224 -0.0410 -0.3669
  651loPI   C4B10416   0.429  12.059   9.274 -0.2496 -0.0477 -0.0769
  652loPI    C110417   6.549  10.886  11.481 -0.0669 -0.0373 -0.3693
  652loPI    C210418   6.915  10.780  11.600 -0.1101  0.0022 -0.1992
  652loPI    C310419   6.637  10.500  11.538 -0.1152 -0.0124 -0.1128
  652loPI   PO410420   6.545  11.015  11.257  0.0366  0.2270  0.0671
  652loPI   GL110421   6.422  10.976  10.849  0.2479  0.0345 -0.0659
  652loPI   GL210422   6.229  10.852  10.756 -0.1766  0.0785 -0.0156
  652loPI   C1A10423   6.638  11.059  10.466  0.0836  0.0799  0.1633
  652loPI   C2A10424   6.729  11.133  10.094  0.1653  0.0427 -0.2968
  652loPI   C3A10425   6.582  11.162   9.712 -0.0353  0.1625  0.1051
  652loPI   C4A10426   6.582  11.201   9.294  0.1129  0.0050  0.1400
  652loPI   C5A10427   6.565  11.221   8.847  0.0045  0.0926 -0.0258
  652loPI   C6A10428   6.401  11.523   8.473  0.1456 -0.1903  0.1570
  652loPI   C1B10429   6.168  10.956  10.355 -0.3168  0.1322  0.0433
  652loPI   C2B10430   6.090  11.043   9.939 -0.0441 -0.0576 -0.0702
  652loPI   C3B10431   6.105  10.987   9.612 -0.0708 -0.1093 -0.0416
  652loPI   C4B10432   6.095  11.055   9.157 -0.0719  0.0046  0.0269
  653loPI    C110433   5.111   5.226  11.432 -0.0150 -0.2601 -0.0448
  653loPI    C210434   5.423   5.211  11.682 -0.0930 -0.1207  0.0624
  653loPI    C310435   5.083   5.386  11.798  0.0021  0.3131 -0.2831
  653loPI   PO410436   5.143   5.388  11.192  0.2989  0.3421 -0.1709
  653loPI   GL110437   5.110   5.580  10.780 -0.0692 -0.1338  0.3290
  653loPI   GL210438   4.810   5.790  10.607  0.0392  0.0409 -0.1499
  653loPI   C1A10439   5.371   5.523  10.416 -0.1742  0.1703 -0.0048
  653loPI   C2A10440   5.364   5.688   9.945  0.0931 -0.1931  0.2888
  653loPI   C3A10441   5.259   5.721   9.510  0.0005 -0.0738  0.0604
  653loPI   C4A10442   5.368   5.667   9.038  0.1339 -0.2722 -0.2386
  653loPI   C5A10443   5.383   5.791   8.571  0.0492  0.0513  0.0804
  653loPI   C6A10444   5.284   5.759   8.183 -0.0202  0.0819  0.0716
  653loPI   C1B10445   5.030   5.893  10.237  0.0681 -0.2931  0.0497
  653loPI   C2B10446   4.975   6.045   9.747 -0.1472 -0.3115  0.1241
  653loPI   C3B10447   5.019   6.048   9.240  0.1148 -0.3880  0.1279
  653loPI   C4B10448   4.818   6.064   8.745 -0.1437 -0.1280 -0.3162
  654loPI    C110449   6.450   3.806  11.204  0.2292  0.1934 -0.1197
  654loPI    C210450   6.699   3.517  11.083 -0.0212  0.0126 -0.2108
  654loPI    C310451   6.557   3.515  11.457  0.2849  0.2399 -0.0895
  654loPI   PO410452   6.225   3.736  11.075  0.3344 -0.0483  0.2894
  654loPI   GL110453   5.960   3.453  10.697  0.3731  0.0336 -0.0400
  654loPI   GL210454   5.901   3.753  10.711  0.0492  0.0973 -0.0380
  654loPI   C1A10455   5.746   3.397  10.359  0.3003 -0.0235 -0.0595
  654loPI   C2A10456   5.777   3.465   9.928 -0.0850 -0.0751 -0.1163
  654loPI   C3A10457   5.694   3.496   9.506  0.2766 -0.0201 -0.2853
  654loPI   C4A10458   5.667   3.461   9.027 -0.0324 -0.2491 -0.0426
  654loPI   C5A10459   5.679   3.543   8.544 -0.1158 -0.1133 -0.1647
  654loPI   C6A10460   5.993   3.729   8.182  0.1523 -0.0422 -0.0016
  654loPI   C1B10461   5.849   3.895  10.327 -0.2824 -0.4277  0.2873
  654loPI   C2B10462   5.822   3.949   9.866 -0.0482 -0.1053 -0.2006
  654loPI   C3B10463   5.782   3.980   9.380 -0.2328 -0.0494  0.0484
  654loPI   C4B10464   5.893   3.995   9.004 -0.0215  0.0889  0.1303
  655loPI    C110465   5.893   6.403  11.362  0.0029  0.0514  0.1493
  655loPI    C210466   5.844   6.725  11.594 -0.0325  0.2202 -0.0895
  655loPI    C310467   5.873   6.362  11.760 -0.3020  0.3113  0.1643
  655loPI   PO410468   6.190   6.449  11.160 -0.2212  0.2327 -0.0438
  655loPI   GL110469   6.522   6.347  10.855 -0.0240  0.0000 -0.2670
  655loPI   GL210470   6.771   6.062  10.702 -0.0666  0.2091  0.2081
  655loPI   C1A10471   6.434   6.370  10.482 -0.1109 -0.6954  0.4390
  655loPI   C2A10472   6.423   6.453  10.042 -0.0416  0.3057  0.1326
  655loPI   C3A10473   6.485   6.547   9.568 -0.0482  0.0302 -0.0134
  655loPI   C4A10474   6.437   6.602   9.143  0.0587  0.0162  0.4075
  655loPI   C5A10475   6.459   6.665   8.727 -0.2364 -0.3865 -0.1832
  655loPI   C6A10476   6.691   6.912   8.247 -0.2034 -0.1320  0.1758
  655loPI   C1B10477   6.829   5.944  10.281 -0.0376  0.2032 -0.0253
  655loPI   C2B10478   6.782   6.100   9.882  0.2295 -0.0728  0.0344
  655loPI   C3B10479   6.873   6.190   9.435 -0.0733 -0.0539 -0.0582
  655loPI   C4B10480   7.006   6.211   8.964 -0.2699 -0.2085  0.0300
  656loPI    C110481   8.848   9.383  11.640 -0.0996  0.1591  0.0822
  656loPI    C210482   8.585   9.678  11.699 -0.1354  0.1115  0.1641
  656loPI    C310483   8.836   9.574  11.992 -0.0977  0.0855  0.1226
  656loPI   PO410484   9.015   9.446  11.452 -0.0785  0.3887  0.0021
  656loPI   GL110485   9.003   9.415  11.102  0.2689  0.0911 -0.0237
  656loPI   GL210486   9.037   9.137  10.997  0.0268 -0.1802 -0.2962
  656loPI   C1A10487   9.005   9.518  10.616  0.0985  0.1521  0.0640
  656loPI   C2A10488   8.994   9.495  10.149  0.2242 -0.0328  0.2547
  656loPI   C3A10489   9.058   9.576   9.757  0.2135 -0.0574  0.1293
  656loPI   C4A10490   9.014   9.621   9.327  0.0936 -0.0298  0.0766
  656loPI   C5A10491   9.140   9.663   8.934  0.0594 -0.0469  0.3134
  656loPI   C6A10492   9.515   9.795   8.699 -0.0566  0.1096 -0.1302
  656loPI   C1B10493   8.951   9.021  10.562 -0.1992 -0.0376  0.3739
  656loPI   C2B10494   8.953   8.927  10.162 -0.1218  0.3543 -0.1830
  656loPI   C3B10495   8.876   9.121   9.698 -0.1345  0.2656 -0.1352
  656loPI   C4B10496   8.908   9.050   9.254 -0.0321 -0.0978 -0.1674
  657loPI    C110497  10.117  11.809  11.559 -0.1730 -0.1460  0.0489
  657loPI    C210498  10.043  12.072  11.851 -0.1899  0.0739 -0.1513
  657loPI    C310499   9.811  11.749  11.810 -0.4202  0.2366 -0.1515
  657loPI   PO410500  10.130  11.883  11.411 -0.0053 -0.0512 -0.1340
  657loPI   GL110501  10.105  11.911  11.038 -0.3017  0.0040  0.0052
  657loPI   GL210502  10.415  11.916  10.827  0.0435  0.2694  0.1806
  657loPI   C1A10503  10.008  12.042  10.618  0.1187  0.0679 -0.0282
  657loPI   C2A10504  10.043  12.227  10.229  0.0482  0.2489 -0.0660
  657loPI   C3A10505  10.107  12.226   9.863  0.1205 -0.0105  0.3097
  657loPI   C4A10506  10.076  12.231   9.503  0.0141  0.0237  0.1271
  657loPI   C5A10507  10.095  12.323   9.026 -0.2440  0.2521  0.1544
  657loPI   C6A10508  10.328  12.219   8.708  0.0363  0.0404 -0.0474
  657loPI   C1B10509  10.481  11.849  10.401  0.0225  0.0456 -0.1005
  657loPI   C2B10510  10.540  11.963   9.954  0.1583  0.1938 -0.2899
  657loPI   C3B10511  10.430  11.883   9.515  0.0820  0.0272  0.3029
  657loPI   C4B10512  10.471  11.856   9.109 -0.1038 -0.0467 -0.1497
  658loPI    C110513  10.939   4.431  11.222 -0.0167  0.0225 -0.0817
  658loPI    C210514  10.570   4.424  11.376  0.0308 -0.1801  0.0258
  658loPI    C310515  10.877   4.274  11.585  0.1498 -0.1505 -0.1266
  658loPI   PO410516  10.928   4.297  10.977 -0.0012 -0.0510  0.1190
  658loPI   GL110517  11.094   4.195  10.569 -0.1581 -0.4336 -0.0329
  658loPI   GL210518  10.826   4.270  10.318  0.0871  0.0444  0.0970
  658loPI   C1A10519  11.129   3.809  10.367  0.2683  0.0490 -0.2589
  658loPI   C2A10520  11.284   3.731   9.971  0.0775 -0.3403  0.1861
  658loPI   C3A10521  11.309   3.787   9.549  0.0465  0.2024  0.1300
  658loPI   C4A10522  11.185   3.676   9.144 -0.1202 -0.0579  0.0807
  658loPI   C5A10523  10.822   3.469   9.046  0.0746 -0.0369  0.0464
  658loPI   C6A10524  10.470   3.564   8.839  0.1607  0.1603  0.1331
  658loPI   C1B10525  10.562   3.860  10.297  0.1308 -0.0751 -0.1516
  658loPI   C2B10526  10.259   3.590  10.108 -0.3191 -0.0371  0.0760
  658loPI   C3B10527  10.162   3.373   9.709  0.0899  0.2212 -0.0117
  658loPI   C4B10528  10.289   3.442   9.290 -0.0676  0.1405 -0.0391
  659loPI    C110529   5.753  14.759  11.740  0.0930  0.0488  0.0958
  659loPI    C210530   5.704  14.491  12.032 -0.0024 -0.0458 -0.0060
  659loPI    C310531   5.516  14.843  12.051 -0.0403 -0.0679  0.0272
  659loPI   PO410532   5.706  14.633  11.543 -0.1099 -0.0546 -0.2395
  659loPI   GL110533   5.738  14.716  11.084 -0.1134  0.1956  0.2842
  659loPI   GL210534   5.976  14.701  10.887 -0.0790  0.0094 -0.0912
  659loPI   C1A10535   5.598  14.495  10.685 -0.2923 -0.0178  0.0483
  659loPI   C2A10536   5.557  14.511  10.277 -0.1789 -0.0064  0.2287
  659loPI   C3A10537   5.583  14.544   9.923 -0.0820 -0.0541 -0.1571
  659loPI   C4A10538   5.597  14.596   9.528 -0.3688  0.0997  0.0195
  659loPI   C5A10539   5.570  14.535   9.130  0.0394 -0.3733  0.0648
  659loPI   C6A10540   5.585  14.605   8.606  0.1708 -0.0992 -0.0238
  659loPI   C1B10541   6.076  14.627  10.416 -0.4261  0.0986 -0.1513
  659loPI   C2B10542   6.077  14.680   9.972  0.1020  0.2918  0.0736
  659loPI   C3B10543   6.028  14.833   9.528  0.0374  0.2822 -0.1496
  659loPI   C4B10544   6.041  14.687   9.101 -0.4380 -0.1759  0.1223
  660loPI    C110545  11.157  10.049  11.714  0.1962 -0.0734 -0.1904
  660loPI    C210546  10.960  10.042  12.062  0.0187  0.0287 -0.2877
  660loPI    C310547  11.074   9.699  11.890 -0.1730 -0.0379 -0.2850
  660loPI   PO410548  10.993  10.139  11.517  0.0221 -0.0441 -0.0550
  660loPI   GL110549  10.977  10.404  11.152  0.0271  0.1019 -0.2266
  660loPI   GL210550  11.069  10.221  11.006 -0.3369 -0.0292  0.1343
  660loPI   C1A10551  11.046  10.666  10.732 -0.2000  0.2115 -0.0986
  660loPI   C2A10552  11.168  10.615  10.330  0.0382  0.1640  0.2400
  660loPI   C3A10553  11.086  10.645   9.824  0.2230  0.1315 -0.1541
  660loPI   C4A10554  11.128  10.756   9.396 -0.0517  0.3299 -0.0292
  660loPI   C5A10555  11.145  10.692   8.976  0.1340  0.3030  0.1819
  660loPI   C6A10556  11.137  10.377   8.734  0.3111 -0.0879 -0.0010
  660loPI   C1B10557  10.964  10.176  10.539  0.1316 -0.0558  0.3142
  660loPI   C2B10558  11.068  10.211  10.078  0.2090 -0.2865 -0.3416
  660loPI   C3B10559  10.928  10.172   9.634 -0.2873  0.0633  0.3537
  660loPI   C4B10560  10.978  10.272   9.163 -0.1621 -0.2011 -0.0290
  661loPI    C110561  17.708   2.986  11.519 -0.1188 -0.0975 -0.0838
  661loPI    C210562  17.406   2.982  11.782 -0.1028  0.3403 -0.0513
  661loPI    C310563  17.762   3.133  11.887  0.0569  0.0531 -0.1679
  661loPI   PO410564  17.600   3.054  11.237  0.1495  0.2597 -0.5334
  661loPI   GL110565  17.629   2.961  10.802 -0.0722  0.1613 -0.3545
  661loPI   GL210566  17.810   2.724  10.731  0.1921 -0.4051 -0.2495
  661loPI   C1A10567  17.368   2.951  10.373  0.1259 -0.1066  0.0775
  661loPI   C2A10568  17.402   2.851   9.914  0.1777 -0.0453 -0.0053
  661loPI   C3A10569  17.483   2.912   9.556 -0.0213  0.2764 -0.3365
  661loPI   C4A10570  17.567   2.965   9.150  0.2023  0.4254  0.0442
  661loPI   C5A10571  17.662   2.891   8.736 -0.0356  0.0047  0.3461
  661loPI   C6A10572  17.774   2.956   8.351 -0.4253  0.2662  0.2271
  661loPI   C1B10573  17.749   2.581  10.427  0.3176  0.1589  0.0088
  661loPI   C2B10574  17.823   2.575   9.953 -0.1417 -0.0428 -0.0641
  661loPI   C3B10575  17.827   2.561   9.540  0.0157 -0.0418 -0.0300
  661loPI   C4B10576  17.885   2.615   9.160 -0.3663  0.0882  0.2013
  662loPI    C110577   7.318   3.588  11.324 -0.1414 -0.0323 -0.0305
  662loPI    C210578   7.059   3.450  11.596 -0.0938 -0.1048 -0.0219
  662loPI    C310579   7.206   3.821  11.629 -0.1685 -0.0765 -0.0067
  662loPI   PO410580   7.182   3.531  11.130  0.0284 -0.1218 -0.2198
  662loPI   GL110581   7.176   3.811  10.789  0.2757  0.2440  0.0629
  662loPI   GL210582   6.941   3.623  10.671 -0.1454 -0.0728  0.3085
  662loPI   C1A10583   7.244   3.749  10.336  0.1419 -0.1976 -0.0635
  662loPI   C2A10584   7.241   3.861   9.851 -0.3118 -0.1599  0.1747
  662loPI   C3A10585   7.194   3.957   9.388  0.3221 -0.0468  0.0542
  662loPI   C4A10586   7.196   4.017   8.965 -0.2814  0.0782 -0.0872
  662loPI   C5A10587   7.057   3.897   8.592 -0.2367 -0.1001  0.2550
  662loPI   C6A10588   7.022   4.131   8.171 -0.0766 -0.2024 -0.2561
  662loPI   C1B10589   6.739   3.637  10.224  0.0652  0.2199 -0.1647
  662loPI   C2B10590   6.681   3.734   9.827 -0.1483 -0.0812 -0.0735
  662loPI   C3B10591   6.583   3.771   9.372  0.2523 -0.2877  0.3063
  662loPI   C4B10592   6.698   3.816   8.915 -0.0044  0.0370 -0.4420
  663loPI    C110593  11.371   1.150  11.347  0.0956  0.0546  0.0118
  663loPI    C210594  11.237   1.002  11.693 -0.1447 -0.2328 -0.1988
  663loPI    C310595  11.588   0.879  11.545  0.1146  0.1292  0.0938
  663loPI   PO410596  11.238   1.129  11.195 -0.2049  0.0094 -0.2619
  663loPI   GL110597  11.008   0.929  10.876 -0.1744  0.0623  0.0174
  663loPI   GL210598  10.878   0.701  10.830  0.1801 -0.0628  0.1044
  663loPI   C1A10599  10.825   1.112  10.487  0.1399 -0.1707 -0.2283
  663loPI   C2A10600  10.766   1.222  10.101  0.1062  0.2298 -0.1221
  663loPI   C3A10601  10.713   1.248   9.687  0.1572 -0.0822  0.0958
  663loPI   C4A10602  10.693   1.290   9.165 -0.0389  0.2367 -0.0797
  663loPI   C5A10603  10.616   1.436   8.766  0.0233  0.2083  0.0342
  663loPI   C6A10604  10.378   1.737   8.485 -0.2322  0.1309 -0.3578
  663loPI   C1B10605  11.032   0.724  10.355  0.0803 -0.1031  0.1416
  663loPI   C2B10606  11.062   0.807   9.898 -0.2115  0.0040  0.1948
  663loPI   C3B10607  11.045   0.896   9.493 -0.2300  0.1963 -0.0068
  663loPI   C4B10608  11.121   0.996   8.980 -0.1414 -0.2744  0.1133
  664loPI    C110609   0.110  11.618  11.322 -0.1174  0.0234  0.0370
  664loPI    C210610   0.069  11.223  11.364 -0.0585  0.0313  0.1744
  664loPI    C310611   0.065  11.460  11.686 -0.0990  0.1435  0.0921
  664loPI   PO410612   0.008  11.674  11.149  0.0884 -0.0084 -0.0701
  664loPI   GL110613   0.010  11.812  10.796 -0.0187  0.4741 -0.2991
  664loPI   GL210614  -0.295  11.528  10.791  0.0274 -0.0442  0.0078
  664loPI   C1A10615  -0.046  11.872  10.394  0.1607 -0.3438  0.0037
  664loPI   C2A10616  -0.040  11.846   9.886  0.1114  0.0421 -0.2239
  664loPI   C3A10617  -0.036  11.885   9.436 -0.0537  0.1910  0.1013
  664loPI   C4A10618  -0.020  12.010   8.987 -0.1757 -0.3126  0.0072
  664loPI   C5A10619   0.116  11.807   8.542  0.0114  0.3627  0.0363
  664loPI   C6A10620   0.069  11.550   8.230  0.0051  0.0050 -0.1257
  664loPI   C1B10621  -0.242  11.458  10.354 -0.0148  0.0708  0.1388
  664loPI   C2B10622  -0.178  11.354   9.980 -0.1540  0.0621  0.1405
  664loPI   C3B10623  -0.170  11.328   9.567  0.0122 -0.3595 -0.0386
  664loPI   C4B10624  -0.151  11.347   9.214 -0.0533 -0.1638  0.2701
  665loPI    C110625  17.091   2.659  11.556  0.1863  0.0684  0.1633
  665loPI    C210626  17.022   2.306  11.730  0.1102  0.0346  0.0655
  665loPI    C310627  17.058   2.635  11.953 -0.0291 -0.0016  0.1423
  665loPI   PO410628  17.231   2.683  11.418  0.2197 -0.0874  0.0362
  665loPI   GL110629  17.214   2.574  11.032 -0.0137 -0.0294  0.1786
  665loPI   GL210630  17.089   2.883  10.929  0.1154 -0.2977 -0.0499
  665loPI   C1A10631  17.330   2.532  10.676  0.0657 -0.2012  0.0243
  665loPI   C2A10632  17.337   2.442  10.226  0.0805 -0.1190  0.1917
  665loPI   C3A10633  17.351   2.331   9.839  0.0085 -0.1997 -0.0213
  665loPI   C4A10634  17.327   2.413   9.438  0.0414  0.0224 -0.1239
  665loPI   C5A10635  17.393   2.467   9.008  0.1948 -0.3159  0.1521
  665loPI   C6A10636  17.557   2.152   8.644  0.3189 -0.0432  0.0935
  665loPI   C1B10637  16.920   2.773  10.473  0.1816 -0.0483  0.2575
  665loPI   C2B10638  16.944   2.727  10.051  0.1574 -0.0897 -0.2410
  665loPI   C3B10639  16.988   2.782   9.593 -0.0390  0.1141  0.2847
  665loPI   C4B10640  17.004   2.763   9.223  0.0592  0.0341  0.2174
  666loPI    C110641   9.576  12.120  11.548  0.0360  0.0154 -0.1634
  666loPI    C210642   9.297  11.949  11.778 -0.1967  0.1248 -0.3595
  666loPI    C310643   9.311  12.347  11.742  0.2061  0.1423 -0.0775
  666loPI   PO410644   9.633  12.011  11.342 -0.0471  0.1811  0.1831
  666loPI   GL110645   9.681  12.238  10.927  0.0512  0.0491  0.0941
  666loPI   GL210646   9.573  11.919  10.825  0.0573 -0.1624  0.0185
  666loPI   C1A10647   9.567  12.172  10.436 -0.1957 -0.2031 -0.3835
  666loPI   C2A10648   9.518  12.029  10.074 -0.2066 -0.0778 -0.1218
  666loPI   C3A10649   9.578  12.160   9.626 -0.2050 -0.1218  0.1310
  666loPI   C4A10650   9.509  12.149   9.200 -0.0758 -0.2530  0.1781
  666loPI   C5A10651   9.662  12.062   8.790 -0.0883 -0.1877  0.1999
  666loPI   C6A10652   9.879  12.186   8.467 -0.1686 -0.1380 -0.2910
  666loPI   C1B10653   9.576  11.684  10.481 -0.0465 -0.0209 -0.0783
  666loPI   C2B10654   9.397  11.577  10.100  0.0682  0.2696  0.0955
  666loPI   C3B10655   9.478  11.634   9.700  0.0557 -0.2415 -0.2763
  666loPI   C4B10656   9.442  11.641   9.286  0.0262 -0.2031  0.1965
  667loPI    C110657  11.402  14.071  11.881 -0.1098  0.1921 -0.1441
  667loPI    C210658  11.553  14.282  12.186  0.1070  0.0579 -0.1560
  667loPI    C310659  11.221  14.064  12.238  0.2645 -0.1386  0.0479
  667loPI   PO410660  11.512  14.261  11.706  0.0335 -0.2352  0.0636
  667loPI   GL110661  11.378  14.290  11.190 -0.1220 -0.2945 -0.3467
  667loPI   GL210662  11.569  14.487  11.112  0.2493  0.2647  0.0817
  667loPI   C1A10663  11.395  14.109  10.839 -0.2091 -0.0009  0.0173
  667loPI   C2A10664  11.353  14.011  10.400  0.1864  0.1573 -0.1516
  667loPI   C3A10665  11.396  14.134   9.979  0.1021  0.0451 -0.1296
  667loPI   C4A10666  11.360  14.004   9.508  0.2382 -0.1060  0.0545
  667loPI   C5A10667  11.377  14.002   9.135  0.1497  0.0865  0.1107
  667loPI   C6A10668  11.499  14.300   8.854 -0.1450  0.2189 -0.1859
  667loPI   C1B10669  11.452  14.599  10.651 -0.0480  0.2696  0.0597
  667loPI   C2B10670  11.459  14.511  10.301 -0.1037  0.1338 -0.1740
  667loPI   C3B10671  11.465  14.596   9.826  0.0188  0.0311  0.1845
  667loPI   C4B10672  11.555  14.621   9.423  0.1668  0.3638  0.2533
  668loPI    C110673  15.123   7.217  11.446  0.0086  0.1490  0.0145
  668loPI    C210674  15.409   7.447  11.606 -0.0734  0.1485  0.1637
  668loPI    C310675  15.062   7.397  11.798 -0.1609  0.1210  0.0001
  668loPI   PO410676  15.101   7.308  11.249 -0.0677  0.0276 -0.0457
  668loPI   GL110677  15.219   7.311  10.782  0.0517 -0.0491 -0.3061
  668loPI   GL210678  15.169   6.973  10.880 -0.1211  0.2258  0.0366
  668loPI   C1A10679  15.311   7.367  10.342  0.1440  0.0860 -0.3554
  668loPI   C2A10680  15.308   7.387   9.881  0.1782  0.2059  0.4900
  668loPI   C3A10681  15.321   7.459   9.488  0.0904  0.1928 -0.0164
  668loPI   C4A10682  15.222   7.439   9.050 -0.2266 -0.0066  0.0866
  668loPI   C5A10683  15.106   7.187   8.811 -0.2636  0.1736  0.0100
  668loPI   C6A10684  15.067   7.130   8.373  0.1647 -0.0861 -0.4461
  668loPI   C1B10685  15.181   6.866  10.436  0.0966 -0.2195 -0.0851
  668loPI   C2B10686  15.248   6.906  10.041  0.3036  0.3185  0.0983
  668loPI   C3B10687  15.155   6.951   9.639  0.1848  0.3280 -0.0690
  668loPI   C4B10688  15.155   6.941   9.234  0.1934  0.3245 -0.0804
  669loPI    C110689   3.692  13.658  11.556 -0.1064  0.0218  0.0369
  669loPI    C210690   3.468  13.542  11.867 -0.2224  0.1837  0.0148
  669loPI    C310691   3.717  13.854  11.904 -0.0264  0.0277  0.0278
  669loPI   PO410692   3.564  13.483  11.350  0.0054  0.0731 -0.2566
  669loPI   GL110693   3.380  13.430  10.984  0.0564  0.1105  0.1604
  669loPI   GL210694   3.145  13.533  10.931 -0.0444  0.0218 -0.3914
  669loPI   C1A10695   3.553  13.367  10.599  0.0631 -0.0898 -0.3175
  669loPI   C2A10696   3.507  13.419  10.185  0.2713 -0.0345 -0.0455
  669loPI   C3A10697   3.478  13.356   9.803 -0.1183  0.0748  0.0871
  669loPI   C4A10698   3.451  13.445   9.379  0.1809  0.0087  0.0196
  669loPI   C5A10699   3.584  13.559   8.952 -0.0822  0.1601 -0.0752
  669loPI   C6A10700   3.448  13.942   8.711 -0.5406 -0.1444 -0.0737
  669loPI   C1B10701   3.133  13.677  10.485  0.1537  0.2965  0.0628
  669loPI   C2B10702   3.118  13.761  10.074  0.2974  0.1596 -0.1522
  669loPI   C3B10703   3.083  13.792   9.612 -0.2431 -0.1527 -0.1072
  669loPI   C4B10704   3.107  13.858   9.223 -0.2300  0.0365 -0.0327
  670loPI    C110705   1.533  10.932  11.413  0.0536 -0.1961 -0.0890
  670loPI    C210706   1.171  10.909  11.581  0.0550 -0.0619 -0.0666
  670loPI    C310707   1.490  10.761  11.772  0.0309 -0.0640 -0.0280
  670loPI   PO410708   1.418  11.051  11.154 -0.1308  0.0013  0.1963
  670loPI   GL110709   1.537  11.133  10.826  0.2798 -0.2944  0.1954
  670loPI   GL210710   1.649  11.476  10.667 -0.0110  0.1374 -0.0512
  670loPI   C1A10711   1.574  10.929  10.410 -0.0312  0.0633  0.2137
  670loPI   C2A10712   1.552  11.006   9.960  0.1153  0.0272  0.2609
  670loPI   C3A10713   1.431  10.958   9.505 -0.0795 -0.0640 -0.0333
  670loPI   C4A10714   1.590  11.021   9.111  0.1586  0.4706 -0.0259
  670loPI   C5A10715   1.458  11.192   8.675 -0.2004 -0.3019  0.1615
  670loPI   C6A10716   1.142  11.224   8.327 -0.0756  0.2564 -0.0396
  670loPI   C1B10717   1.713  11.406  10.231 -0.0671  0.0398  0.0643
  670loPI   C2B10718   1.669  11.448   9.725 -0.2558 -0.1533 -0.1706
  670loPI   C3B10719   1.638  11.513   9.384  0.0590 -0.0524  0.4166
  670loPI   C4B10720   1.756  11.530   8.961 -0.0325 -0.0587 -0.2348
  671loPI    C110721  15.255  11.094  11.533 -0.1221  0.0327 -0.1222
  671loPI    C210722  15.119  10.784  11.319  0.1427 -0.0611 -0.1587
  671loPI    C310723  15.043  10.805  11.712 -0.0948 -0.0381 -0.2040
  671loPI   PO410724  15.177  11.263  11.366 -0.0282 -0.0948 -0.1138
  671loPI   GL110725  14.945  11.169  10.930 -0.1531  0.3625  0.1861
  671loPI   GL210726  15.174  11.024  10.819  0.3149  0.0837 -0.3699
  671loPI   C1A10727  14.868  11.397  10.606 -0.0072 -0.0432 -0.0371
  671loPI   C2A10728  14.838  11.487  10.193 -0.0438 -0.0498  0.1167
  671loPI   C3A10729  14.886  11.477   9.759 -0.1028 -0.0123  0.2832
  671loPI   C4A10730  14.964  11.436   9.338 -0.0814 -0.0044 -0.3298
  671loPI   C5A10731  14.880  11.335   8.902 -0.3343  0.2262  0.3042
  671loPI   C6A10732  15.164  11.332   8.542 -0.1355  0.0080  0.1217
  671loPI   C1B10733  15.225  11.073  10.443 -0.1260  0.0408  0.1165
  671loPI   C2B10734  15.275  11.059  10.033  0.0488 -0.1045 -0.0567
  671loPI   C3B10735  15.252  11.112   9.599  0.2859 -0.1447  0.0164
  671loPI   C4B10736  15.236  11.078   9.183 -0.1030 -0.1967 -0.1730
  672loPI    C110737  17.126  16.497  11.790 -0.1450 -0.0207  0.1401
  672loPI    C210738  17.340  16.346  12.091  0.1442  0.1295  0.0139
  672loPI    C310739  16.972  16.488  12.159  0.0258 -0.2554  0.2073
  672loPI   PO410740  17.148  16.315  11.569  0.3492  0.0945 -0.1973
  672loPI   GL110741  17.089  16.356  11.169  0.1233 -0.0792  0.0493
  672loPI   GL210742  17.420  16.428  10.999 -0.1975  0.1392  0.0196
  672loPI   C1A10743  16.892  16.345  10.728  0.2128 -0.2365 -0.1033
  672loPI   C2A10744  16.873  16.339  10.298 -0.0752  0.2121  0.3050
  672loPI   C3A10745  16.902  16.219   9.873  0.3618  0.1914 -0.0377
  672loPI   C4A10746  16.909  16.342   9.481 -0.1170  0.0786 -0.0479
  672loPI   C5A10747  17.025  16.324   8.980  0.1053  0.2368 -0.0438
  672loPI   C6A10748  16.987  16.236   8.537 -0.0306 -0.0710  0.0738
  672loPI   C1B10749  17.364  16.475  10.478  0.0859  0.1121  0.0538
  672loPI   C2B10750  17.291  16.490  10.004  0.1934 -0.2985  0.1593
  672loPI   C3B10751  17.425  16.476   9.568  0.0737 -0.0188  0.2900
  672loPI   C4B10752  17.391  16.498   9.226 -0.0919 -0.0745  0.4097
  673loPI    C110753  16.245   7.102  11.448 -0.0587  0.1187  0.1368
  673loPI    C210754  15.872   7.167  11.578 -0.1358  0.0229 -0.0322
  673loPI    C310755  16.159   7.062  11.836 -0.3084 -0.2618  0.0484
  673loPI   PO410756  16.190   7.037  11.154 -0.0749  0.1870 -0.2064
  673loPI   GL110757  16.288   7.181  10.834  0.0665  0.2630  0.2011
  673loPI   GL210758  16.251   7.430  10.708 -0.3094  0.1723  0.0507
  673loPI   C1A10759  16.186   7.113  10.355 -0.0812 -0.2064 -0.0820
  673loPI   C2A10760  16.275   7.235   9.909  0.1054  0.0088 -0.1003
  673loPI   C3A10761  16.146   7.156   9.465 -0.3344  0.0257 -0.0317
  673loPI   C4A10762  16.095   7.293   9.068 -0.0791  0.2153  0.0718
  673loPI   C5A10763  16.337   7.067   8.680  0.1321 -0.0963  0.3030
  673loPI   C6A10764  16.439   7.171   8.251 -0.1382  0.0249  0.2536
  673loPI   C1B10765  16.351   7.622  10.292  0.0257  0.0646  0.2551
  673loPI   C2B10766  16.413   7.715   9.876 -0.0863 -0.0924 -0.2016
  673loPI   C3B10767  16.338   7.593   9.445 -0.0229 -0.2999 -0.0734
  673loPI   C4B10768  16.193   7.737   9.002 -0.1539 -0.0197 -0.2546
  674loPI    C110769   3.349  10.350  11.237 -0.0392 -0.1509  0.1659
  674loPI    C210770   3.657  10.384  11.490  0.0335 -0.1119  0.0729
  674loPI    C310771   3.411  10.070  11.515  0.0435 -0.1111  0.1879
  674loPI   PO410772   3.409  10.304  11.043  0.2388  0.2684 -0.0037
  674loPI   GL110773   3.551  10.265  10.681  0.1162  0.1560 -0.2361
  674loPI   GL210774   3.278  10.035  10.620  0.0224 -0.4294 -0.0169
  674loPI   C1A10775   3.722  10.226  10.223  0.1514 -0.1040 -0.0426
  674loPI   C2A10776   3.672  10.230   9.828  0.0187 -0.1755 -0.0253
  674loPI   C3A10777   3.600  10.198   9.374  0.1276 -0.0071  0.2743
  674loPI   C4A10778   3.769  10.310   8.948  0.1681  0.2768 -0.3144
  674loPI   C5A10779   3.704  10.307   8.537  0.1429 -0.0464 -0.1471
  674loPI   C6A10780   3.676  10.295   8.031  0.1324  0.3095 -0.1996
  674loPI   C1B10781   3.214  10.081  10.130  0.0683  0.0822  0.1274
  674loPI   C2B10782   3.153  10.059   9.724 -0.1166 -0.3755  0.2617
  674loPI   C3B10783   3.129  10.007   9.260  0.3272 -0.0174 -0.0974
  674loPI   C4B10784   3.291  10.067   8.900  0.0961 -0.0728  0.1692
  675loPI    C110785  15.978   0.808  11.506  0.1746  0.0215  0.0063
  675loPI    C210786  15.999   0.618  11.857  0.0598 -0.0228 -0.0101
  675loPI    C310787  15.906   1.007  11.846 -0.1118 -0.0627 -0.0018
  675loPI   PO410788  16.178   0.729  11.331  0.3181 -0.0552 -0.4749
  675loPI   GL110789  16.294   0.886  11.028  0.0337  0.2384 -0.0008
  675loPI   GL210790  16.090   1.046  10.923  0.2360 -0.0933 -0.3700
  675loPI   C1A10791  16.448   0.768  10.671  0.2330 -0.3906 -0.1490
  675loPI   C2A10792  16.457   0.711  10.310 -0.2056  0.0884  0.0843
  675loPI   C3A10793  16.513   0.742   9.802 -0.0807  0.0441  0.2178
  675loPI   C4A10794  16.350   0.799   9.372  0.1736 -0.1366  0.0786
  675loPI   C5A10795  16.551   0.738   8.943 -0.0160 -0.0937 -0.0382
  675loPI   C6A10796  16.611   0.703   8.512  0.0320  0.0616 -0.0293
  675loPI   C1B10797  16.124   1.137  10.462  0.3177 -0.0896  0.1697
  675loPI   C2B10798  16.120   1.087  10.081  0.3166 -0.0312  0.4778
  675loPI   C3B10799  16.101   1.157   9.700 -0.1723 -0.1928 -0.1625
  675loPI   C4B10800  16.057   1.191   9.303 -0.2802  0.1509  0.0640
  676loPI    C110801  12.895   6.778  11.120 -0.1858  0.1308 -0.2477
  676loPI    C210802  12.998   6.455  10.907  0.0007  0.0772 -0.0787
  676loPI    C310803  13.107   6.485  11.291 -0.2674  0.2082 -0.0104
  676loPI   PO410804  12.947   7.083  11.020  0.1865 -0.1366 -0.2236
  676loPI   GL110805  12.914   7.446  10.659 -0.1573  0.1074 -0.4461
  676loPI   GL210806  12.614   7.425  10.631  0.2291 -0.0063  0.0458
  676loPI   C1A10807  13.066   7.521  10.246 -0.2183 -0.1282  0.0477
  676loPI   C2A10808  13.116   7.713   9.824 -0.0925  0.1813 -0.1994
  676loPI   C3A10809  13.088   7.700   9.385  0.0930  0.0390 -0.0674
  676loPI   C4A10810  13.107   7.823   9.016 -0.0209  0.0036 -0.0937
  676loPI   C5A10811  13.370   7.914   8.696 -0.0825  0.2719  0.1501
  676loPI   C6A10812  13.345   7.709   8.378  0.0399  0.0234  0.0818
  676loPI   C1B10813  12.611   7.414  10.147 -0.1511 -0.3258 -0.1545
  676loPI   C2B10814  12.674   7.502   9.679 -0.1620 -0.1401 -0.0374
  676loPI   C3B10815  12.580   7.415   9.285  0.2849 -0.1445  0.0492
  676loPI   C4B10816  12.596   7.533   8.939 -0.1735 -0.2192 -0.1843
  677loPI    C110817  12.069  14.966   5.531  0.1426 -0.0537  0.2321
  677loPI    C210818  12.166  14.698   5.250  0.1630  0.3347 -0.1410
  677loPI    C310819  11.815  14.888   5.232  0.0179  0.1196  0.2913
  677loPI   PO410820  12.073  14.855   5.777  0.0795  0.0671  0.0210
  677loPI   GL110821  12.355  14.817   6.056 -0.3096 -0.0197 -0.3807
  677loPI   GL210822  12.601  14.777   6.146 -0.1477 -0.0529  0.1110
  677loPI   C1A10823  12.147  14.733   6.444  0.3119  0.0108  0.0738
  677loPI   C2A10824  12.123  14.575   6.766  0.0275  0.0585  0.1842
  677loPI   C3A10825  12.148  14.637   7.176  0.1316  0.0916 -0.0015
  677loPI   C4A10826  12.107  14.564   7.569  0.1759 -0.0055  0.2239
  677loPI   C5A10827  12.079  14.580   7.930  0.1254 -0.1022 -0.1428
  677loPI   C6A10828  12.289  14.638   8.363 -0.2602  0.0169  0.0502
  677loPI   C1B10829  12.608  14.870   6.558  0.1060  0.0651  0.0177
  677loPI   C2B10830  12.651  14.675   6.994 -0.1280 -0.0736  0.1722
  677loPI   C3B10831  12.633  14.658   7.488 -0.0406  0.0169  0.2857
  677loPI   C4B10832  12.640  14.565   7.873 -0.1941 -0.0417 -0.0543
  678loPI    C110833  16.141  16.886   5.805  0.0966  0.0445 -0.0029
  678loPI    C210834  16.175  17.118   5.480 -0.0157 -0.1983 -0.1912
  678loPI    C310835  16.178  16.719   5.443  0.2330 -0.2314  0.1352
  678loPI   PO410836  16.207  16.988   6.025  0.0645  0.2748 -0.0769
  678loPI   GL110837  16.219  17.355   6.322  0.1973 -0.0712 -0.0754
  678loPI   GL210838  16.428  17.638   6.465  0.2886  0.1069  0.4380
  678loPI   C1A10839  16.195  17.281   6.738 -0.1177  0.3999 -0.1363
  678loPI   C2A10840  16.198  17.225   7.260 -0.0159 -0.0148  0.2102
  678loPI   C3A10841  16.220  17.316   7.653  0.0971 -0.1210  0.0876
  678loPI   C4A10842  16.125  17.374   7.976 -0.1437 -0.1211  0.2590
  678loPI   C5A10843  16.333  17.416   8.444 -0.1151  0.2201 -0.3284
  678loPI   C6A10844  16.250  17.039   8.841  0.2276 -0.1601  0.0935
  678loPI   C1B10845  16.383  17.697   6.899 -0.0463 -0.1959 -0.0226
  678loPI   C2B10846  16.381  17.732   7.326 -0.2189  0.1460 -0.1809
  678loPI   C3B10847  16.404  17.814   7.692 -0.2499  0.0658  0.0488
  678loPI   C4B10848  16.319  17.787   8.147  0.0104 -0.1210 -0.0936
  679loPI    C110849  14.926  16.609   5.600 -0.1144 -0.1690 -0.2314
  679loPI    C210850  15.256  16.667   5.381 -0.1196 -0.0184 -0.2006
  679loPI    C310851  14.903  16.801   5.249 -0.1518 -0.0859 -0.1835
  679loPI   PO410852  15.008  16.636   5.823  0.0037  0.0827 -0.0977
  679loPI   GL110853  15.288  16.568   6.185 -0.2102  0.1654 -0.3470
  679loPI   GL210854  15.385  16.824   6.139 -0.0211  0.2996 -0.0385
  679loPI   C1A10855  15.279  16.326   6.645  0.0495  0.1868 -0.1540
  679loPI   C2A10856  15.319  16.279   7.052  0.1317  0.2514 -0.1397
  679loPI   C3A10857  15.302  16.297   7.526  0.1616 -0.1361  0.0789
  679loPI   C4A10858  15.304  16.362   7.977  0.1381  0.0386  0.0018
  679loPI   C5A10859  15.129  16.407   8.371 -0.0365 -0.0682 -0.0059
  679loPI   C6A10860  14.937  16.787   8.507 -0.2352 -0.0008 -0.0781
  679loPI   C1B10861  15.441  16.858   6.701 -0.0632  0.0281 -0.0203
  679loPI   C2B10862  15.523  16.739   7.084  0.2044 -0.1378 -0.2834
  679loPI   C3B10863  15.477  16.752   7.583  0.1320  0.0778  0.1021
  679loPI   C4B10864  15.470  16.831   8.026  0.1126  0.0180  0.2952
  680loPI    C110865   3.120   7.989   5.354 -0.0164 -0.2793 -0.0462
  680loPI    C210866   2.849   7.766   5.161 -0.0777 -0.1959 -0.0575
  680loPI    C310867   3.218   7.807   5.012 -0.0773 -0.2600 -0.0742
  680loPI   PO410868   3.135   7.856   5.574  0.2403  0.1837 -0.0441
  680loPI   GL110869   3.277   7.859   5.966  0.1530  0.2589 -0.0532
  680loPI   GL210870   3.568   7.692   6.128 -0.0064  0.0395 -0.1639
  680loPI   C1A10871   3.271   8.060   6.341  0.3491  0.1242 -0.0181
  680loPI   C2A10872   3.330   7.957   6.799  0.0701 -0.0019  0.1130
  680loPI   C3A10873   3.213   7.999   7.299  0.1127  0.1344 -0.0874
  680loPI   C4A10874   3.257   7.874   7.736  0.1534  0.0877  0.0735
  680loPI   C5A10875   3.213   8.080   8.127  0.1383  0.1105 -0.0618
  680loPI   C6A10876   2.867   8.051   8.274 -0.1873 -0.1071  0.0693
  680loPI   C1B10877   3.577   7.532   6.522 -0.1849  0.1704 -0.2393
  680loPI   C2B10878   3.453   7.544   7.013  0.0763  0.0070 -0.2198
  680loPI   C3B10879   3.519   7.514   7.457  0.0474 -0.2224  0.0706
  680loPI   C4B10880   3.638   7.482   7.912 -0.0948 -0.2007  0.0019
  681loPI    C110881   9.119   3.388   5.640 -0.2056  0.0747 -0.0678
  681loPI    C210882   9.147   3.442   5.245 -0.0322 -0.3593 -0.1198
  681loPI    C310883   9.296   3.111   5.413 -0.1255 -0.1904  0.3087
  681loPI   PO410884   8.894   3.346   5.705  0.1399  0.0046  0.3520
  681loPI   GL110885   8.930   3.255   6.104  0.0260  0.0094  0.1693
  681loPI   GL210886   8.732   3.608   6.207  0.2219  0.0988  0.1201
  681loPI   C1A10887   9.047   3.252   6.521 -0.3776  0.2019 -0.0136
  681loPI   C2A10888   9.070   3.395   7.075  0.1255  0.1249  0.2543
  681loPI   C3A10889   9.014   3.300   7.502  0.1009 -0.2025  0.3841
  681loPI   C4A10890   9.054   3.285   7.936  0.2618  0.1699  0.1640
  681loPI   C5A10891   9.283   3.055   8.273  0.0389  0.0930  0.0867
  681loPI   C6A10892   9.165   2.704   8.496  0.0736 -0.1124  0.1590
  681loPI   C1B10893   8.747   3.718   6.606 -0.0839 -0.1145 -0.0455
  681loPI   C2B10894   8.712   3.744   6.963 -0.0088 -0.0441  0.0829
  681loPI   C3B10895   8.786   3.818   7.411  0.0065  0.0287 -0.0520
  681loPI   C4B10896   8.788   3.725   7.841 -0.1235  0.2091 -0.2732
  682loPI    C110897  15.376   9.471   5.726  0.0649  0.0031 -0.1756
  682loPI    C210898  15.560   9.245   5.452  0.0306  0.0194 -0.2120
  682loPI    C310899  15.578   9.644   5.427  0.3515  0.0235  0.0248
  682loPI   PO410900  15.298   9.412   5.945  0.0621 -0.2472  0.0193
  682loPI   GL110901  15.365   9.479   6.330  0.0882  0.2059  0.1421
  682loPI   GL210902  15.723   9.297   6.344 -0.1274  0.1320 -0.1492
  682loPI   C1A10903  15.426   9.576   6.739 -0.2025 -0.0019 -0.0268
  682loPI   C2A10904  15.408   9.561   7.215  0.0301 -0.1085  0.1977
  682loPI   C3A10905  15.322   9.586   7.643 -0.1106 -0.1408  0.0963
  682loPI   C4A10906  15.344   9.630   8.094 -0.0504  0.0498  0.0069
  682loPI   C5A10907  15.097   9.559   8.430 -0.0392 -0.0983 -0.0199
  682loPI   C6A10908  14.874   9.235   8.703 -0.3054  0.1022  0.0246
  682loPI   C1B10909  15.726   9.173   6.718 -0.0570  0.3189  0.1050
  682loPI   C2B10910  15.722   9.194   7.103  0.2034 -0.2008 -0.1892
  682loPI   C3B10911  15.607   9.191   7.564  0.0408  0.2126 -0.0006
  682loPI   C4B10912  15.608   9.189   7.994  0.1793 -0.0108 -0.1941
  683loPI    C110913   5.476   4.541   5.233  0.1921  0.0625 -0.0232
  683loPI    C210914   5.444   4.796   4.927  0.1279 -0.0825 -0.1386
  683loPI    C310915   5.257   4.443   4.913 -0.2039  0.0717  0.2389
  683loPI   PO410916   5.469   4.774   5.449 -0.1251  0.0620 -0.2810
  683loPI   GL110917   5.797   4.931   5.779 -0.0335 -0.1050  0.2714
  683loPI   GL210918   5.487   5.018   6.005  0.0109  0.0100  0.4762
  683loPI   C1A10919   6.164   4.778   5.942  0.0795  0.0607  0.0238
  683loPI   C2A10920   6.202   4.758   6.366  0.2381 -0.0167 -0.1749
  683loPI   C3A10921   6.219   4.714   6.801 -0.2846  0.1728 -0.1089
  683loPI   C4A10922   6.148   4.761   7.312 -0.1448  0.2965 -0.1424
  683loPI   C5A10923   6.080   4.736   7.764 -0.2254  0.2786  0.1035
  683loPI   C6A10924   6.104   4.633   8.287  0.0334 -0.3041 -0.1757
  683loPI   C1B10925   5.508   5.117   6.419  0.3381 -0.1137  0.1751
  683loPI   C2B10926   5.297   5.045   6.802 -0.3807 -0.0642 -0.2051
  683loPI   C3B10927   5.353   5.034   7.241 -0.2565  0.2480  0.3092
  683loPI   C4B10928   5.424   4.995   7.732  0.1324  0.0868  0.1057
  684loPI    C110929  15.167   4.315   5.414 -0.1424  0.0920  0.0971
  684loPI    C210930  14.932   4.171   5.123  0.0207  0.0360 -0.0083
  684loPI    C310931  15.289   4.003   5.194  0.0144  0.0973  0.1748
  684loPI   PO410932  15.072   4.345   5.639 -0.0298  0.0680 -0.0114
  684loPI   GL110933  14.975   4.561   6.027 -0.0078 -0.1398 -0.1381
  684loPI   GL210934  14.725   4.639   6.161  0.0080  0.0918  0.1465
  684loPI   C1A10935  15.193   4.575   6.350 -0.2333 -0.0420  0.0282
  684loPI   C2A10936  15.216   4.642   6.826  0.0187  0.0478  0.0492
  684loPI   C3A10937  15.281   4.746   7.210 -0.0383  0.0608  0.0959
  684loPI   C4A10938  15.289   4.779   7.618 -0.1033  0.0305  0.1845
  684loPI   C5A10939  14.988   4.727   7.963 -0.0979  0.0177  0.2833
  684loPI   C6A10940  14.798   4.407   8.174  0.3307 -0.0917 -0.1011
  684loPI   C1B10941  14.734   4.545   6.642  0.1439  0.0368  0.1676
  684loPI   C2B10942  14.765   4.596   7.048 -0.0137  0.2820 -0.0565
  684loPI   C3B10943  14.679   4.652   7.385  0.1530 -0.0644 -0.2292
  684loPI   C4B10944  14.418   4.629   7.778  0.1320 -0.0886  0.0612
  685loPI    C110945   4.915  11.857   5.493  0.3060 -0.0607  0.0261
  685loPI    C210946   4.612  11.971   5.257  0.0681 -0.1480  0.2845
  685loPI    C310947   4.970  11.891   5.098  0.0387  0.2378  0.0101
  685loPI   PO410948   4.846  11.672   5.638  0.1350  0.1471  0.0311
  685loPI   GL110949   4.626  11.516   6.031 -0.1776 -0.3981 -0.0019
  685loPI   GL210950   4.808  11.772   6.122 -0.1366  0.0549 -0.2643
  685loPI   C1A10951   4.641  11.385   6.371  0.0670  0.0808  0.1690
  685loPI   C2A10952   4.624  11.352   6.777 -0.1731  0.0776  0.0490
  685loPI   C3A10953   4.590  11.409   7.277 -0.0217  0.1666  0.2152
  685loPI   C4A10954   4.585  11.284   7.642 -0.0095 -0.0938 -0.0922
  685loPI   C5A10955   4.882  11.208   8.030  0.2213  0.0093  0.1686
  685loPI   C6A10956   5.073  11.329   8.385 -0.3685  0.2366 -0.2418
  685loPI   C1B10957   4.823  11.825   6.602 -0.0626  0.1555  0.3081
  685loPI   C2B10958   4.786  11.857   7.004  0.0470 -0.0142  0.0151
  685loPI   C3B10959   4.777  11.822   7.437 -0.2465  0.2341  0.0599
  685loPI   C4B10960   4.853  11.759   8.015  0.1377 -0.1492 -0.3074
  686loPI    C110961  15.129  15.168   5.281 -0.2994 -0.1301 -0.0193
  686loPI    C210962  15.488  15.247   5.124 -0.0998  0.0490  0.5031
  686loPI    C310963  15.165  15.447   4.997 -0.0204 -0.1055  0.0377
  686loPI   PO410964  15.194  15.179   5.527  0.1524  0.0488 -0.0345
  686loPI   GL110965  15.300  15.265   5.974  0.0243 -0.1363 -0.0341
  686loPI   GL210966  15.503  15.543   6.195 -0.0721 -0.0673  0.0100
  686loPI   C1A10967  15.281  15.070   6.348 -0.0071  0.2176  0.0230
  686loPI   C2A10968  15.185  15.014   6.768 -0.0670 -0.1124 -0.2943
  686loPI   C3A10969  15.047  14.945   7.344  0.3290  0.3593  0.0848
  686loPI   C4A10970  15.182  15.006   7.778  0.2397  0.1383 -0.0999
  686loPI   C5A10971  15.200  15.141   8.235  0.2534 -0.0958 -0.2024
  686loPI   C6A10972  15.289  15.220   8.689  0.1644 -0.0578 -0.0439
  686loPI   C1B10973  15.424  15.476   6.629 -0.1533  0.0080  0.2042
  686loPI   C2B10974  15.340  15.397   7.099 -0.4325  0.0832 -0.2105
  686loPI   C3B10975  15.277  15.371   7.482  0.0482  0.1831  0.2003
  686loPI   C4B10976  15.354  15.478   7.883 -0.0638  0.0772  0.0126
  687loPI    C110977  12.271   4.710   5.957  0.1884 -0.0122 -0.0658
  687loPI    C210978  12.154   4.551   5.609 -0.0532  0.1053 -0.0405
  687loPI    C310979  12.535   4.661   5.660 -0.0243  0.1248 -0.2822
  687loPI   PO410980  12.094   4.534   6.106  0.0257 -0.1799 -0.2553
  687loPI   GL110981  11.933   4.560   6.564 -0.0205  0.0494 -0.2917
  687loPI   GL210982  11.679   4.358   6.486  0.0018  0.3282  0.0552
  687loPI   C1A10983  11.903   4.564   7.100  0.1248 -0.1341 -0.0581
  687loPI   C2A10984  11.950   4.593   7.582 -0.0988  0.2138  0.2375
  687loPI   C3A10985  11.968   4.620   7.943  0.1107 -0.0517 -0.1446
  687loPI   C4A10986  12.007   4.816   8.355 -0.2104 -0.0249 -0.3028
  687loPI   C5A10987  12.346   4.932   8.560 -0.1549  0.1961 -0.2826
  687loPI   C6A10988  12.838   4.996   8.523  0.0106  0.1044  0.0933
  687loPI   C1B10989  11.423   4.594   6.828 -0.2714  0.0721  0.1695
  687loPI   C2B10990  11.418   4.581   7.346 -0.1029 -0.0396  0.1154
  687loPI   C3B10991  11.493   4.542   7.785  0.0570 -0.1915 -0.0176
  687loPI   C4B10992  11.426   4.709   8.239  0.6369 -0.0408  0.2406
  688loPI    C110993   8.789  14.848   5.818 -0.0697 -0.2841 -0.0020
  688loPI    C210994   8.687  14.909   5.437 -0.0073 -0.2696 -0.0165
  688loPI    C310995   8.405  14.831   5.709 -0.1096  0.2380  0.0330
  688loPI   PO410996   8.918  14.661   5.838 -0.1938 -0.1637  0.0837
  688loPI   GL110997   9.110  14.659   6.247 -0.2449 -0.2704  0.1616
  688loPI   GL210998   8.855  14.648   6.460 -0.2634 -0.2548  0.3771
  688loPI   C1A10999   9.351  14.758   6.599 -0.0121 -0.1881 -0.0663
  688loPI   C2A11000   9.322  14.738   7.018  0.0578 -0.1009 -0.0578
  688loPI   C3A11001   9.293  14.708   7.421  0.1452 -0.1586 -0.2370
  688loPI   C4A11002   9.231  14.755   7.833  0.2143 -0.1721  0.1035
  688loPI   C5A11003   9.377  15.012   8.096 -0.1167  0.1016 -0.0193
  688loPI   C6A11004   9.175  15.198   8.408 -0.4663  0.0762 -0.1414
  688loPI   C1B11005   8.915  14.691   6.800  0.1075 -0.3237 -0.1609
  688loPI   C2B11006   8.799  14.663   7.257 -0.0858  0.1486 -0.1506
  688loPI   C3B11007   8.713  14.716   7.682  0.1550  0.0712 -0.2762
  688loPI   C4B11008   8.714  14.516   8.123  0.0419 -0.1026  0.4552
  689loPI    C111009  10.684  10.186   5.490  0.1929 -0.1097 -0.1213
  689loPI    C211010  10.833   9.866   5.301  0.1635 -0.1918 -0.0064
  689loPI    C311011  10.643  10.150   5.094  0.3383 -0.1649 -0.1323
  689loPI   PO411012  10.898  10.180   5.674  0.0975 -0.3562  0.0293
  689loPI   GL111013  10.796  10.074   5.972 -0.1671  0.0369  0.2284
  689loPI   GL211014  10.845  10.267   6.169 -0.2705 -0.3273  0.1634
  689loPI   C1A11015  10.731   9.892   6.410  0.1355 -0.1438 -0.2925
  689loPI   C2A11016  10.678   9.894   6.823 -0.0364 -0.0813  0.3326
  689loPI   C3A11017  10.606   9.911   7.223 -0.1142  0.2456  0.5038
  689loPI   C4A11018  10.614   9.966   7.612  0.1260  0.0286  0.2938
  689loPI   C5A11019  10.583   9.965   8.046 -0.1653 -0.1636  0.0284
  689loPI   C6A11020  10.644   9.905   8.466 -0.1424 -0.1131 -0.1644
  689loPI   C1B11021  10.909  10.386   6.549 -0.0623 -0.2623 -0.3466
  689loPI   C2B11022  10.808  10.443   6.963 -0.2007 -0.0168  0.0902
  689loPI   C3B11023  10.798  10.389   7.405 -0.1154  0.1027  0.0435
  689loPI   C4B11024  10.834  10.474   7.876 -0.1734 -0.2050 -0.0390
  690loPI    C111025   0.429   2.682   5.496 -0.0993  0.1892  0.0021
  690loPI    C211026   0.683   2.896   5.273  0.0772 -0.2096 -0.1910
  690loPI    C311027   0.555   2.540   5.144 -0.5730 -0.0268 -0.0886
  690loPI   PO411028   0.551   2.673   5.696 -0.1049  0.1570  0.0655
  690loPI   GL111029   0.561   2.712   6.180  0.1063 -0.3370 -0.3607
  690loPI   GL211030   0.465   2.389   6.105 -0.0026 -0.0263 -0.4027
  690loPI   C1A11031   0.533   2.704   6.547  0.1537  0.0380 -0.0507
  690loPI   C2A11032   0.525   2.786   6.928 -0.1066  0.3994 -0.1590
  690loPI   C3A11033   0.513   2.845   7.380  0.1654 -0.2450  0.0495
  690loPI   C4A11034   0.483   2.800   7.871 -0.1851  0.0465 -0.0334
  690loPI   C5A11035   0.271   2.576   8.170  0.1475  0.0223 -0.1585
  690loPI   C6A11036   0.181   2.471   8.661 -0.3317 -0.0607 -0.1731
  690loPI   C1B11037   0.200   2.394   6.433  0.2772  0.0654 -0.0605
  690loPI   C2B11038   0.238   2.231   6.833 -0.1002  0.0452  0.0066
  690loPI   C3B11039   0.330   2.387   7.222  0.0321  0.2327 -0.2752
  690loPI   C4B11040   0.254   2.412   7.626  0.0238  0.0736 -0.0028
  691loPI    C111041   6.766  10.979   5.348 -0.1860  0.0490  0.0950
  691loPI    C211042   6.605  11.333   5.255 -0.3585 -0.0206  0.1236
  691loPI    C311043   6.710  11.079   4.965 -0.2257  0.0569  0.1028
  691loPI   PO411044   6.839  11.007   5.641  0.3085 -0.0049 -0.2523
  691loPI   GL111045   6.961  10.733   5.878  0.0583 -0.1994  0.1031
  691loPI   GL211046   6.776  10.779   6.106  0.0137  0.3015 -0.1023
  691loPI   C1A11047   7.219  10.599   6.338  0.3371 -0.0730 -0.3720
  691loPI   C2A11048   7.247  10.668   6.759 -0.1999  0.3243 -0.1239
  691loPI   C3A11049   7.212  10.778   7.172 -0.0902 -0.0872 -0.1931
  691loPI   C4A11050   7.251  10.728   7.523 -0.1324 -0.0266 -0.2271
  691loPI   C5A11051   7.203  10.845   8.025 -0.1365 -0.1350  0.1376
  691loPI   C6A11052   7.416  10.577   8.383 -0.1412  0.0704 -0.1411
  691loPI   C1B11053   6.756  10.681   6.585 -0.0879 -0.0089  0.0071
  691loPI   C2B11054   6.622  10.688   7.027 -0.1068  0.1544  0.1751
  691loPI   C3B11055   6.733  10.638   7.392  0.0940 -0.2657 -0.0199
  691loPI   C4B11056   6.720  10.789   7.877  0.2621 -0.0275 -0.2992
  692loPI    C111057  11.104   5.053   5.639  0.3694  0.1300  0.1226
  692loPI    C211058  11.295   5.001   5.291  0.3176  0.3070  0.0667
  692loPI    C311059  10.916   5.127   5.294  0.1480 -0.1841  0.1713
  692loPI   PO411060  11.343   4.978   5.809  0.1661  0.0389  0.2494
  692loPI   GL111061  11.452   5.131   6.289 -0.0441 -0.3555 -0.1117
  692loPI   GL211062  11.635   4.897   6.379 -0.1716  0.0709 -0.1002
  692loPI   C1A11063  11.386   5.408   6.646  0.1508  0.3530  0.0201
  692loPI   C2A11064  11.346   5.523   7.094 -0.1770 -0.0634  0.1794
  692loPI   C3A11065  11.264   5.466   7.558  0.0488 -0.0597 -0.0017
  692loPI   C4A11066  11.261   5.523   8.025  0.0820  0.0306  0.1015
  692loPI   C5A11067  11.221   5.593   8.462 -0.1537 -0.0932 -0.3560
  692loPI   C6A11068  11.250   5.759   8.843 -0.1153 -0.0882  0.1783
  692loPI   C1B11069  11.733   4.986   6.738 -0.0212 -0.0958 -0.1257
  692loPI   C2B11070  11.593   5.092   7.103 -0.0150  0.1395 -0.1359
  692loPI   C3B11071  11.576   5.019   7.582  0.0577  0.0627  0.1248
  692loPI   C4B11072  11.702   5.032   7.957 -0.0240  0.2905  0.0738
  693loPI    C111073  13.608  16.512   5.574 -0.1435 -0.2392 -0.0095
  693loPI    C211074  13.664  16.885   5.441 -0.1967 -0.1657  0.1716
  693loPI    C311075  13.628  16.583   5.181 -0.0635 -0.0577  0.0263
  693loPI   PO411076  13.619  16.649   5.882  0.2523  0.0415 -0.0204
  693loPI   GL111077  13.422  16.538   6.290 -0.0868  0.2240 -0.1376
  693loPI   GL211078  13.666  16.322   6.331  0.0186 -0.0945  0.2823
  693loPI   C1A11079  13.401  16.636   6.736 -0.1231 -0.2006  0.2189
  693loPI   C2A11080  13.441  16.631   7.141  0.0829  0.0691 -0.0684
  693loPI   C3A11081  13.430  16.524   7.461 -0.0267 -0.0694  0.0301
  693loPI   C4A11082  13.464  16.560   7.855  0.0435 -0.2716 -0.2434
  693loPI   C5A11083  13.540  16.494   8.308 -0.0139 -0.1500  0.0893
  693loPI   C6A11084  13.663  16.197   8.839  0.0530  0.0357 -0.2162
  693loPI   C1B11085  13.758  16.206   6.766  0.2812  0.1455 -0.0430
  693loPI   C2B11086  13.745  16.147   7.191 -0.1984 -0.3668 -0.0185
  693loPI   C3B11087  13.707  16.143   7.588  0.0650  0.2249 -0.2782
  693loPI   C4B11088  13.725  16.035   8.114 -0.0019 -0.0337 -0.2927
  694loPI    C111089   6.789  10.547   5.000  0.0878 -0.1349 -0.2157
  694loPI    C211090   6.692  10.291   4.708 -0.2900 -0.1548 -0.0791
  694loPI    C311091   6.576  10.673   4.686 -0.2699 -0.1428  0.0181
  694loPI   PO411092   6.824  10.326   5.215  0.1576 -0.3182  0.0147
  694loPI   GL111093   6.959  10.274   5.648  0.0359  0.1668  0.2489
  694loPI   GL211094   6.718  10.095   5.672  0.1932 -0.0903 -0.1120
  694loPI   C1A11095   6.950  10.299   6.045  0.2235  0.2002 -0.2102
  694loPI   C2A11096   7.018  10.250   6.544  0.2138 -0.0162 -0.0413
  694loPI   C3A11097   6.994  10.285   6.956  0.1449  0.1330 -0.1511
  694loPI   C4A11098   7.107  10.291   7.380 -0.3491 -0.0785 -0.0506
  694loPI   C5A11099   6.900  10.335   7.793 -0.4092 -0.0440  0.0492
  694loPI   C6A11100   6.591  10.185   8.003  0.0910 -0.2777  0.1173
  694loPI   C1B11101   6.513  10.029   6.051  0.1718  0.1485  0.1934
  694loPI   C2B11102   6.542  10.100   6.548  0.2825 -0.3201  0.2125
  694loPI   C3B11103   6.511  10.199   6.984 -0.0923  0.2376 -0.1724
  694loPI   C4B11104   6.576  10.173   7.435 -0.0107  0.4194  0.0376
  695loPI    C111105   2.769   0.774   5.686  0.0746  0.0024 -0.0279
  695loPI    C211106   3.020   0.997   5.468  0.2134 -0.0118  0.1152
  695loPI    C311107   2.661   0.897   5.321  0.2991 -0.0090 -0.0993
  695loPI   PO411108   2.683   0.866   5.834 -0.5348 -0.0294  0.1411
  695loPI   GL111109   2.535   1.068   6.095  0.0225 -0.0375  0.2409
  695loPI   GL211110   2.547   0.792   6.317 -0.0582  0.1277 -0.0117
  695loPI   C1A11111   2.709   1.249   6.389  0.1155  0.1986  0.0777
  695loPI   C2A11112   2.803   1.276   6.796  0.2152  0.0698 -0.1106
  695loPI   C3A11113   2.871   1.264   7.193  0.1170 -0.5463 -0.1545
  695loPI   C4A11114   2.877   1.029   7.602 -0.1602 -0.4874  0.1234
  695loPI   C5A11115   2.857   1.017   8.039 -0.1075  0.0786  0.1132
  695loPI   C6A11116   2.629   1.199   8.396 -0.0944  0.0486  0.0370
  695loPI   C1B11117   2.569   0.797   6.759 -0.1825  0.2061 -0.1417
  695loPI   C2B11118   2.552   0.846   7.180 -0.0357 -0.3776  0.0735
  695loPI   C3B11119   2.394   0.868   7.629  0.0870  0.0515 -0.0070
  695loPI   C4B11120   2.358   0.945   8.012 -0.3783  0.1741 -0.1200
  696loPI    C111121   5.772  11.803   5.468 -0.2316  0.0940  0.0323
  696loPI    C211122   5.720  11.526   5.183 -0.1446 -0.0565  0.1609
  696loPI    C311123   6.084  11.677   5.251 -0.1545 -0.0646  0.2321
  696loPI   PO411124   5.665  11.748   5.639  0.2690 -0.2859  0.1753
  696loPI   GL111125   5.682  11.699   5.979  0.3227  0.4096  0.1667
  696loPI   GL211126   5.253  11.755   5.931 -0.1281  0.2581 -0.1185
  696loPI   C1A11127   5.670  11.550   6.406 -0.0222  0.0375 -0.0959
  696loPI   C2A11128   5.619  11.531   6.812  0.2479  0.0942  0.2217
  696loPI   C3A11129   5.541  11.517   7.233  0.2487  0.0421  0.0386
  696loPI   C4A11130   5.578  11.415   7.676  0.1074 -0.1771  0.1461
  696loPI   C5A11131   5.518  11.275   8.108  0.0672 -0.0552 -0.3356
  696loPI   C6A11132   5.609  11.319   8.561  0.1463 -0.0365  0.0210
  696loPI   C1B11133   5.336  11.927   6.338 -0.0907  0.2016 -0.1541
  696loPI   C2B11134   5.278  11.913   6.769 -0.3384  0.2682  0.2503
  696loPI   C3B11135   5.278  11.963   7.226  0.1900  0.2288 -0.0919
  696loPI   C4B11136   5.327  11.892   7.572 -0.1837 -0.2911 -0.0731
  697loPI    C111137  12.413   5.190   5.932 -0.2904  0.1156  0.1347
  697loPI    C211138  12.454   5.396   5.592  0.0716 -0.1465  0.0137
  697loPI    C311139  12.247   5.053   5.595 -0.0854 -0.0524  0.1002
  697loPI   PO411140  12.339   5.372   6.056 -0.1631 -0.2756 -0.0291
  697loPI   GL111141  12.206   5.695   6.362  0.1709 -0.1063  0.3711
  697loPI   GL211142  12.001   5.857   6.511 -0.0771 -0.0096  0.2016
  697loPI   C1A11143  12.303   5.616   6.764 -0.1320  0.2918 -0.1683
  697loPI   C2A11144  12.287   5.548   7.208 -0.0337 -0.3176  0.1157
  697loPI   C3A11145  12.273   5.605   7.725  0.1659 -0.0096 -0.3668
  697loPI   C4A11146  12.344   5.755   8.178  0.1136  0.0515  0.1571
  697loPI   C5A11147  12.182   5.862   8.607 -0.1616  0.2830  0.0177
  697loPI   C6A11148  12.085   5.606   8.984 -0.0601 -0.1956 -0.0564
  697loPI   C1B11149  12.005   5.973   6.918 -0.2572  0.3380  0.1484
  697loPI   C2B11150  11.992   6.067   7.406  0.1576 -0.1027 -0.3789
  697loPI   C3B11151  11.907   6.011   7.857  0.0058  0.0122 -0.0221
  697loPI   C4B11152  11.982   6.169   8.248 -0.1459  0.0698  0.1042
  698loPI    C111153   2.983   3.369   5.742 -0.1085 -0.1238 -0.0509
  698loPI    C211154   2.815   3.092   5.508  0.2323 -0.2288 -0.1784
  698loPI    C311155   3.042   3.379   5.347 -0.1299  0.1417 -0.0493
  698loPI   PO411156   2.787   3.412   5.924 -0.0854  0.0970 -0.3747
  698loPI   GL111157   2.771   3.693   6.296  0.2040  0.0214 -0.2049
  698loPI   GL211158   2.916   3.973   6.335  0.1426  0.0955  0.0796
  698loPI   C1A11159   2.734   3.449   6.608  0.1385 -0.0555  0.1747
  698loPI   C2A11160   2.805   3.469   7.024  0.2529  0.3726 -0.3600
  698loPI   C3A11161   2.996   3.779   7.262 -0.1233  0.0633  0.1045
  698loPI   C4A11162   2.835   4.143   7.350  0.1860  0.0506  0.1040
  698loPI   C5A11163   2.563   4.393   7.261 -0.0353  0.0643 -0.2819
  698loPI   C6A11164   2.594   4.397   6.842 -0.1436  0.1187  0.1405
  698loPI   C1B11165   2.889   3.915   6.824 -0.1064 -0.0406 -0.0051
  698loPI   C2B11166   3.145   4.290   6.966  0.0809  0.1669  0.0233
  698loPI   C3B11167   3.205   4.473   7.375  0.1010  0.0147 -0.2212
  698loPI   C4B11168   3.179   4.451   7.803  0.3115  0.2698  0.2960
  699loPI    C111169  11.640  12.316   5.562  0.3391  0.0072 -0.0226
  699loPI    C211170  11.597  12.377   5.169  0.0147  0.0212  0.0124
  699loPI    C311171  11.566  12.007   5.318  0.0201  0.0317  0.0396
  699loPI   PO411172  11.462  12.506   5.649 -0.1090 -0.0332 -0.4244
  699loPI   GL111173  11.316  12.592   6.083  0.1083 -0.2016  0.1265
  699loPI   GL211174  11.007  12.630   6.253 -0.0439 -0.0279 -0.0546
  699loPI   C1A11175  11.648  12.307   6.275 -0.1223  0.0436 -0.3084
  699loPI   C2A11176  11.764  12.289   6.731 -0.2053 -0.4818 -0.2818
  699loPI   C3A11177  11.700  12.257   7.119 -0.1406 -0.1448 -0.0939
  699loPI   C4A11178  11.650  12.334   7.520  0.0423  0.2396  0.1551
  699loPI   C5A11179  11.558  12.301   7.957  0.1474  0.0665 -0.0603
  699loPI   C6A11180  11.588  12.542   8.381  0.2755 -0.1729  0.1016
  699loPI   C1B11181  11.030  12.618   6.637  0.2499  0.1433 -0.0108
  699loPI   C2B11182  10.828  12.669   6.995 -0.0740 -0.3259  0.3342
  699loPI   C3B11183  10.779  12.697   7.442 -0.1285 -0.0600  0.0461
  699loPI   C4B11184  10.728  12.604   7.823 -0.3075  0.0628 -0.0613
  700loPI    C111185   5.137   3.241   5.400 -0.1369  0.0753 -0.1774
  700loPI    C211186   5.040   2.916   5.188  0.0629 -0.1967  0.1381
  700loPI    C311187   5.344   3.149   5.071 -0.0955 -0.1065 -0.1014
  700loPI   PO411188   4.935   3.239   5.574 -0.2581  0.1936 -0.1183
  700loPI   GL111189   5.022   3.148   5.991  0.1309  0.1095 -0.0751
  700loPI   GL211190   4.938   2.794   6.083  0.4181  0.2094 -0.3765
  700loPI   C1A11191   5.217   3.216   6.407 -0.0148  0.1369 -0.0873
  700loPI   C2A11192   5.242   3.160   6.803  0.1480  0.1375 -0.1407
  700loPI   C3A11193   5.082   3.238   7.206  0.0981 -0.0156  0.2875
  700loPI   C4A11194   5.194   3.186   7.648 -0.1338  0.0833  0.0171
  700loPI   C5A11195   5.315   3.402   7.984 -0.1826  0.1380 -0.0831
  700loPI   C6A11196   5.388   3.799   8.291 -0.3502  0.0697 -0.0820
  700loPI   C1B11197   4.958   2.790   6.517  0.0530 -0.0414  0.2009
  700loPI   C2B11198   4.873   2.846   6.925  0.1329  0.0550  0.0206
  700loPI   C3B11199   4.955   2.802   7.404  0.1871  0.0234 -0.1769
  700loPI   C4B11200   4.941   2.791   7.847 -0.1748 -0.0895  0.1374
  701loPI    C111201   4.234   5.870   5.483 -0.0444  0.2153 -0.1826
  701loPI    C211202   4.428   6.048   5.183 -0.0478  0.0324 -0.2947
  701loPI    C311203   4.153   5.768   5.105  0.0414 -0.1068 -0.1172
  701loPI   PO411204   4.470   5.872   5.730  0.1504 -0.1995  0.2202
  701loPI   GL111205   4.558   5.798   6.141  0.0873  0.2238  0.0308
  701loPI   GL211206   4.783   5.850   6.127  0.1855 -0.1507  0.0641
  701loPI   C1A11207   4.258   5.834   6.414  0.0949 -0.1353  0.3009
  701loPI   C2A11208   4.215   5.938   6.754 -0.1036 -0.1058 -0.0182
  701loPI   C3A11209   4.257   5.940   7.250 -0.1335 -0.0361 -0.2931
  701loPI   C4A11210   4.265   5.852   7.684 -0.1367  0.1650 -0.1901
  701loPI   C5A11211   4.346   5.640   8.069  0.2744 -0.0980  0.0879
  701loPI   C6A11212   4.456   5.803   8.332  0.1815 -0.0686 -0.1325
  701loPI   C1B11213   4.771   5.934   6.604  0.0668 -0.0655 -0.2385
  701loPI   C2B11214   4.724   5.925   7.013 -0.0104  0.1193  0.2012
  701loPI   C3B11215   4.723   5.870   7.466 -0.0356  0.1428  0.3710
  701loPI   C4B11216   4.812   5.803   7.899 -0.0255  0.0478 -0.0467
  702loPI    C111217  14.486  10.167   5.897  0.0311  0.0810 -0.1959
  702loPI    C211218  14.722  10.024   5.607 -0.0082  0.0411 -0.2084
  702loPI    C311219  14.622  10.411   5.611  0.2664  0.1133 -0.0590
  702loPI   PO411220  14.548  10.035   6.071 -0.1302 -0.2018 -0.1349
  702loPI   GL111221  14.642   9.808   6.359 -0.2066 -0.2502  0.0839
  702loPI   GL211222  15.008   9.845   6.411  0.0453  0.2126  0.1722
  702loPI   C1A11223  14.568   9.862   6.807 -0.0664  0.1218 -0.0406
  702loPI   C2A11224  14.474   9.895   7.249  0.0939  0.0365  0.1093
  702loPI   C3A11225  14.473   9.942   7.714 -0.0526  0.0222 -0.2121
  702loPI   C4A11226  14.354  10.033   8.149 -0.1934  0.2576  0.2347
  702loPI   C5A11227  14.415  10.233   8.541  0.2348  0.1436 -0.1422
  702loPI   C6A11228  14.245   9.977   8.863  0.3433  0.0022  0.0399
  702loPI   C1B11229  15.026   9.887   6.884 -0.4844 -0.0603  0.1062
  702loPI   C2B11230  14.997   9.931   7.409  0.0074 -0.0359 -0.0640
  702loPI   C3B11231  15.027   9.988   7.814 -0.1113  0.0004 -0.3644
  702loPI   C4B11232  14.869  10.055   8.203  0.1437 -0.0430 -0.2333
  703loPI    C111233   2.351  17.087   5.476 -0.1084 -0.0338 -0.1226
  703loPI    C211234   2.001  17.084   5.282 -0.0971  0.1806 -0.1488
  703loPI    C311235   2.342  17.126   5.078 -0.0767  0.2783 -0.0953
  703loPI   PO411236   2.361  17.072   5.770  0.0923  0.3025 -0.0502
  703loPI   GL111237   2.281  17.015   6.102 -0.1888  0.0392 -0.3923
  703loPI   GL211238   2.048  16.771   6.225 -0.0014 -0.0370 -0.2568
  703loPI   C1A11239   2.384  17.230   6.511  0.3172 -0.0275  0.1237
  703loPI   C2A11240   2.380  17.161   6.952 -0.1504  0.3032  0.0968
  703loPI   C3A11241   2.287  17.183   7.359 -0.0200  0.1243  0.0183
  703loPI   C4A11242   2.408  17.285   7.867 -0.1779 -0.1652  0.1903
  703loPI   C5A11243   2.504  17.164   8.238 -0.2483  0.1042 -0.1227
  703loPI   C6A11244   2.595  16.771   8.441  0.0633  0.1224 -0.0787
  703loPI   C1B11245   2.129  16.806   6.663  0.2084  0.2115  0.0348
  703loPI   C2B11246   2.095  16.746   7.152 -0.1985  0.1051  0.0120
  703loPI   C3B11247   2.151  16.787   7.604 -0.0296 -0.0412 -0.0415
  703loPI   C4B11248   2.130  16.879   8.116 -0.3437 -0.1081 -0.2633
  704loPI    C111249   3.590   0.213   5.586  0.3833 -0.0575  0.1086
  704loPI    C211250   3.457  -0.102   5.379  0.1368 -0.0242  0.2134
  704loPI    C311251   3.370   0.268   5.256  0.1021 -0.0027  0.3025
  704loPI   PO411252   3.553   0.181   5.859  0.0219  0.2409  0.1406
  704loPI   GL111253   3.377   0.199   6.125  0.0489  0.0368 -0.1038
  704loPI   GL211254   3.080  -0.056   6.137 -0.1730  0.1993 -0.1307
  704loPI   C1A11255   3.410   0.468   6.385  0.1591  0.0465  0.0755
  704loPI   C2A11256   3.392   0.451   6.772 -0.0071 -0.0642  0.1140
  704loPI   C3A11257   3.561   0.186   7.034  0.2000  0.2461 -0.2904
  704loPI   C4A11258   3.614   0.202   7.500  0.1097 -0.3905 -0.0901
  704loPI   C5A11259   3.504   0.239   7.954  0.2074  0.3760  0.0952
  704loPI   C6A11260   3.186   0.285   8.357 -0.1365 -0.2116 -0.2532
  704loPI   C1B11261   3.168  -0.016   6.554  0.0407 -0.0246 -0.0401
  704loPI   C2B11262   3.015  -0.007   6.928  0.0985 -0.0960 -0.0664
  704loPI   C3B11263   3.123   0.157   7.352  0.1450  0.0671 -0.0216
  704loPI   C4B11264   3.011   0.128   7.871 -0.1201 -0.0929 -0.1818
  705loPI    C111265   6.406   3.224   5.508 -0.1189  0.0319 -0.1765
  705loPI    C211266   6.202   3.138   5.175  0.2157 -0.0181 -0.3735
  705loPI    C311267   6.400   3.485   5.205 -0.0078  0.0917 -0.1280
  705loPI   PO411268   6.267   3.107   5.688 -0.2154 -0.0290 -0.2137
  705loPI   GL111269   6.262   2.874   5.909 -0.0729 -0.1523 -0.2507
  705loPI   GL211270   5.990   2.875   6.101 -0.0950  0.0569 -0.0061
  705loPI   C1A11271   6.472   2.923   6.330 -0.1012 -0.3623  0.0876
  705loPI   C2A11272   6.442   2.935   6.741 -0.1825 -0.3184  0.1735
  705loPI   C3A11273   6.486   3.066   7.133  0.3000  0.2737  0.3209
  705loPI   C4A11274   6.453   2.994   7.540 -0.1705 -0.0011 -0.2480
  705loPI   C5A11275   6.440   3.013   8.065  0.0084  0.1591 -0.3662
  705loPI   C6A11276   6.740   2.997   8.322  0.2458 -0.0130 -0.4631
  705loPI   C1B11277   6.004   2.860   6.517 -0.0605 -0.1175 -0.2305
  705loPI   C2B11278   5.925   2.946   6.867  0.2578 -0.4819  0.0030
  705loPI   C3B11279   5.991   2.950   7.356 -0.0294 -0.1101  0.3589
  705loPI   C4B11280   5.971   2.878   7.834 -0.0756  0.0936 -0.2894
  706loPI    C111281   1.918  17.322   5.765 -0.0128 -0.0205 -0.1134
  706loPI    C211282   1.597  17.255   5.537 -0.0225  0.0637 -0.1248
  706loPI    C311283   1.796  17.600   5.505  0.0285  0.0396 -0.0689
  706loPI   PO411284   1.821  17.187   5.976  0.0562 -0.0272 -0.0418
  706loPI   GL111285   1.422  17.255   6.236 -0.0681  0.1947  0.0457
  706loPI   GL211286   1.717  17.139   6.471 -0.2709  0.2329  0.1188
  706loPI   C1A11287   1.274  17.104   6.644 -0.1496 -0.0734  0.0528
  706loPI   C2A11288   1.368  17.047   7.070  0.3713  0.0575 -0.0372
  706loPI   C3A11289   1.349  17.089   7.519  0.0740  0.0141  0.3408
  706loPI   C4A11290   1.402  17.186   7.901 -0.1404  0.1181  0.1064
  706loPI   C5A11291   1.119  17.412   8.232  0.2110 -0.1018 -0.1929
  706loPI   C6A11292   0.909  17.636   8.244 -0.0739 -0.1439  0.0273
  706loPI   C1B11293   1.827  17.126   6.934 -0.0434 -0.1494  0.3726
  706loPI   C2B11294   1.794  17.174   7.372  0.0851 -0.0953 -0.0932
  706loPI   C3B11295   1.900  17.227   7.829 -0.0216 -0.1448  0.0521
  706loPI   C4B11296   1.896  17.282   8.200 -0.2533 -0.4724 -0.0861
  707loPI    C111297  16.478   2.276   5.494 -0.0514  0.2544 -0.1644
  707loPI    C211298  16.443   2.664   5.403  0.0965  0.2160 -0.3933
  707loPI    C311299  16.673   2.426   5.179 -0.0963 -0.0321 -0.3320
  707loPI   PO411300  16.536   2.297   5.752  0.1452 -0.2328  0.0625
  707loPI   GL111301  16.436   2.343   6.143 -0.2517  0.1119  0.2338
  707loPI   GL211302  16.168   2.541   6.262  0.0237  0.2605 -0.0090
  707loPI   C1A11303  16.472   2.182   6.522  0.2079 -0.0274  0.0135
  707loPI   C2A11304  16.519   2.178   7.050 -0.3224  0.0755 -0.1553
  707loPI   C3A11305  16.486   2.179   7.494 -0.2287 -0.2227 -0.3224
  707loPI   C4A11306  16.524   2.230   7.938 -0.1525 -0.0842 -0.0945
  707loPI   C5A11307  16.394   1.894   8.188 -0.0622 -0.0667  0.0918
  707loPI   C6A11308  16.417   1.536   8.510 -0.3366  0.1733 -0.1568
  707loPI   C1B11309  16.203   2.585   6.722 -0.1848 -0.2557  0.0260
  707loPI   C2B11310  16.195   2.622   7.148  0.1883  0.2028  0.1881
  707loPI   C3B11311  16.154   2.658   7.534 -0.2858 -0.1858 -0.3723
  707loPI   C4B11312  16.213   2.658   7.975 -0.0747  0.2360  0.0130
  708loPI    C111313  15.508  11.744   5.888  0.1501 -0.1821  0.1561
  708loPI    C211314  15.109  11.771   5.884  0.1695  0.1242  0.0514
  708loPI    C311315  15.316  11.815   5.544  0.2860 -0.1811  0.0797
  708loPI   PO411316  15.579  11.543   6.062  0.0179 -0.2464  0.3348
  708loPI   GL111317  15.621  11.508   6.481 -0.0681 -0.2311  0.1074
  708loPI   GL211318  15.951  11.589   6.616  0.1209 -0.0716 -0.0450
  708loPI   C1A11319  15.589  11.346   6.839  0.0577  0.1355  0.0856
  708loPI   C2A11320  15.607  11.368   7.390  0.0231 -0.0733 -0.0637
  708loPI   C3A11321  15.746  11.373   7.763 -0.2356  0.0460 -0.0374
  708loPI   C4A11322  16.119  11.493   7.915  0.0282  0.1049  0.0534
  708loPI   C5A11323  16.536  11.507   7.761  0.2125 -0.0889 -0.0716
  708loPI   C6A11324  16.628  11.593   7.331  0.0062 -0.3038 -0.2657
  708loPI   C1B11325  16.108  11.306   6.793 -0.0106  0.0904  0.0302
  708loPI   C2B11326  15.936  11.028   7.155  0.2524  0.0220  0.0208
  708loPI   C3B11327  15.878  10.968   7.477 -0.1188  0.3000 -0.1677
  708loPI   C4B11328  15.953  10.969   7.859  0.3271  0.0343 -0.0722
  709loPI    C111329   6.588   7.888   5.229 -0.0252 -0.1731 -0.0346
  709loPI    C211330   6.702   7.648   4.930  0.2321 -0.1089  0.0096
  709loPI    C311331   6.736   8.045   4.892 -0.1759 -0.0760 -0.0567
  709loPI   PO411332   6.549   7.904   5.515 -0.0146 -0.0414  0.1100
  709loPI   GL111333   6.504   7.714   5.864 -0.1398 -0.0346  0.1339
  709loPI   GL211334   6.391   7.490   6.084 -0.1902 -0.1948  0.1339
  709loPI   C1A11335   6.596   7.958   6.230 -0.1835  0.0941  0.0134
  709loPI   C2A11336   6.617   7.913   6.732  0.0646  0.0921  0.1610
  709loPI   C3A11337   6.618   7.934   7.227 -0.1576  0.0630 -0.2757
  709loPI   C4A11338   6.619   7.934   7.687  0.1293  0.1538  0.2023
  709loPI   C5A11339   6.635   7.898   8.065  0.2354  0.2318 -0.2046
  709loPI   C6A11340   6.479   7.905   8.536 -0.0716  0.0247 -0.0323
  709loPI   C1B11341   6.408   7.454   6.544 -0.3318  0.1306  0.1185
  709loPI   C2B11342   6.452   7.459   7.065 -0.2272 -0.2239  0.2236
  709loPI   C3B11343   6.362   7.407   7.558  0.0360  0.1001 -0.1348
  709loPI   C4B11344   6.425   7.374   7.973  0.2874  0.2254  0.1707
  710loPI    C111345   7.167   7.636   5.163 -0.1069 -0.0312  0.0182
  710loPI    C211346   7.298   7.438   5.485 -0.0877  0.1678  0.1339
  710loPI    C311347   7.241   7.243   5.140  0.1016 -0.0038  0.1977
  710loPI   PO411348   7.110   7.870   5.333  0.0150  0.1545  0.0330
  710loPI   GL111349   7.047   7.873   5.783  0.0868  0.2480  0.1632
  710loPI   GL211350   6.982   7.498   5.960  0.1677 -0.0586 -0.2766
  710loPI   C1A11351   7.101   8.056   6.098  0.0675  0.0635 -0.0997
  710loPI   C2A11352   7.079   8.080   6.564  0.1450 -0.3732 -0.0492
  710loPI   C3A11353   7.165   8.064   7.007  0.0859 -0.2469 -0.3311
  710loPI   C4A11354   7.042   8.009   7.487  0.5898  0.1871 -0.1527
  710loPI   C5A11355   7.059   8.073   7.911  0.3293  0.1520  0.0036
  710loPI   C6A11356   7.215   8.394   8.171 -0.4295 -0.0198 -0.0426
  710loPI   C1B11357   6.884   7.603   6.424 -0.2141 -0.1414  0.0675
  710loPI   C2B11358   6.951   7.607   6.923 -0.1369  0.4526 -0.1646
  710loPI   C3B11359   6.864   7.524   7.335 -0.0364  0.0696  0.1566
  710loPI   C4B11360   6.859   7.480   7.751  0.0391  0.1754 -0.1114
  711loPI    C111361  15.272   1.437   5.648  0.0813 -0.3701 -0.0929
  711loPI    C211362  15.561   1.431   5.372  0.1136  0.0765 -0.0753
  711loPI    C311363  15.188   1.327   5.273  0.1507  0.1135 -0.2570
  711loPI   PO411364  15.368   1.680   5.756  0.0211  0.4116  0.1907
  711loPI   GL111365  15.451   1.883   6.110  0.4932  0.1636 -0.0755
  711loPI   GL211366  15.765   1.696   6.239  0.3544  0.0568  0.1405
  711loPI   C1A11367  15.430   2.130   6.457  0.2760 -0.2944  0.1306
  711loPI   C2A11368  15.448   2.150   6.901  0.2539 -0.1740 -0.1113
  711loPI   C3A11369  15.501   2.123   7.301  0.1197  0.0509  0.1105
  711loPI   C4A11370  15.524   2.148   7.730 -0.0496  0.0321 -0.3671
  711loPI   C5A11371  15.447   2.110   8.206  0.2830 -0.0094 -0.2699
  711loPI   C6A11372  15.454   1.998   8.689 -0.0656 -0.1923  0.2333
  711loPI   C1B11373  15.680   1.699   6.646 -0.1621 -0.1615  0.1525
  711loPI   C2B11374  15.762   1.737   7.051 -0.0554 -0.0262  0.1158
  711loPI   C3B11375  15.730   1.717   7.478 -0.2280 -0.0782 -0.0476
  711loPI   C4B11376  15.712   1.708   7.901 -0.1840 -0.0278  0.1723
  712loPI    C111377   7.204   3.566   5.079  0.0579 -0.2375  0.0641
  712loPI    C211378   6.817   3.635   5.004  0.0707 -0.0377  0.1752
  712loPI    C311379   7.080   3.619   4.703  0.0050  0.0123  0.1150
  712loPI   PO411380   7.364   3.839   5.353  0.2214  0.4020 -0.0046
  712loPI   GL111381   7.188   3.966   5.693  0.0139  0.2083 -0.0042
  712loPI   GL211382   7.085   4.312   5.921 -0.0484 -0.3245 -0.0997
  712loPI   C1A11383   7.362   3.943   6.121  0.0183  0.1863  0.1077
  712loPI   C2A11384   7.381   4.033   6.536 -0.0750  0.0608  0.0752
  712loPI   C3A11385   7.294   4.041   6.951 -0.0113 -0.2261 -0.2627
  712loPI   C4A11386   7.352   4.024   7.353  0.2669 -0.0340  0.0779
  712loPI   C5A11387   7.450   4.057   7.784  0.0232 -0.1870  0.0446
  712loPI   C6A11388   7.475   3.952   8.325  0.2188 -0.1309  0.4206
  712loPI   C1B11389   7.088   4.413   6.333 -0.0021  0.0260 -0.2072
  712loPI   C2B11390   7.108   4.529   6.709 -0.0331 -0.2934  0.2390
  712loPI   C3B11391   7.051   4.420   7.206  0.0558 -0.1618 -0.1295
  712loPI   C4B11392   7.043   4.483   7.584 -0.1626 -0.0598  0.0056
  713loPI    C111393  10.541   7.207   5.386  0.0997  0.1010  0.0665
  713loPI    C211394  10.507   7.471   5.087 -0.0863 -0.2023 -0.1871
  713loPI    C311395  10.535   7.080   5.007 -0.1899 -0.2930  0.1960
  713loPI   PO411396  10.588   7.390   5.634 -0.2498  0.1143 -0.0162
  713loPI   GL111397  10.655   7.334   6.009 -0.2516  0.1148 -0.0428
  713loPI   GL211398  10.669   7.030   6.137  0.1510  0.1432 -0.0295
  713loPI   C1A11399  10.685   7.594   6.332 -0.0465 -0.0282 -0.0250
  713loPI   C2A11400  10.724   7.619   6.820 -0.4016 -0.1397  0.0485
  713loPI   C3A11401  10.702   7.639   7.308  0.0184  0.0809  0.1549
  713loPI   C4A11402  10.750   7.660   7.742  0.1404  0.1231  0.0505
  713loPI   C5A11403  10.701   7.590   8.158  0.2605 -0.1488  0.0570
  713loPI   C6A11404  10.753   7.581   8.603 -0.0935 -0.0105  0.1167
  713loPI   C1B11405  10.626   7.159   6.590  0.0919 -0.2389 -0.0596
  713loPI   C2B11406  10.589   7.171   7.066  0.0793 -0.1535  0.2556
  713loPI   C3B11407  10.514   7.161   7.471  0.4204 -0.1383 -0.3705
  713loPI   C4B11408  10.557   7.179   7.942  0.0412 -0.0472  0.0308
  714loPI    C111409  16.561  12.448   5.604  0.1304  0.0535 -0.1352
  714loPI    C211410  16.714  12.655   5.296 -0.0432  0.3436 -0.0306
  714loPI    C311411  16.359  12.474   5.260  0.0511  0.1665 -0.0810
  714loPI   PO411412  16.679  12.648   5.818 -0.0504 -0.0241  0.1060
  714loPI   GL111413  16.775  12.681   6.256 -0.1572 -0.1782 -0.0778
  714loPI   GL211414  16.738  12.455   6.383  0.1016  0.0855  0.2705
  714loPI   C1A11415  16.736  12.887   6.701  0.2473  0.0771 -0.0421
  714loPI   C2A11416  16.689  12.844   7.154  0.0127  0.1780  0.2670
  714loPI   C3A11417  16.763  12.865   7.583 -0.1231 -0.0377 -0.1200
  714loPI   C4A11418  16.620  12.838   8.017 -0.0107  0.1969  0.0397
  714loPI   C5A11419  16.702  12.915   8.423 -0.1381 -0.0847 -0.0372
  714loPI   C6A11420  16.492  12.893   8.869  0.2701  0.0062 -0.1073
  714loPI   C1B11421  17.011  12.474   6.618  0.0252  0.3125 -0.4093
  714loPI   C2B11422  17.013  12.511   7.035  0.0842 -0.0363 -0.0481
  714loPI   C3B11423  17.038  12.465   7.509 -0.4543 -0.1920 -0.0942
  714loPI   C4B11424  17.047  12.603   7.950 -0.1947  0.2104  0.0996
  715loPI    C111425   5.667  12.748   5.626  0.0293 -0.1050  0.0752
  715loPI    C211426   5.371  12.613   5.393 -0.0076 -0.2539  0.2064
  715loPI    C311427   5.700  12.769   5.228 -0.0257 -0.3743  0.0542
  715loPI   PO411428   5.573  12.905   5.792  0.0297 -0.1644  0.2857
  715loPI   GL111429   5.748  13.021   6.108 -0.0091  0.1271  0.0306
  715loPI   GL211430   5.402  13.056   6.240  0.0808 -0.0746 -0.1077
  715loPI   C1A11431   5.843  12.924   6.503  0.0696 -0.0602  0.1573
  715loPI   C2A11432   5.742  12.958   6.882 -0.1834 -0.0347  0.0732
  715loPI   C3A11433   5.683  12.810   7.272 -0.2082  0.1467 -0.1710
  715loPI   C4A11434   5.596  12.929   7.775 -0.0568  0.1222  0.2804
  715loPI   C5A11435   5.680  12.763   8.183  0.3440  0.0240 -0.3362
  715loPI   C6A11436   5.580  12.619   8.636  0.2910 -0.0854  0.0394
  715loPI   C1B11437   5.272  12.944   6.577 -0.1066 -0.1118  0.2277
  715loPI   C2B11438   5.204  12.846   6.964  0.3925 -0.0039 -0.0971
  715loPI   C3B11439   5.192  12.768   7.419  0.3083  0.0809  0.0900
  715loPI   C4B11440   5.180  12.686   7.824  0.4365 -0.2499 -0.1721
  716loPI    C111441  13.282   7.470   5.391 -0.1019  0.0109 -0.0725
  716loPI    C211442  13.348   7.817   5.204 -0.2858  0.0120 -0.1371
  716loPI    C311443  13.547   7.489   5.092 -0.0982  0.0993 -0.0638
  716loPI   PO411444  13.358   7.533   5.741  0.1946  0.0873  0.0097
  716loPI   GL111445  13.188   7.491   6.071 -0.0011  0.1272 -0.3309
  716loPI   GL211446  13.430   7.618   6.243 -0.3095 -0.0941 -0.2402
  716loPI   C1A11447  12.997   7.540   6.584 -0.0012 -0.0454 -0.2573
  716loPI   C2A11448  13.062   7.574   7.100 -0.1823  0.0463 -0.2686
  716loPI   C3A11449  13.021   7.644   7.608 -0.0248  0.0555 -0.0925
  716loPI   C4A11450  12.964   7.563   8.022  0.0268 -0.2588 -0.0441
  716loPI   C5A11451  12.909   7.725   8.514  0.1696 -0.1106 -0.0105
  716loPI   C6A11452  12.855   8.087   8.624 -0.0984 -0.0013  0.0896
  716loPI   C1B11453  13.580   7.536   6.586  0.2866  0.1372  0.0054
  716loPI   C2B11454  13.532   7.561   7.072  0.2241  0.0406 -0.2496
  716loPI   C3B11455  13.524   7.620   7.507  0.0558  0.1498 -0.4145
  716loPI   C4B11456  13.402   7.661   7.912  0.3461 -0.0822 -0.1677
  717loPI    C111457  11.355  13.602   5.595 -0.1780 -0.2210  0.2715
  717loPI    C211458  11.178  13.352   5.338 -0.0201  0.0008 -0.0605
  717loPI    C311459  11.550  13.481   5.267 -0.0693  0.2659  0.1485
  717loPI   PO411460  11.279  13.478   5.854 -0.0164  0.1179 -0.1646
  717loPI   GL111461  11.496  13.389   6.168 -0.0394  0.0956 -0.1997
  717loPI   GL211462  11.204  13.101   6.207  0.1503  0.0795 -0.2401
  717loPI   C1A11463  11.689  13.298   6.582 -0.3146 -0.0103  0.0743
  717loPI   C2A11464  11.583  13.179   7.055 -0.0559  0.1050 -0.0076
  717loPI   C3A11465  11.540  13.188   7.513 -0.0493  0.1854 -0.0139
  717loPI   C4A11466  11.497  13.093   7.943 -0.2581 -0.0351 -0.0272
  717loPI   C5A11467  11.582  13.133   8.428 -0.3889 -0.2306  0.0062
  717loPI   C6A11468  11.577  12.847   8.812 -0.1151 -0.0844  0.1627
  717loPI   C1B11469  11.220  13.125   6.682  0.0382 -0.1274  0.4244
  717loPI   C2B11470  11.112  13.071   7.099  0.0133  0.2731 -0.0631
  717loPI   C3B11471  10.961  13.137   7.486 -0.0685  0.1681  0.1622
  717loPI   C4B11472  10.993  13.096   7.925 -0.1426  0.0808 -0.1216
  718loPI    C111473  10.984  12.484   5.591  0.0671 -0.1076  0.0862
  718loPI    C211474  10.736  12.273   5.360 -0.0124  0.0835 -0.0053
  718loPI    C311475  11.128  12.272   5.284 -0.0255  0.0577 -0.0735
  718loPI   PO411476  10.904  12.383   5.826 -0.1276 -0.0739  0.0262
  718loPI   GL111477  10.965  12.178   6.068  0.2746  0.1682 -0.0922
  718loPI   GL211478  11.226  12.104   6.124  0.0623 -0.1678 -0.2065
  718loPI   C1A11479  10.729  12.252   6.459 -0.2226  0.0272  0.1141
  718loPI   C2A11480  10.721  12.137   6.836 -0.0133  0.0223  0.0121
  718loPI   C3A11481  10.669  12.171   7.178  0.3199 -0.1014  0.0002
  718loPI   C4A11482  10.630  12.189   7.583 -0.1776  0.2441 -0.0775
  718loPI   C5A11483  10.633  12.097   7.978 -0.0208  0.3009  0.3601
  718loPI   C6A11484  10.764  12.170   8.415 -0.0641 -0.1004  0.1123
  718loPI   C1B11485  11.281  12.200   6.553 -0.0040 -0.0472 -0.0114
  718loPI   C2B11486  11.187  12.245   6.946  0.1213  0.1311  0.2217
  718loPI   C3B11487  11.100  12.176   7.361  0.0920 -0.0706 -0.3503
  718loPI   C4B11488  11.080  12.198   7.807 -0.0707  0.0752  0.0232
  719loPI    C111489  17.094   5.099   5.505  0.3468 -0.0697  0.3394
  719loPI    C211490  17.233   4.774   5.317  0.1257 -0.0291  0.0999
  719loPI    C311491  17.333   5.139   5.186  0.0393 -0.0005  0.1134
  719loPI   PO411492  17.075   5.018   5.734  0.1914 -0.0348  0.1189
  719loPI   GL111493  17.151   4.734   6.074 -0.0609  0.1748 -0.2313
  719loPI   GL211494  17.117   4.400   6.201 -0.1852 -0.0446 -0.3507
  719loPI   C1A11495  17.260   4.831   6.372 -0.1308  0.0336 -0.1791
  719loPI   C2A11496  17.196   4.940   6.801  0.2037  0.1682 -0.2955
  719loPI   C3A11497  17.175   4.931   7.243 -0.2286  0.1624  0.1366
  719loPI   C4A11498  17.216   4.941   7.678 -0.3780 -0.0212  0.0544
  719loPI   C5A11499  17.277   4.981   8.153  0.0344  0.0590 -0.1824
  719loPI   C6A11500  17.033   4.945   8.505 -0.1732 -0.3025  0.1590
  719loPI   C1B11501  17.053   4.438   6.612  0.1412  0.0627 -0.1844
  719loPI   C2B11502  16.978   4.489   7.059  0.1081  0.0445  0.3010
  719loPI   C3B11503  17.008   4.499   7.561  0.0968 -0.2541  0.2041
  719loPI   C4B11504  17.112   4.537   7.976 -0.2282 -0.1590  0.1876
  720loPI    C111505   7.794   9.244   5.107  0.0837  0.3673  0.1028
  720loPI    C211506   7.919   9.522   4.849 -0.1374  0.1836 -0.2085
  720loPI    C311507   7.582   9.320   4.777 -0.1122  0.0101  0.1417
  720loPI   PO411508   7.857   9.351   5.391 -0.1662 -0.0803 -0.0106
  720loPI   GL111509   7.753   9.161   5.720  0.0497  0.0959 -0.3482
  720loPI   GL211510   7.458   9.110   5.906 -0.1180  0.2448  0.1969
  720loPI   C1A11511   8.025   9.083   6.091  0.0842  0.1054 -0.0244
  720loPI   C2A11512   8.043   9.124   6.570  0.0578 -0.1888  0.0104
  720loPI   C3A11513   7.968   9.014   6.993 -0.0496 -0.0260 -0.0313
  720loPI   C4A11514   7.994   9.124   7.387  0.2349 -0.2346  0.0713
  720loPI   C5A11515   8.008   9.028   7.833 -0.0408  0.4060  0.1200
  720loPI   C6A11516   8.333   9.215   8.231 -0.2619 -0.1378 -0.2563
  720loPI   C1B11517   7.551   8.921   6.289 -0.1034 -0.4318 -0.0985
  720loPI   C2B11518   7.526   8.971   6.781 -0.0968  0.0632 -0.1491
  720loPI   C3B11519   7.520   9.005   7.207  0.0260 -0.1998 -0.1073
  720loPI   C4B11520   7.585   9.033   7.660 -0.1701  0.1472  0.0374
  721loPI    C111521  16.577  16.448   5.548  0.0247  0.2182 -0.0966
  721loPI    C211522  16.361  16.197   5.325  0.1286 -0.1684  0.2258
  721loPI    C311523  16.734  16.290   5.217  0.0921 -0.1557  0.1086
  721loPI   PO411524  16.391  16.398   5.761  0.1505  0.1992 -0.0957
  721loPI   GL111525  16.480  16.229   6.089 -0.2204  0.0906 -0.2709
  721loPI   GL211526  16.653  16.470   6.294 -0.0552  0.3336 -0.1731
  721loPI   C1A11527  16.591  16.081   6.554 -0.0534 -0.2834 -0.1476
  721loPI   C2A11528  16.703  16.017   6.964 -0.0329  0.0046  0.3747
  721loPI   C3A11529  16.613  16.071   7.419  0.0225  0.2810 -0.2369
  721loPI   C4A11530  16.631  16.045   7.820  0.1118  0.1520  0.0818
  721loPI   C5A11531  16.623  16.014   8.309 -0.0427 -0.2623  0.1154
  721loPI   C6A11532  16.554  16.130   8.796  0.0034 -0.0114 -0.0162
  721loPI   C1B11533  16.775  16.524   6.767  0.0355  0.1449 -0.0149
  721loPI   C2B11534  16.880  16.472   7.241 -0.0621 -0.0095  0.3961
  721loPI   C3B11535  16.819  16.489   7.636  0.2953 -0.0517  0.0019
  721loPI   C4B11536  16.794  16.553   8.107 -0.2395 -0.0250 -0.3061
  722loPI    C111537   2.435   7.460   5.256  0.1115 -0.0812  0.0896
  722loPI    C211538   2.284   7.553   4.897 -0.0182  0.0974  0.1887
  722loPI    C311539   2.439   7.189   4.961 -0.1378  0.0112 -0.0015
  722loPI   PO411540   2.220   7.529   5.491 -0.1647 -0.0429  0.0866
  722loPI   GL111541   2.149   7.609   5.889  0.0465 -0.1989  0.1721
  722loPI   GL211542   1.875   7.649   5.957 -0.0438 -0.2612 -0.2423
  722loPI   C1A11543   2.324   7.798   6.271  0.2599  0.0653 -0.0564
  722loPI   C2A11544   2.287   7.861   6.748 -0.0452 -0.1134 -0.1872
  722loPI   C3A11545   2.270   7.850   7.136 -0.1165  0.1308  0.4873
  722loPI   C4A11546   2.259   7.812   7.622  0.1621  0.1372 -0.0387
  722loPI   C5A11547   2.258   7.968   8.062  0.0553  0.0584 -0.1308
  722loPI   C6A11548   2.289   7.955   8.482  0.1007 -0.1091 -0.0461
  722loPI   C1B11549   1.589   7.428   6.275 -0.1065  0.0393 -0.1489
  722loPI   C2B11550   1.538   7.340   6.659  0.2667  0.0202  0.0352
  722loPI   C3B11551   1.603   7.352   7.054  0.5500 -0.1039 -0.3372
  722loPI   C4B11552   1.494   7.374   7.524 -0.0128  0.0487 -0.1290
  723loPI    C111553  13.339   4.213   6.003 -0.0574 -0.1170  0.0087
  723loPI    C211554  13.671   4.025   6.124  0.0683  0.1746  0.1284
  723loPI    C311555  13.403   3.833   5.897  0.3199 -0.0627  0.0267
  723loPI   PO411556  13.215   4.279   6.220  0.2215 -0.2655 -0.0659
  723loPI   GL111557  13.249   4.287   6.654  0.6482 -0.0729  0.1828
  723loPI   GL211558  13.449   4.052   6.766  0.2648  0.4215  0.0729
  723loPI   C1A11559  13.389   4.363   7.155 -0.0692  0.2016  0.1911
  723loPI   C2A11560  13.344   4.448   7.611  0.1131 -0.0166 -0.0901
  723loPI   C3A11561  12.964   4.390   7.771 -0.1362 -0.1287 -0.0298
  723loPI   C4A11562  12.514   4.190   7.852 -0.0671 -0.1415  0.1027
  723loPI   C5A11563  12.339   4.294   8.233  0.0131  0.1689  0.5062
  723loPI   C6A11564  12.173   4.354   8.555  0.2173 -0.0832 -0.0443
  723loPI   C1B11565  13.378   3.825   7.165 -0.1748  0.1548  0.1178
  723loPI   C2B11566  13.096   3.938   7.532  0.0499 -0.0954 -0.1634
  723loPI   C3B11567  12.933   3.867   7.908  0.1594 -0.1849  0.3047
  723loPI   C4B11568  12.750   3.636   8.375  0.1444 -0.0739  0.2461
  724loPI    C111569   7.504  16.340   5.530 -0.0620 -0.0003 -0.0574
  724loPI    C211570   7.761  16.581   5.341 -0.1051  0.0546 -0.0461
  724loPI    C311571   7.669  16.224   5.185 -0.1036  0.0797 -0.1044
  724loPI   PO411572   7.420  16.435   5.764  0.0960  0.0381  0.1967
  724loPI   GL111573   7.681  16.524   6.197  0.0428  0.0467  0.1703
  724loPI   GL211574   7.620  16.221   6.209  0.3492 -0.1851 -0.1274
  724loPI   C1A11575   7.698  16.745   6.610  0.0145  0.0279 -0.0626
  724loPI   C2A11576   7.791  16.917   6.928  0.1631  0.0226  0.0934
  724loPI   C3A11577   7.728  16.841   7.318 -0.1179 -0.1563  0.2722
  724loPI   C4A11578   7.720  16.776   7.695  0.3606 -0.1010  0.0369
  724loPI   C5A11579   7.870  16.713   8.116 -0.2300 -0.0023 -0.0127
  724loPI   C6A11580   7.950  16.405   8.317  0.0515 -0.1093 -0.4279
  724loPI   C1B11581   7.507  16.288   6.649  0.0691  0.2621 -0.0847
  724loPI   C2B11582   7.556  16.390   7.092 -0.0361  0.0179  0.1225
  724loPI   C3B11583   7.591  16.306   7.555  0.2082 -0.1219 -0.1622
  724loPI   C4B11584   7.545  16.350   7.954 -0.1506  0.0474  0.3035
  725loPI    C111585  12.608   8.298   5.566 -0.0857 -0.2007 -0.1223
  725loPI    C211586  12.499   7.935   5.695  0.1607 -0.2375 -0.0120
  725loPI    C311587  12.556   7.999   5.305 -0.1385 -0.2466 -0.0599
  725loPI   PO411588  12.796   8.407   5.702  0.1063 -0.0577 -0.0988
  725loPI   GL111589  12.714   8.500   6.073  0.2746  0.1310  0.0024
  725loPI   GL211590  12.514   8.204   6.103 -0.3389  0.1686  0.3271
  725loPI   C1A11591  12.890   8.396   6.453  0.2223  0.1452  0.2699
  725loPI   C2A11592  12.938   8.404   6.963 -0.1491  0.0530  0.0423
  725loPI   C3A11593  12.899   8.424   7.423 -0.1261  0.3311  0.0646
  725loPI   C4A11594  12.848   8.476   7.869  0.0791  0.1125 -0.2045
  725loPI   C5A11595  12.851   8.482   8.263  0.0718 -0.2587  0.1272
  725loPI   C6A11596  13.200   8.448   8.709 -0.0777  0.1452  0.0116
  725loPI   C1B11597  12.449   8.281   6.491 -0.0616 -0.1453 -0.0720
  725loPI   C2B11598  12.372   8.300   6.966 -0.0342  0.2542 -0.1006
  725loPI   C3B11599  12.377   8.350   7.425 -0.2195 -0.2334 -0.3041
  725loPI   C4B11600  12.374   8.400   7.910 -0.0423  0.2910  0.0117
  726loPI    C111601   4.265  14.594   5.549 -0.0128 -0.0384 -0.0915
  726loPI    C211602   3.965  14.571   5.285 -0.1230  0.2744  0.0013
  726loPI    C311603   4.250  14.847   5.239 -0.0514  0.2210  0.1183
  726loPI   PO411604   4.176  14.573   5.840  0.2813  0.1863 -0.2444
  726loPI   GL111605   4.157  14.309   6.116 -0.1968 -0.1927  0.1176
  726loPI   GL211606   4.009  14.392   6.345  0.1784  0.0517 -0.0301
  726loPI   C1A11607   4.312  14.000   6.417  0.2412 -0.0992  0.2479
  726loPI   C2A11608   4.304  13.965   6.884  0.2410  0.0207 -0.0022
  726loPI   C3A11609   4.368  14.006   7.360 -0.0325  0.2784 -0.1238
  726loPI   C4A11610   4.224  13.971   7.823 -0.2031  0.0387  0.0302
  726loPI   C5A11611   4.179  13.855   8.235  0.1085  0.1026  0.4064
  726loPI   C6A11612   3.792  13.645   8.420  0.0732 -0.2677 -0.0209
  726loPI   C1B11613   3.977  14.418   6.826  0.0093  0.1065  0.1269
  726loPI   C2B11614   3.953  14.352   7.179  0.1482  0.0264 -0.2488
  726loPI   C3B11615   3.901  14.333   7.591 -0.4284  0.1701  0.3836
  726loPI   C4B11616   3.886  14.241   8.061  0.1505 -0.0464 -0.3599
  727loPI    C111617   2.222   1.033   5.549 -0.0774  0.1115 -0.1274
  727loPI    C211618   1.939   0.969   5.274 -0.0823 -0.1206 -0.0710
  727loPI    C311619   2.265   1.181   5.180 -0.1311 -0.1127 -0.2256
  727loPI   PO411620   2.114   1.141   5.739 -0.0004  0.2147 -0.1121
  727loPI   GL111621   1.948   1.144   6.038 -0.3328  0.0468  0.0213
  727loPI   GL211622   1.688   1.071   6.128  0.1256 -0.0356 -0.0192
  727loPI   C1A11623   2.213   1.125   6.462 -0.2007  0.1620  0.1885
  727loPI   C2A11624   2.251   1.126   6.886 -0.4100  0.0252  0.3779
  727loPI   C3A11625   2.204   1.196   7.301  0.0800 -0.1600  0.0267
  727loPI   C4A11626   2.050   1.268   7.704  0.0461 -0.0592  0.0062
  727loPI   C5A11627   1.767   1.505   8.076 -0.0847  0.2803 -0.2255
  727loPI   C6A11628   1.566   1.523   8.480 -0.1356  0.0939 -0.0058
  727loPI   C1B11629   1.733   1.102   6.537  0.3600 -0.0317  0.0727
  727loPI   C2B11630   1.740   1.188   6.920 -0.1955  0.2988  0.3740
  727loPI   C3B11631   1.696   1.111   7.330  0.0081 -0.0150 -0.0547
  727loPI   C4B11632   1.563   1.168   7.674 -0.1833 -0.1656  0.2092
  728loPI    C111633   7.149  15.494   5.773 -0.1215 -0.1325 -0.0995
  728loPI    C211634   6.805  15.691   5.721 -0.0166  0.0926  0.0475
  728loPI    C311635   6.901  15.390   5.476 -0.2651  0.1012 -0.0638
  728loPI   PO411636   7.132  15.472   5.978  0.1158 -0.1405  0.0012
  728loPI   GL111637   6.770  15.493   6.273  0.2431  0.1068 -0.0711
  728loPI   GL211638   6.854  15.787   6.246 -0.1290 -0.0667  0.1894
  728loPI   C1A11639   6.721  15.385   6.638  0.2393 -0.0483  0.0324
  728loPI   C2A11640   6.686  15.282   7.095 -0.0324 -0.0225  0.2870
  728loPI   C3A11641   6.678  15.364   7.550  0.2533 -0.1864  0.0887
  728loPI   C4A11642   6.571  15.398   8.009 -0.0641  0.1100 -0.1833
  728loPI   C5A11643   6.482  15.138   8.408 -0.2702 -0.2226  0.2752
  728loPI   C6A11644   6.538  14.929   8.759  0.0377 -0.0923 -0.0418
  728loPI   C1B11645   6.870  15.898   6.666 -0.0926  0.1884  0.1378
  728loPI   C2B11646   6.898  15.767   7.093 -0.0444  0.3169  0.0277
  728loPI   C3B11647   6.835  15.825   7.434  0.0570  0.2712 -0.4116
  728loPI   C4B11648   6.813  15.857   7.908  0.1461  0.3712  0.0017
  729loPI    C111649   1.843   4.442   5.591  0.0605  0.0376 -0.2728
  729loPI    C211650   1.623   4.475   5.258 -0.0246 -0.4043 -0.2665
  729loPI    C311651   1.880   4.171   5.299  0.1214 -0.2499 -0.0041
  729loPI   PO411652   1.653   4.458   5.796 -0.0925 -0.0315 -0.1075
  729loPI   GL111653   1.480   4.132   6.058  0.1724 -0.0060  0.2225
  729loPI   GL211654   1.262   4.020   6.075 -0.0571 -0.0381 -0.2766
  729loPI   C1A11655   1.655   4.316   6.516  0.1655  0.0636 -0.1316
  729loPI   C2A11656   1.547   4.337   6.980  0.0554  0.1464 -0.0678
  729loPI   C3A11657   1.619   4.302   7.425  0.1825  0.0397 -0.1671
  729loPI   C4A11658   1.655   4.343   7.882 -0.1306 -0.2059 -0.0843
  729loPI   C5A11659   1.766   4.418   8.338  0.1902 -0.0574 -0.0270
  729loPI   C6A11660   1.977   4.607   8.685  0.0370 -0.2192 -0.0754
  729loPI   C1B11661   1.146   4.232   6.473  0.2822 -0.3659 -0.1449
  729loPI   C2B11662   1.063   4.183   6.959 -0.0225 -0.0942 -0.0382
  729loPI   C3B11663   1.121   4.145   7.456 -0.1731 -0.4865 -0.0229
  729loPI   C4B11664   1.129   4.308   7.844  0.1648 -0.1470  0.1538
  730loPI    C111665   1.468   9.949   5.607  0.1937 -0.2229  0.0481
  730loPI    C211666   1.564  10.175   5.291 -0.0530 -0.0890  0.0670
  730loPI    C311667   1.353   9.839   5.240 -0.2100  0.0030  0.1008
  730loPI   PO411668   1.723   9.964   5.758 -0.1635 -0.1604 -0.3163
  730loPI   GL111669   1.723  10.359   6.067 -0.1153 -0.2273 -0.2448
  730loPI   GL211670   1.547  10.553   6.270 -0.1509 -0.0907  0.0208
  730loPI   C1A11671   1.743  10.142   6.515  0.0542  0.0289 -0.0008
  730loPI   C2A11672   1.776  10.127   6.906  0.1699  0.1035 -0.2049
  730loPI   C3A11673   1.699  10.050   7.269 -0.0219  0.2069 -0.0143
  730loPI   C4A11674   1.607  10.001   7.673 -0.1369  0.0009 -0.0057
  730loPI   C5A11675   1.728   9.767   8.012  0.1122 -0.0987  0.1689
  730loPI   C6A11676   1.681   9.740   8.447  0.0237  0.0545  0.1718
  730loPI   C1B11677   1.465  10.612   6.646  0.1341  0.0658  0.1071
  730loPI   C2B11678   1.446  10.487   7.117  0.3338  0.1273 -0.0988
  730loPI   C3B11679   1.318  10.479   7.580  0.0604  0.0821  0.2599
  730loPI   C4B11680   1.291  10.412   8.002 -0.2523 -0.0552  0.0128
  731loPI    C111681  16.197  14.952   5.606  0.0648  0.1891 -0.0770
  731loPI    C211682  15.941  15.136   5.360 -0.0124 -0.0027 -0.1423
  731loPI    C311683  16.110  14.790   5.251 -0.0604 -0.0983  0.0811
  731loPI   PO411684  16.133  15.027   5.947 -0.0368 -0.1397  0.1671
  731loPI   GL111685  16.293  15.019   6.325 -0.1917 -0.0263  0.0085
  731loPI   GL211686  16.433  14.667   6.346 -0.2522  0.1930  0.1303
  731loPI   C1A11687  16.163  15.027   6.702 -0.0225 -0.0867  0.1343
  731loPI   C2A11688  16.221  15.115   7.126 -0.1802  0.0150  0.0829
  731loPI   C3A11689  16.151  15.031   7.499  0.1832  0.3634 -0.2510
  731loPI   C4A11690  16.228  15.043   7.868 -0.1055 -0.0141 -0.0553
  731loPI   C5A11691  16.139  15.148   8.348  0.2714 -0.0339 -0.1620
  731loPI   C6A11692  16.154  14.811   8.603  0.1850  0.1825  0.3094
  731loPI   C1B11693  16.476  14.630   6.812  0.0255 -0.2870  0.0608
  731loPI   C2B11694  16.474  14.697   7.209 -0.3298 -0.1492  0.3004
  731loPI   C3B11695  16.489  14.693   7.639 -0.0693  0.2065 -0.0149
  731loPI   C4B11696  16.416  14.626   8.062  0.2165  0.0882  0.0447
  732loPI    C111697  13.076  13.414   5.732 -0.2163 -0.1673 -0.0639
  732loPI    C211698  12.819  13.707   5.642 -0.0722  0.0073  0.0848
  732loPI    C311699  12.997  13.501   5.349 -0.3332 -0.0752 -0.0196
  732loPI   PO411700  13.000  13.399   5.971 -0.2315  0.0205 -0.0174
  732loPI   GL111701  13.190  13.485   6.356  0.0317  0.1517  0.1430
  732loPI   GL211702  13.522  13.496   6.389 -0.1311  0.2354  0.0683
  732loPI   C1A11703  13.073  13.440   6.762 -0.1884  0.1562  0.2126
  732loPI   C2A11704  13.086  13.448   7.199 -0.0117 -0.0415 -0.1099
  732loPI   C3A11705  12.999  13.338   7.576  0.2871 -0.0146  0.1093
  732loPI   C4A11706  13.075  13.316   7.965  0.1637 -0.3482 -0.0044
  732loPI   C5A11707  12.988  13.412   8.378 -0.0867  0.0383 -0.1362
  732loPI   C6A11708  12.765  13.180   8.625 -0.1257 -0.1486  0.1636
  732loPI   C1B11709  13.549  13.448   6.771  0.0200  0.1903 -0.1008
  732loPI   C2B11710  13.589  13.502   7.183  0.0994 -0.2698  0.0267
  732loPI   C3B11711  13.525  13.435   7.617 -0.0956 -0.1310  0.0715
  732loPI   C4B11712  13.616  13.414   8.110  0.3013 -0.2291  0.1555
  733loPI    C111713   1.003   6.120   5.347  0.1371 -0.4203  0.1548
  733loPI    C211714   0.923   5.890   5.030  0.0339 -0.2478  0.0543
  733loPI    C311715   1.055   6.264   4.978 -0.1454 -0.1608  0.2122
  733loPI   PO411716   0.837   6.063   5.472  0.2065 -0.0815 -0.1386
  733loPI   GL111717   0.915   5.958   5.899  0.1121 -0.2415  0.0799
  733loPI   GL211718   0.988   6.255   5.901 -0.0281  0.1287  0.1550
  733loPI   C1A11719   0.933   6.025   6.342 -0.0476  0.1140 -0.3984
  733loPI   C2A11720   0.929   6.015   6.887 -0.1334  0.0241 -0.2307
  733loPI   C3A11721   0.888   5.982   7.317 -0.1055  0.0370  0.2623
  733loPI   C4A11722   0.861   6.049   7.745  0.1435  0.2603  0.0882
  733loPI   C5A11723   0.807   5.930   8.235 -0.0273  0.2172 -0.1625
  733loPI   C6A11724   0.894   5.656   8.579 -0.0362  0.0032  0.1776
  733loPI   C1B11725   1.042   6.486   6.245 -0.0944  0.1291 -0.0825
  733loPI   C2B11726   1.090   6.445   6.675 -0.2040 -0.0961  0.2192
  733loPI   C3B11727   1.175   6.513   7.120  0.2152  0.0159 -0.3111
  733loPI   C4B11728   1.050   6.456   7.580 -0.4284 -0.1576 -0.3300
  734loPI    C111729   9.972   7.729   5.441 -0.3026 -0.2627  0.1375
  734loPI    C211730  10.001   7.643   5.052  0.0307 -0.0447  0.1103
  734loPI    C311731   9.707   7.881   5.183  0.1449  0.1997 -0.0682
  734loPI   PO411732  10.191   7.769   5.526  0.2469  0.0278 -0.0070
  734loPI   GL111733  10.201   7.632   5.938 -0.0713 -0.0739  0.3498
  734loPI   GL211734  10.341   7.965   6.069  0.1344 -0.2129 -0.1448
  734loPI   C1A11735  10.226   7.476   6.278 -0.0215 -0.0376 -0.0041
  734loPI   C2A11736  10.228   7.549   6.775  0.1028 -0.1542  0.0016
  734loPI   C3A11737  10.197   7.579   7.206 -0.1915  0.1820 -0.1278
  734loPI   C4A11738  10.273   7.651   7.580 -0.0371  0.1703 -0.0405
  734loPI   C5A11739  10.110   7.740   7.982 -0.1490  0.0332  0.4332
  734loPI   C6A11740   9.776   7.723   8.367 -0.0442 -0.0034 -0.2498
  734loPI   C1B11741  10.335   7.981   6.544 -0.0545 -0.2128 -0.1459
  734loPI   C2B11742  10.427   8.001   7.009 -0.0630  0.0266 -0.0644
  734loPI   C3B11743  10.447   8.086   7.402 -0.4055  0.0359 -0.0418
  734loPI   C4B11744  10.397   8.072   7.847 -0.0619  0.0160 -0.1138
  735loPI    C111745   6.695   7.002   5.357 -0.0812  0.1226  0.0485
  735loPI    C211746   6.711   7.152   4.986 -0.1340 -0.2100 -0.0922
  735loPI    C311747   6.357   7.069   5.153 -0.1210  0.1374  0.1187
  735loPI   PO411748   6.934   6.985   5.501 -0.1352  0.1391 -0.0151
  735loPI   GL111749   7.080   6.796   5.876 -0.1429  0.2657  0.2206
  735loPI   GL211750   7.249   7.062   6.123  0.1055 -0.1209  0.0001
  735loPI   C1A11751   7.045   6.653   6.237 -0.0059  0.3035 -0.1260
  735loPI   C2A11752   7.067   6.672   6.650 -0.0126  0.2130  0.0869
  735loPI   C3A11753   6.989   6.724   7.098 -0.0476 -0.1206  0.1156
  735loPI   C4A11754   6.933   6.633   7.578 -0.1183 -0.1307  0.2594
  735loPI   C5A11755   6.792   6.542   7.970 -0.3150  0.0471  0.3883
  735loPI   C6A11756   6.501   6.150   8.099  0.1400  0.0754 -0.0935
  735loPI   C1B11757   7.273   7.177   6.600  0.3419 -0.0356  0.2110
  735loPI   C2B11758   7.221   7.164   7.025  0.1524 -0.0579 -0.2658
  735loPI   C3B11759   7.155   7.131   7.449  0.1384  0.2448 -0.1302
  735loPI   C4B11760   7.105   7.002   7.921  0.1185 -0.0795  0.2527
  736loPI    C111761   7.692  13.455   5.602 -0.5678  0.0409 -0.1613
  736loPI    C211762   7.742  13.840   5.701 -0.1176 -0.0534  0.0036
  736loPI    C311763   7.738  13.730   5.316  0.2521  0.0592 -0.0360
  736loPI   PO411764   7.526  13.392   5.729 -0.0400 -0.1094 -0.3445
  736loPI   GL111765   7.367  13.590   6.056  0.3640 -0.0654 -0.2577
  736loPI   GL211766   7.077  13.694   6.162  0.0174 -0.0435  0.2328
  736loPI   C1A11767   7.504  13.552   6.449  0.0085  0.1393 -0.4953
  736loPI   C2A11768   7.445  13.589   6.895 -0.0525 -0.1922 -0.0597
  736loPI   C3A11769   7.380  13.494   7.298  0.1336  0.1836 -0.0577
  736loPI   C4A11770   7.316  13.517   7.778  0.0178  0.0239  0.0478
  736loPI   C5A11771   7.169  13.637   8.161 -0.2336 -0.0476 -0.3349
  736loPI   C6A11772   7.275  14.017   8.506  0.1561  0.0427  0.2306
  736loPI   C1B11773   7.032  13.501   6.553  0.0817 -0.0583 -0.0103
  736loPI   C2B11774   6.931  13.506   7.030  0.1198  0.3330  0.2258
  736loPI   C3B11775   6.875  13.498   7.463 -0.1220 -0.1138 -0.0579
  736loPI   C4B11776   6.829  13.357   7.870 -0.1899 -0.1752 -0.0264
  737loPI    C111777   6.927   3.226   5.265 -0.0014  0.0381  0.0485
  737loPI    C211778   6.695   2.940   5.108  0.0270  0.0388  0.0050
  737loPI    C311779   7.007   3.080   4.901 -0.0109  0.1302  0.0092
  737loPI   PO411780   6.940   3.122   5.535  0.0999 -0.1811 -0.3393
  737loPI   GL111781   6.745   3.258   5.890 -0.1841 -0.0694 -0.2116
  737loPI   GL211782   6.886   2.937   6.006 -0.1507  0.0827  0.5008
  737loPI   C1A11783   6.638   3.402   6.272  0.1708  0.0684 -0.1838
  737loPI   C2A11784   6.656   3.378   6.667  0.2677  0.4118 -0.0721
  737loPI   C3A11785   6.615   3.538   7.077  0.0020  0.0567  0.0100
  737loPI   C4A11786   6.600   3.622   7.502  0.0387  0.1630 -0.1179
  737loPI   C5A11787   6.722   3.511   7.948 -0.0587 -0.1320  0.2255
  737loPI   C6A11788   6.886   3.486   8.443 -0.0042  0.0391  0.3750
  737loPI   C1B11789   6.964   3.065   6.425  0.1336 -0.1981 -0.1020
  737loPI   C2B11790   6.994   3.109   6.972  0.1480 -0.0259 -0.3027
  737loPI   C3B11791   6.925   3.154   7.431  0.2397 -0.1233  0.0663
  737loPI   C4B11792   6.978   3.109   7.899 -0.0311 -0.1190  0.1840
  738loPI    C111793  12.984   1.415   5.925  0.0777  0.1286 -0.3086
  738loPI    C211794  12.725   1.467   5.624 -0.0565  0.2693 -0.1700
  738loPI    C311795  12.951   1.138   5.638 -0.1756  0.1794 -0.3313
  738loPI   PO411796  12.853   1.402   6.113 -0.1226  0.0663  0.0479
  738loPI   GL111797  12.652   1.625   6.467 -0.0459  0.1198 -0.0169
  738loPI   GL211798  12.358   1.439   6.423 -0.0124  0.2389  0.0186
  738loPI   C1A11799  12.753   1.407   6.765 -0.0938  0.1599  0.0465
  738loPI   C2A11800  12.973   1.087   6.981  0.1433  0.1362  0.0445
  738loPI   C3A11801  12.917   1.022   7.401 -0.2141 -0.0185  0.2059
  738loPI   C4A11802  12.911   0.931   7.844 -0.0395  0.1840  0.0812
  738loPI   C5A11803  12.700   1.152   8.120 -0.0205  0.1487 -0.0787
  738loPI   C6A11804  12.384   0.992   8.128 -0.1161  0.1342  0.1058
  738loPI   C1B11805  12.284   1.601   6.872 -0.1935  0.0624  0.0011
  738loPI   C2B11806  12.063   1.542   7.229 -0.1976  0.0386 -0.0123
  738loPI   C3B11807  12.137   1.335   7.560 -0.0222 -0.0399 -0.1335
  738loPI   C4B11808  12.418   0.934   7.594  0.0678 -0.0130  0.1462
  739loPI    C111809   8.334  16.003   5.687 -0.1586  0.1357  0.0967
  739loPI    C211810   8.085  16.142   5.407 -0.0664 -0.0844 -0.0981
  739loPI    C311811   8.479  16.136   5.339 -0.0539 -0.2575 -0.0157
  739loPI   PO411812   8.205  15.761   5.749  0.3731  0.0805  0.0037
  739loPI   GL111813   8.125  15.645   6.034 -0.2214  0.0522  0.1850
  739loPI   GL211814   8.265  15.521   6.244 -0.0224  0.0048  0.2045
  739loPI   C1A11815   7.916  15.850   6.484  0.2820  0.0498  0.4072
  739loPI   C2A11816   7.804  15.976   6.874  0.1144  0.3711 -0.0661
  739loPI   C3A11817   7.833  15.942   7.372 -0.2095  0.3379  0.3191
  739loPI   C4A11818   7.832  15.866   7.847  0.2755  0.0653 -0.1741
  739loPI   C5A11819   7.812  15.917   8.276  0.1331 -0.1023 -0.1565
  739loPI   C6A11820   7.724  15.827   8.727  0.1734  0.2216  0.1715
  739loPI   C1B11821   8.167  15.430   6.599  0.0749  0.0882  0.0448
  739loPI   C2B11822   8.110  15.595   6.948 -0.0811  0.0451  0.0129
  739loPI   C3B11823   8.124  15.500   7.327 -0.1403 -0.2753 -0.0333
  739loPI   C4B11824   8.105  15.418   7.767  0.1098  0.0079 -0.1631
  740loPI    C111825  16.253  12.990   5.923  0.1760 -0.0806 -0.0699
  740loPI    C211826  16.206  13.225   5.602 -0.0560 -0.0629 -0.0245
  740loPI    C311827  16.258  12.831   5.556 -0.0353 -0.0530 -0.0858
  740loPI   PO411828  16.463  13.027   6.054 -0.4054 -0.0042 -0.0682
  740loPI   GL111829  16.383  13.144   6.516  0.0966 -0.0078  0.1140
  740loPI   GL211830  16.039  13.216   6.525 -0.0185  0.1215  0.0371
  740loPI   C1A11831  16.309  13.287   6.942 -0.0198  0.0003 -0.3383
  740loPI   C2A11832  16.465  13.295   7.332  0.0637  0.0539 -0.3142
  740loPI   C3A11833  16.412  13.235   7.730  0.1377 -0.0789 -0.1569
  740loPI   C4A11834  16.299  13.251   8.169  0.0459  0.2835  0.2994
  740loPI   C5A11835  16.163  13.017   8.515  0.1266  0.1091  0.2726
  740loPI   C6A11836  16.027  12.711   8.843  0.4519  0.0813  0.0654
  740loPI   C1B11837  15.841  13.238   6.894 -0.1453 -0.0515 -0.2747
  740loPI   C2B11838  15.946  13.301   7.316 -0.0050  0.2520  0.1054
  740loPI   C3B11839  15.901  13.214   7.832  0.0104 -0.1986  0.1935
  740loPI   C4B11840  15.790  13.399   8.264  0.0456  0.0167 -0.2494
  741loPI    C111841  12.936  10.163   5.459  0.0260  0.2080 -0.1351
  741loPI    C211842  12.779   9.837   5.288 -0.3077  0.3231 -0.0565
  741loPI    C311843  12.907  10.140   5.061 -0.1212  0.1950 -0.1244
  741loPI   PO411844  12.969   9.980   5.798 -0.0031  0.2574 -0.1441
  741loPI   GL111845  13.053   9.950   6.176  0.1516  0.0895 -0.5253
  741loPI   GL211846  13.111   9.680   6.365  0.3591  0.0677  0.1803
  741loPI   C1A11847  12.905  10.201   6.485  0.0618  0.0232 -0.1728
  741loPI   C2A11848  12.771  10.195   6.874 -0.2636  0.1494  0.0968
  741loPI   C3A11849  12.683  10.188   7.317  0.0818 -0.1598  0.0982
  741loPI   C4A11850  12.629  10.194   7.770  0.0225 -0.2709 -0.0707
  741loPI   C5A11851  12.651  10.142   8.196 -0.4535  0.0250  0.1720
  741loPI   C6A11852  12.872  10.314   8.655 -0.1553  0.0523  0.0275
  741loPI   C1B11853  12.981   9.754   6.685 -0.2560 -0.1775 -0.0927
  741loPI   C2B11854  12.968   9.724   7.127 -0.0178  0.0057 -0.2609
  741loPI   C3B11855  12.888   9.762   7.499  0.0313 -0.0666  0.0697
  741loPI   C4B11856  12.970   9.841   7.951 -0.0653 -0.2158 -0.2043
  742loPI    C111857  17.235   1.077   5.316  0.1040 -0.1956  0.0673
  742loPI    C211858  17.476   1.198   5.020 -0.2521  0.0812 -0.1179
  742loPI    C311859  17.354   0.818   5.035  0.1522 -0.0512 -0.0469
  742loPI   PO411860  17.387   1.145   5.523  0.2087 -0.0282  0.1985
  742loPI   GL111861  17.430   1.374   5.812  0.0682 -0.0553  0.0957
  742loPI   GL211862  17.295   1.651   5.943  0.3030 -0.4250 -0.0652
  742loPI   C1A11863  17.603   1.425   6.261 -0.1231  0.1453 -0.1452
  742loPI   C2A11864  17.613   1.434   6.622  0.1706  0.1190  0.0058
  742loPI   C3A11865  17.602   1.364   7.007  0.2267 -0.0890 -0.1959
  742loPI   C4A11866  17.562   1.468   7.502  0.1355  0.2963 -0.1874
  742loPI   C5A11867  17.539   1.572   7.948  0.0315  0.1833 -0.3209
  742loPI   C6A11868  17.383   1.920   8.220  0.0683 -0.3103  0.1562
  742loPI   C1B11869  17.364   1.844   6.396 -0.2896 -0.0438 -0.0187
  742loPI   C2B11870  17.335   1.882   6.764  0.0601 -0.3258  0.0058
  742loPI   C3B11871  17.331   1.848   7.212  0.0557 -0.3300  0.0424
  742loPI   C4B11872  17.229   1.877   7.630  0.2404  0.1031 -0.2963
  743loPI    C111873   0.622   2.115   5.448 -0.2735 -0.1024  0.0295
  743loPI    C211874   0.906   2.168   5.171 -0.1267 -0.1151  0.1762
  743loPI    C311875   0.666   1.848   5.154 -0.1331 -0.1041  0.0515
  743loPI   PO411876   0.728   2.200   5.702 -0.0485  0.2339 -0.1346
  743loPI   GL111877   0.876   2.012   6.133 -0.0898  0.0490 -0.0981
  743loPI   GL211878   1.129   1.910   6.181  0.0604  0.0486  0.0952
  743loPI   C1A11879   0.851   2.307   6.384 -0.0329 -0.1055 -0.3281
  743loPI   C2A11880   0.818   2.360   6.780 -0.1573 -0.0116  0.1430
  743loPI   C3A11881   0.858   2.421   7.187  0.0260  0.1908 -0.1983
  743loPI   C4A11882   0.823   2.477   7.694 -0.2093  0.0519  0.1313
  743loPI   C5A11883   0.892   2.562   8.092 -0.0712 -0.0466  0.2124
  743loPI   C6A11884   1.125   2.472   8.507 -0.0189 -0.3143  0.1736
  743loPI   C1B11885   1.180   1.984   6.584  0.2077  0.1052 -0.2138
  743loPI   C2B11886   1.138   2.004   7.042  0.0362 -0.2983 -0.2443
  743loPI   C3B11887   1.059   1.990   7.467  0.3738 -0.1004  0.0553
  743loPI   C4B11888   1.101   2.026   7.849 -0.0704 -0.0890 -0.2302
  744loPI    C111889   7.054  12.068   5.551 -0.0279  0.0393  0.0410
  744loPI    C211890   7.349  12.158   5.296  0.0211 -0.0689  0.0592
  744loPI    C311891   7.105  11.850   5.219 -0.0329 -0.0333  0.0878
  744loPI   PO411892   7.171  11.968   5.783 -0.1561  0.0434  0.0012
  744loPI   GL111893   7.250  11.693   6.079  0.0759 -0.0024  0.6413
  744loPI   GL211894   7.518  11.698   6.011 -0.0773 -0.0756  0.1073
  744loPI   C1A11895   7.120  11.592   6.460  0.0836 -0.1879 -0.0984
  744loPI   C2A11896   7.075  11.577   6.868  0.1226 -0.2494 -0.0917
  744loPI   C3A11897   7.176  11.599   7.301 -0.1799 -0.0072 -0.1630
  744loPI   C4A11898   7.100  11.708   7.757 -0.1118  0.2884 -0.0957
  744loPI   C5A11899   6.838  11.581   8.082  0.0506  0.0500  0.0500
  744loPI   C6A11900   6.482  11.316   7.982 -0.0087  0.2371 -0.0085
  744loPI   C1B11901   7.640  11.839   6.422  0.1745  0.3196 -0.1236
  744loPI   C2B11902   7.553  11.803   6.805 -0.1700  0.0689  0.2197
  744loPI   C3B11903   7.642  11.734   7.201  0.1851 -0.0468 -0.4516
  744loPI   C4B11904   7.564  11.749   7.622  0.1662 -0.1274 -0.0873
  745loPI    C111905   0.829   4.070   5.552  0.0873 -0.0188  0.0812
  745loPI    C211906   1.009   3.751   5.392 -0.0138  0.0530 -0.1802
  745loPI    C311907   0.906   4.060   5.160 -0.1830  0.1503  0.0215
  745loPI   PO411908   0.894   4.059   5.796  0.0394 -0.0311  0.1077
  745loPI   GL111909   0.790   4.056   6.215 -0.1439 -0.0696  0.2544
  745loPI   GL211910   0.559   3.863   6.222  0.2497  0.2132 -0.3394
  745loPI   C1A11911   0.618   4.153   6.634  0.0750 -0.1092 -0.1211
  745loPI   C2A11912   0.578   4.107   6.989 -0.0797  0.1281 -0.0368
  745loPI   C3A11913   0.623   4.209   7.490  0.0277 -0.0337  0.1307
  745loPI   C4A11914   0.641   4.192   7.984  0.1645  0.1583  0.4439
  745loPI   C5A11915   0.461   3.838   8.327 -0.1275 -0.0241 -0.2287
  745loPI   C6A11916   0.486   3.386   8.452 -0.1181  0.1612  0.1378
  745loPI   C1B11917   0.433   3.686   6.573  0.2837  0.1352 -0.0452
  745loPI   C2B11918   0.310   3.645   6.963 -0.2699 -0.1425  0.1104
  745loPI   C3B11919   0.341   3.688   7.443 -0.0262  0.2333  0.0381
  745loPI   C4B11920   0.389   3.761   7.843  0.1926  0.2489 -0.3032
  746loPI    C111921  11.816   2.233   5.881  0.1406  0.1536  0.0217
  746loPI    C211922  11.800   1.912   5.643  0.0553  0.1560  0.0241
  746loPI    C311923  11.728   2.276   5.493 -0.1764  0.1388  0.0898
  746loPI   PO411924  11.652   2.106   6.155  0.2791  0.3560 -0.0438
  746loPI   GL111925  11.814   2.023   6.540  0.4109  0.0863 -0.2420
  746loPI   GL211926  11.808   1.606   6.564 -0.0753  0.1262  0.1808
  746loPI   C1A11927  11.983   2.035   6.875 -0.1904 -0.0500  0.0034
  746loPI   C2A11928  12.300   1.991   7.152 -0.0033  0.0667  0.1728
  746loPI   C3A11929  12.294   1.870   7.561  0.1588 -0.0104 -0.0098
  746loPI   C4A11930  12.346   2.028   8.059 -0.1423  0.0216  0.2412
  746loPI   C5A11931  12.564   2.241   8.339 -0.0256  0.0358  0.2988
  746loPI   C6A11932  12.932   2.347   8.564  0.1650  0.0372 -0.2725
  746loPI   C1B11933  11.695   1.320   6.953 -0.0484  0.1547 -0.1634
  746loPI   C2B11934  11.651   1.314   7.419 -0.1954  0.0791  0.0846
  746loPI   C3B11935  11.504   1.289   7.782  0.0721 -0.0233 -0.0399
  746loPI   C4B11936  11.476   1.169   8.180 -0.0628  0.1115  0.1453
  747loPI    C111937  11.741  13.907   5.363 -0.0824 -0.0688  0.2926
  747loPI    C211938  11.712  14.290   5.250  0.1800 -0.0785  0.1858
  747loPI    C311939  11.732  14.001   4.974 -0.1504 -0.1823  0.2661
  747loPI   PO411940  11.749  13.935   5.591  0.0516 -0.1205  0.0524
  747loPI   GL111941  11.664  14.113   5.918  0.1225 -0.1979  0.0985
  747loPI   GL211942  11.385  13.943   6.056  0.0496  0.0108 -0.2679
  747loPI   C1A11943  11.563  14.291   6.324 -0.1195  0.1031 -0.2860
  747loPI   C2A11944  11.546  14.172   6.738  0.0193 -0.2182 -0.2321
  747loPI   C3A11945  11.503  14.058   7.194  0.1069  0.2597 -0.2011
  747loPI   C4A11946  11.397  14.105   7.647 -0.1267  0.1198 -0.0410
  747loPI   C5A11947  11.385  14.023   8.104  0.0114 -0.0914 -0.0761
  747loPI   C6A11948  11.569  13.873   8.533 -0.3211  0.1812 -0.1100
  747loPI   C1B11949  11.368  13.766   6.492 -0.0523 -0.0342  0.0069
  747loPI   C2B11950  11.284  13.573   6.912  0.1738  0.2416  0.1958
  747loPI   C3B11951  11.234  13.582   7.340 -0.0176  0.2181  0.0385
  747loPI   C4B11952  11.191  13.551   7.753 -0.0908 -0.4108 -0.2016
  748loPI    C111953  16.402   6.537   5.279  0.3366 -0.1392 -0.0474
  748loPI    C211954  16.523   6.860   5.076 -0.2747  0.1574  0.0358
  748loPI    C311955  16.443   6.520   4.881 -0.1718  0.2243 -0.1252
  748loPI   PO411956  16.501   6.511   5.605  0.0023 -0.2328 -0.1909
  748loPI   GL111957  16.560   6.662   5.877  0.2213 -0.1877 -0.0244
  748loPI   GL211958  16.640   6.904   6.030 -0.1711 -0.0583  0.1103
  748loPI   C1A11959  16.502   6.537   6.308 -0.2196  0.0436  0.2572
  748loPI   C2A11960  16.494   6.621   6.756 -0.0298  0.0984  0.2666
  748loPI   C3A11961  16.504   6.656   7.137  0.1395  0.1000 -0.1024
  748loPI   C4A11962  16.437   6.698   7.545  0.1264  0.0385  0.0303
  748loPI   C5A11963  16.449   6.632   7.959  0.3026  0.0270 -0.1154
  748loPI   C6A11964  16.685   6.203   8.155  0.0975 -0.0548  0.0855
  748loPI   C1B11965  16.693   7.052   6.414  0.1137 -0.3456 -0.1497
  748loPI   C2B11966  16.742   7.092   6.826  0.1474 -0.0569  0.0491
  748loPI   C3B11967  16.668   7.075   7.258  0.1949  0.0891 -0.3488
  748loPI   C4B11968  16.601   7.127   7.722  0.0748 -0.1088 -0.0060
  749loPI    C111969  11.300  10.135   5.313  0.1889 -0.1229 -0.0087
  749loPI    C211970  11.476  10.326   5.008 -0.1940 -0.0868 -0.2133
  749loPI    C311971  11.102  10.420   5.114 -0.1523 -0.2714  0.1116
  749loPI   PO411972  11.467  10.128   5.519  0.2508  0.3580 -0.0830
  749loPI   GL111973  11.341  10.176   5.941  0.2019  0.4451  0.1678
  749loPI   GL211974  11.286  10.505   6.030  0.2874  0.0985 -0.1279
  749loPI   C1A11975  11.173   9.923   6.235  0.2419  0.1346 -0.1474
  749loPI   C2A11976  11.199   9.947   6.692  0.1592  0.0564 -0.0189
  749loPI   C3A11977  11.171  10.012   7.071 -0.0938 -0.0476 -0.0032
  749loPI   C4A11978  11.111   9.988   7.502  0.2223  0.2429 -0.2011
  749loPI   C5A11979  11.079  10.015   7.915  0.0379  0.0582  0.4272
  749loPI   C6A11980  11.023  10.201   8.209 -0.2286  0.2913 -0.1592
  749loPI   C1B11981  11.366  10.473   6.480  0.0237 -0.0579 -0.0222
  749loPI   C2B11982  11.343  10.440   6.942 -0.0829 -0.2380  0.0739
  749loPI   C3B11983  11.354  10.450   7.390  0.1933 -0.3186  0.2825
  749loPI   C4B11984  11.330  10.475   7.789 -0.1399  0.1505 -0.2578
  750loPI    C111985   1.527   5.001   5.270  0.1457 -0.1743 -0.0414
  750loPI    C211986   1.447   4.787   4.941 -0.0025 -0.1538 -0.0191
  750loPI    C311987   1.420   5.186   4.932 -0.0512 -0.1557  0.0298
  750loPI   PO411988   1.372   4.892   5.506 -0.1459  0.1432  0.1120
  750loPI   GL111989   1.352   4.958   5.979 -0.2602  0.1008 -0.1508
  750loPI   GL211990   1.508   5.258   5.868 -0.1026  0.0432  0.2104
  750loPI   C1A11991   1.332   4.787   6.417  0.0293 -0.1126 -0.1424
  750loPI   C2A11992   1.190   4.616   6.775 -0.0334  0.0455  0.0614
  750loPI   C3A11993   1.188   4.603   7.219  0.1620 -0.2854 -0.0888
  750loPI   C4A11994   1.272   4.703   7.565 -0.2942 -0.1080 -0.0606
  750loPI   C5A11995   1.417   4.849   8.018  0.0137 -0.0234 -0.3383
  750loPI   C6A11996   1.231   4.692   8.362  0.0258 -0.1658 -0.1577
  750loPI   C1B11997   1.513   5.262   6.317  0.0586  0.6354  0.0088
  750loPI   C2B11998   1.421   5.186   6.686  0.4956 -0.1297 -0.2988
  750loPI   C3B11999   1.500   5.125   7.121 -0.1335  0.0439  0.1272
  750loPI   C4B12000   1.478   5.196   7.540 -0.1735  0.2595 -0.0287
  751loPI    C112001   8.749   7.704   5.259  0.1456 -0.0277 -0.0270
  751loPI    C212002   8.471   7.957   5.396 -0.0858 -0.2994  0.0133
  751loPI    C312003   8.512   7.898   5.002  0.3043  0.1712 -0.0261
  751loPI   PO412004   8.848   7.514   5.553  0.1515  0.2734 -0.3561
  751loPI   GL112005   8.963   7.675   5.839  0.3989 -0.0823 -0.1302
  751loPI   GL212006   9.204   7.400   5.929 -0.2112 -0.1369  0.1868
  751loPI   C1A12007   8.998   7.822   6.359 -0.0476  0.0701 -0.2249
  751loPI   C2A12008   9.041   7.819   6.831  0.1501 -0.0308 -0.0682
  751loPI   C3A12009   8.998   7.931   7.184 -0.1164  0.3950  0.2090
  751loPI   C4A12010   8.857   7.893   7.568  0.0919  0.0119  0.0164
  751loPI   C5A12011   8.912   7.702   7.947 -0.0486  0.2155 -0.1986
  751loPI   C6A12012   9.042   7.427   8.291  0.1279  0.0464  0.0719
  751loPI   C1B12013   9.295   7.388   6.374 -0.0913 -0.1213 -0.1701
  751loPI   C2B12014   9.231   7.353   6.798  0.1600  0.2532 -0.1463
  751loPI   C3B12015   9.218   7.428   7.273  0.1628 -0.0813  0.3075
  751loPI   C4B12016   9.202   7.442   7.697 -0.1033 -0.2888 -0.1646
  752loPI    C112017   8.754  17.611   5.621  0.0554 -0.0093  0.0878
  752loPI    C212018   8.633  17.302   5.397  0.2132 -0.0270  0.0264
  752loPI    C312019   8.760  17.639   5.222  0.1541  0.0291  0.0917
  752loPI   PO412020   8.631  17.510   5.849 -0.3445 -0.5657 -0.0866
  752loPI   GL112021   8.559  17.282   6.193  0.0664 -0.1468 -0.2297
  752loPI   GL212022   8.609  17.021   6.347 -0.0189  0.0218  0.0582
  752loPI   C1A12023   8.458  17.415   6.630 -0.1074 -0.0608  0.1935
  752loPI   C2A12024   8.430  17.299   7.038  0.1224 -0.0258  0.2231
  752loPI   C3A12025   8.497  17.329   7.385 -0.1560 -0.0437 -0.2517
  752loPI   C4A12026   8.520  17.313   7.866 -0.0071  0.0587  0.3813
  752loPI   C5A12027   8.457  17.133   8.162  0.1417  0.1826 -0.3500
  752loPI   C6A12028   8.232  16.960   8.504 -0.1674  0.0572 -0.1111
  752loPI   C1B12029   8.794  16.935   6.642  0.0534  0.0333  0.1184
  752loPI   C2B12030   8.753  16.869   7.064 -0.0923  0.1390  0.0403
  752loPI   C3B12031   8.728  16.945   7.512  0.0021 -0.2018 -0.0160
  752loPI   C4B12032   8.787  16.848   7.944 -0.4091  0.2254  0.0342
  753loPI    C112033   3.079   1.621   5.391  0.1761 -0.0542  0.2672
  753loPI    C212034   2.836   1.383   5.180  0.1309  0.2101  0.0146
  753loPI    C312035   3.120   1.596   4.994  0.2529  0.2587  0.2524
  753loPI   PO412036   3.075   1.459   5.632 -0.3505 -0.1365  0.3828
  753loPI   GL112037   2.903   1.360   5.974 -0.0508  0.0473  0.0589
  753loPI   GL212038   3.076   1.149   6.084 -0.0756 -0.0649 -0.1616
  753loPI   C1A12039   3.019   1.683   6.258 -0.0073 -0.1115 -0.0912
  753loPI   C2A12040   3.015   1.726   6.701  0.0942 -0.0225  0.1006
  753loPI   C3A12041   3.034   1.700   7.128  0.0519 -0.1414 -0.2595
  753loPI   C4A12042   3.113   1.526   7.549 -0.0744 -0.2581 -0.0509
  753loPI   C5A12043   3.000   1.613   7.933  0.0961  0.0034 -0.2172
  753loPI   C6A12044   3.240   1.669   8.193 -0.0696  0.1767 -0.2978
  753loPI   C1B12045   3.305   1.224   6.551  0.1523  0.1134  0.0772
  753loPI   C2B12046   3.333   1.289   6.973  0.1179 -0.2120 -0.0944
  753loPI   C3B12047   3.383   1.151   7.346 -0.2658  0.0333  0.2086
  753loPI   C4B12048   3.309   1.231   7.852 -0.2607  0.1823  0.1042
  754loPI    C112049  14.946  17.537   5.573 -0.1792 -0.2373 -0.0376
  754loPI    C212050  15.334  17.539   5.475 -0.2009 -0.0598 -0.1243
  754loPI    C312051  15.073  17.329   5.256 -0.1781 -0.0499 -0.1611
  754loPI   PO412052  14.949  17.473   5.841 -0.0707 -0.3794  0.0974
  754loPI   GL112053  15.319  17.443   6.162 -0.3305 -0.0638  0.0519
  754loPI   GL212054  15.363  17.786   6.249  0.0159 -0.0040 -0.0193
  754loPI   C1A12055  15.195  17.272   6.426  0.0409 -0.1141  0.1512
  754loPI   C2A12056  15.136  17.198   6.895  0.0373  0.0353 -0.1593
  754loPI   C3A12057  15.104  17.235   7.333  0.1529  0.3949  0.1086
  754loPI   C4A12058  15.196  17.236   7.784 -0.0510 -0.1257  0.0437
  754loPI   C5A12059  15.185  17.152   8.245  0.0594 -0.0272 -0.3251
  754loPI   C6A12060  15.199  17.278   8.706  0.2629 -0.2906 -0.1822
  754loPI   C1B12061  15.389  17.715   6.653  0.0935 -0.2552  0.0583
  754loPI   C2B12062  15.319  17.649   7.095  0.1301 -0.0913  0.1460
  754loPI   C3B12063  15.409  17.592   7.511  0.0231  0.0824 -0.0768
  754loPI   C4B12064  15.299  17.751   7.837  0.1222  0.0546 -0.1081
  755loPI    C112065   8.447   5.730   5.364  0.0850 -0.3274 -0.0073
  755loPI    C212066   8.451   5.897   5.000 -0.1346 -0.2007  0.0460
  755loPI    C312067   8.782   5.726   5.146  0.0449  0.0305 -0.0830
  755loPI   PO412068   8.194   5.858   5.485  0.0201  0.0654  0.1739
  755loPI   GL112069   7.985   5.881   5.809  0.1167 -0.0100 -0.2353
  755loPI   GL212070   7.703   5.782   5.908 -0.3109 -0.0802 -0.1812
  755loPI   C1A12071   8.148   5.836   6.267 -0.0584  0.1292  0.2315
  755loPI   C2A12072   8.232   5.848   6.720 -0.1283 -0.1888 -0.0019
  755loPI   C3A12073   8.050   5.923   7.194 -0.2503  0.1792  0.0488
  755loPI   C4A12074   8.188   5.889   7.646  0.1297  0.0265 -0.4443
  755loPI   C5A12075   8.381   5.631   7.954  0.1144  0.2147  0.0997
  755loPI   C6A12076   8.511   5.462   8.248  0.0931 -0.0526 -0.3365
  755loPI   C1B12077   7.688   5.912   6.381  0.1926 -0.0756 -0.3280
  755loPI   C2B12078   7.705   5.886   6.785 -0.1128  0.0635  0.0485
  755loPI   C3B12079   7.573   5.952   7.152  0.3223  0.0241 -0.0260
  755loPI   C4B12080   7.604   5.832   7.539  0.0916 -0.0648 -0.1645
  756loPI    C112081  14.659   7.338   5.545 -0.1146 -0.0945  0.0004
  756loPI    C212082  14.862   7.012   5.433 -0.0128 -0.0764  0.1305
  756loPI    C312083  14.864   7.338   5.202 -0.2130 -0.2072 -0.0594
  756loPI   PO412084  14.661   7.417   5.783 -0.2071 -0.0445  0.0477
  756loPI   GL112085  14.471   7.442   6.136 -0.4418  0.0687 -0.2257
  756loPI   GL212086  14.587   7.687   6.360 -0.0446  0.0074 -0.0439
  756loPI   C1A12087  14.383   7.237   6.569  0.2346  0.2678 -0.1454
  756loPI   C2A12088  14.294   7.274   6.867  0.2170 -0.2647 -0.4238
  756loPI   C3A12089  14.311   7.292   7.280  0.1083  0.1070 -0.3135
  756loPI   C4A12090  14.369   7.314   7.751  0.5375  0.0243 -0.1613
  756loPI   C5A12091  14.289   7.274   8.165 -0.3244  0.1846  0.2519
  756loPI   C6A12092  14.326   7.522   8.516 -0.4094  0.0334  0.2370
  756loPI   C1B12093  14.480   7.737   6.790 -0.0661  0.1820  0.1714
  756loPI   C2B12094  14.496   7.755   7.240  0.1347 -0.2786  0.1838
  756loPI   C3B12095  14.498   7.782   7.640 -0.3784 -0.0808  0.0805
  756loPI   C4B12096  14.554   7.797   8.067  0.3248  0.1009 -0.0364
  757loPI    C112097  14.271   9.692   5.658  0.1570 -0.1535 -0.0523
  757loPI    C212098  14.409   9.643   5.285  0.0662  0.2623 -0.1461
  757loPI    C312099  14.280  10.002   5.405 -0.0067  0.1078  0.2551
  757loPI   PO412100  14.441   9.528   5.777 -0.0125  0.0966  0.1899
  757loPI   GL112101  14.557   9.382   6.134 -0.1689 -0.1581 -0.1602
  757loPI   GL212102  14.831   9.327   6.255  0.3091  0.0556 -0.1071
  757loPI   C1A12103  14.423   9.410   6.546  0.1927  0.1172  0.0247
  757loPI   C2A12104  14.343   9.499   6.962 -0.0410 -0.0595 -0.1054
  757loPI   C3A12105  14.264   9.469   7.499  0.0877 -0.0477  0.0583
  757loPI   C4A12106  14.256   9.489   7.875  0.3194  0.2180 -0.1082
  757loPI   C5A12107  14.275   9.471   8.305  0.1185 -0.0299 -0.0565
  757loPI   C6A12108  14.540   9.604   8.566 -0.0617 -0.0268 -0.1836
  757loPI   C1B12109  14.912   9.425   6.720  0.1009 -0.1512 -0.1605
  757loPI   C2B12110  14.865   9.492   7.202  0.1423 -0.0863 -0.1313
  757loPI   C3B12111  14.719   9.559   7.592 -0.0864  0.0305  0.1764
  757loPI   C4B12112  14.759   9.589   8.024 -0.1488  0.0534 -0.0171
  758loPI    C112113   0.479  14.044   5.511  0.1374 -0.0092  0.1316
  758loPI    C212114   0.758  13.835   5.315  0.0983 -0.1665  0.2416
  758loPI    C312115   0.514  14.081   5.114  0.4112  0.0854  0.1628
  758loPI   PO412116   0.485  13.914   5.804 -0.3388  0.1837  0.4155
  758loPI   GL112117   0.663  14.094   6.208 -0.0116  0.1183  0.2376
  758loPI   GL212118   0.537  14.409   6.303  0.6122  0.0897  0.1199
  758loPI   C1A12119   0.920  14.073   6.587 -0.0413 -0.0765 -0.2596
  758loPI   C2A12120   0.908  14.013   7.001 -0.4483 -0.1615 -0.1136
  758loPI   C3A12121   0.923  14.060   7.492  0.0000  0.0049 -0.1002
  758loPI   C4A12122   0.875  14.018   7.875 -0.2430 -0.0113  0.1732
  758loPI   C5A12123   0.955  14.009   8.280 -0.3339  0.0389 -0.0407
  758loPI   C6A12124   1.080  13.922   8.797  0.0025 -0.1009  0.0172
  758loPI   C1B12125   0.589  14.470   6.811 -0.2227 -0.2040 -0.0676
  758loPI   C2B12126   0.578  14.465   7.245 -0.2181  0.1637  0.1167
  758loPI   C3B12127   0.514  14.390   7.686 -0.1181 -0.0909  0.1700
  758loPI   C4B12128   0.625  14.442   8.147  0.2633 -0.3073  0.2362
  759loPI    C112129  12.293  13.164   5.750  0.1583 -0.2565 -0.1148
  759loPI    C212130  12.648  13.097   5.923  0.0849  0.2393  0.2475
  759loPI    C312131  12.631  13.229   5.546  0.2682 -0.1628  0.0933
  759loPI   PO412132  12.171  13.152   5.985 -0.1711  0.1579 -0.1237
  759loPI   GL112133  12.244  13.221   6.462  0.0368  0.0660  0.0354
  759loPI   GL212134  12.564  13.323   6.494  0.0937  0.0086  0.1828
  759loPI   C1A12135  12.063  13.203   6.934 -0.0242 -0.1507  0.1055
  759loPI   C2A12136  12.061  13.163   7.334 -0.1460  0.1488  0.1802
  759loPI   C3A12137  12.005  13.295   7.711 -0.1237  0.0006 -0.2157
  759loPI   C4A12138  11.985  13.171   8.142  0.2862 -0.1047  0.0205
  759loPI   C5A12139  12.006  12.856   8.418 -0.0475 -0.2144 -0.0493
  759loPI   C6A12140  11.914  12.513   8.763 -0.1633  0.0074  0.2319
  759loPI   C1B12141  12.703  13.205   6.926 -0.0584  0.0651  0.1712
  759loPI   C2B12142  12.521  13.280   7.404 -0.2878 -0.1677  0.0506
  759loPI   C3B12143  12.496  13.282   7.841  0.0960  0.0918  0.0358
  759loPI   C4B12144  12.467  13.254   8.218 -0.1498 -0.2449  0.0456
  760loPI    C112145   0.069   4.078   5.506  0.0324  0.2620  0.0371
  760loPI    C212146   0.028   4.091   5.109  0.1867 -0.2567 -0.0020
  760loPI    C312147   0.376   4.193   5.277 -0.0272  0.4424  0.0460
  760loPI   PO412148  -0.054   4.151   5.658  0.2452  0.3942 -0.1186
  760loPI   GL112149  -0.044   4.157   6.080  0.0944 -0.0715  0.2492
  760loPI   GL212150  -0.175   4.371   6.130 -0.1467  0.3544 -0.1786
  760loPI   C1A12151   0.112   4.087   6.479  0.0008 -0.1516 -0.3023
  760loPI   C2A12152   0.056   4.174   6.893 -0.1061  0.2100 -0.3017
  760loPI   C3A12153   0.111   4.088   7.205  0.0633 -0.1944  0.0939
  760loPI   C4A12154   0.079   4.081   7.601 -0.0448 -0.0652  0.2423
  760loPI   C5A12155   0.137   4.150   8.022 -0.2037  0.1565  0.0442
  760loPI   C6A12156   0.099   4.126   8.533 -0.0739 -0.0153 -0.3060
  760loPI   C1B12157  -0.174   4.491   6.622  0.3462  0.0848 -0.1127
  760loPI   C2B12158  -0.226   4.598   6.931 -0.0520  0.0815  0.1497
  760loPI   C3B12159  -0.251   4.513   7.383 -0.1334  0.0985  0.0379
  760loPI   C4B12160  -0.119   4.531   7.811 -0.0736 -0.1028  0.0973
  761loPI    C112161   6.326   2.294   5.409 -0.1305 -0.0047  0.1887
  761loPI    C212162   6.129   2.637   5.348 -0.0473  0.0308  0.1181
  761loPI    C312163   6.423   2.528   5.099  0.1559  0.0749  0.3350
  761loPI   PO412164   6.422   2.317   5.649 -0.3248  0.1139  0.0116
  761loPI   GL112165   6.322   2.265   6.065 -0.0582 -0.0029  0.1455
  761loPI   GL212166   6.289   2.469   6.161 -0.1005  0.1274  0.0258
  761loPI   C1A12167   6.179   1.991   6.433 -0.0516 -0.1610 -0.0572
  761loPI   C2A12168   6.106   2.037   6.833  0.1711  0.0513 -0.1035
  761loPI   C3A12169   6.111   2.072   7.248 -0.0194  0.1230 -0.3060
  761loPI   C4A12170   6.120   1.951   7.691  0.2020 -0.1238 -0.0913
  761loPI   C5A12171   6.252   1.559   7.859  0.2367 -0.1617  0.1890
  761loPI   C6A12172   6.330   1.591   8.248  0.2115  0.0242  0.1986
  761loPI   C1B12173   6.336   2.439   6.614  0.2563  0.0910  0.0827
  761loPI   C2B12174   6.209   2.558   7.038  0.1755  0.2640 -0.0536
  761loPI   C3B12175   6.290   2.519   7.468  0.3592 -0.0736 -0.1055
  761loPI   C4B12176   6.372   2.484   7.916 -0.2255  0.2569 -0.2378
  762loPI    C112177  15.614  14.883   5.723 -0.2905  0.0793  0.0073
  762loPI    C212178  15.816  14.576   5.565 -0.1898  0.0587  0.1727
  762loPI    C312179  15.552  14.777   5.342  0.1515  0.2083 -0.1071
  762loPI   PO412180  15.729  14.738   6.034  0.1439 -0.1914  0.1193
  762loPI   GL112181  15.739  14.803   6.413  0.0752 -0.1224  0.0555
  762loPI   GL212182  15.758  15.141   6.265  0.1036 -0.1680  0.3071
  762loPI   C1A12183  15.993  14.599   6.640 -0.1395  0.0728  0.2253
  762loPI   C2A12184  16.009  14.676   7.051 -0.0417 -0.1763 -0.1419
  762loPI   C3A12185  16.019  14.515   7.504 -0.0397 -0.0788 -0.1447
  762loPI   C4A12186  15.937  14.624   7.880  0.1974 -0.0266  0.0389
  762loPI   C5A12187  15.859  14.601   8.293  0.1312  0.1002 -0.2236
  762loPI   C6A12188  15.829  14.502   8.731  0.0698  0.0719 -0.1570
  762loPI   C1B12189  15.678  15.041   6.809  0.3059  0.2369  0.2901
  762loPI   C2B12190  15.670  14.990   7.221  0.2178  0.1936 -0.0338
  762loPI   C3B12191  15.666  15.065   7.624  0.0964 -0.0806 -0.0435
  762loPI   C4B12192  15.705  15.096   8.025  0.3895  0.0431 -0.0449
  763loPI    C112193   7.940   6.762   5.559  0.0526 -0.0531  0.1068
  763loPI    C212194   8.103   7.122   5.619 -0.0217  0.0043 -0.0293
  763loPI    C312195   8.158   6.933   5.271 -0.1875 -0.0060 -0.0508
  763loPI   PO412196   7.996   6.651   5.765  0.1443 -0.0131 -0.2400
  763loPI   GL112197   7.978   6.744   6.241  0.3935  0.2027  0.2544
  763loPI   GL212198   7.869   7.025   6.077  0.0353 -0.1513  0.1104
  763loPI   C1A12199   8.008   6.832   6.595 -0.0557  0.3884  0.3527
  763loPI   C2A12200   8.048   6.837   7.064 -0.2468  0.2198  0.4240
  763loPI   C3A12201   8.000   6.846   7.537  0.1717 -0.0149 -0.0530
  763loPI   C4A12202   8.015   6.682   7.970 -0.0253  0.1704 -0.0038
  763loPI   C5A12203   8.135   6.303   8.043 -0.0310  0.0030  0.0861
  763loPI   C6A12204   8.281   5.963   8.384 -0.1920  0.1513  0.0561
  763loPI   C1B12205   7.782   7.229   6.379 -0.1930  0.0375  0.1036
  763loPI   C2B12206   7.747   7.214   6.767  0.1123  0.1332 -0.0791
  763loPI   C3B12207   7.799   7.242   7.203 -0.1313 -0.0249  0.0676
  763loPI   C4B12208   7.662   7.175   7.674  0.0273 -0.2205 -0.1222
  764loPI    C112209  15.252  13.099   5.798  0.0380  0.1055  0.0275
  764loPI    C212210  15.213  13.309   5.460 -0.3602 -0.2449 -0.1539
  764loPI    C312211  15.380  12.946   5.451 -0.0972 -0.1335  0.0810
  764loPI   PO412212  14.995  13.156   5.928 -0.0136  0.2036  0.2041
  764loPI   GL112213  14.797  13.158   6.281  0.0723 -0.0764  0.0643
  764loPI   GL212214  14.411  13.159   6.518  0.1746  0.0394 -0.2198
  764loPI   C1A12215  14.856  13.168   6.695  0.0255 -0.0404  0.0007
  764loPI   C2A12216  14.933  13.077   7.087  0.2348  0.1486  0.2192
  764loPI   C3A12217  14.857  13.087   7.525  0.0461 -0.3055 -0.0599
  764loPI   C4A12218  14.906  13.076   7.985  0.1352 -0.0166  0.2723
  764loPI   C5A12219  15.067  12.738   8.297  0.2585  0.1156 -0.2308
  764loPI   C6A12220  14.949  12.259   8.437 -0.0118  0.0357 -0.0546
  764loPI   C1B12221  14.319  13.133   6.960  0.1239 -0.0689  0.1237
  764loPI   C2B12222  14.372  13.092   7.415  0.0530 -0.0895  0.1167
  764loPI   C3B12223  14.392  13.116   7.753  0.0939  0.0426  0.1893
  764loPI   C4B12224  14.450  12.852   8.056  0.1228 -0.0033 -0.0146
  765loPI    C112225  10.745  17.008   5.308  0.1226 -0.0696  0.2369
  765loPI    C212226  10.873  16.675   5.128  0.0051  0.1078 -0.1867
  765loPI    C312227  10.493  16.793   5.084  0.0345  0.2749 -0.0040
  765loPI   PO412228  10.826  16.942   5.617 -0.4225  0.0514  0.0077
  765loPI   GL112229  10.689  16.820   5.939  0.1902  0.1780  0.0928
  765loPI   GL212230  10.673  16.633   6.176  0.0508  0.1692  0.2188
  765loPI   C1A12231  10.444  17.072   6.364 -0.1555  0.1572  0.0905
  765loPI   C2A12232  10.292  17.185   6.744  0.1726 -0.2316  0.1418
  765loPI   C3A12233  10.303  17.166   7.123 -0.1894 -0.0815 -0.1662
  765loPI   C4A12234  10.246  17.063   7.542 -0.3951  0.0128  0.1678
  765loPI   C5A12235  10.224  16.966   7.852 -0.0824 -0.0074 -0.0466
  765loPI   C6A12236  10.479  17.005   8.304 -0.1848  0.1688  0.0184
  765loPI   C1B12237  10.664  16.706   6.620  0.1274 -0.1956  0.4397
  765loPI   C2B12238  10.581  16.803   6.947 -0.1974  0.0142  0.3703
  765loPI   C3B12239  10.513  16.695   7.260 -0.5064 -0.0432  0.1283
  765loPI   C4B12240  10.535  16.604   7.726  0.0927 -0.0984  0.2754
  766loPI    C112241  15.536  13.811   5.725 -0.0319 -0.0659  0.1037
  766loPI    C212242  15.726  14.005   5.432 -0.2274  0.1620  0.1242
  766loPI    C312243  15.529  13.667   5.352 -0.1465  0.1375  0.0254
  766loPI   PO412244  15.732  13.770   5.952  0.1996  0.2153 -0.0344
  766loPI   GL112245  15.743  13.822   6.312 -0.0395 -0.1156  0.1740
  766loPI   GL212246  15.633  13.484   6.430  0.1732  0.0121  0.0458
  766loPI   C1A12247  15.779  14.127   6.729  0.1258 -0.1098  0.0692
  766loPI   C2A12248  15.789  14.164   7.166 -0.0535  0.4548 -0.2977
  766loPI   C3A12249  15.814  14.064   7.588 -0.0495  0.1044 -0.1445
  766loPI   C4A12250  15.707  14.195   8.060  0.3118  0.0212 -0.0295
  766loPI   C5A12251  15.771  14.117   8.513  0.0840 -0.0717  0.0029
  766loPI   C6A12252  15.706  13.758   8.773 -0.1004 -0.0340 -0.0921
  766loPI   C1B12253  15.582  13.650   6.793 -0.1511  0.2109 -0.0113
  766loPI   C2B12254  15.581  13.634   7.173  0.1649 -0.1522 -0.1960
  766loPI   C3B12255  15.596  13.591   7.561 -0.0612  0.2231 -0.3490
  766loPI   C4B12256  15.506  13.741   7.922 -0.2046  0.2008  0.1802
  767loPI    C112257  17.111   9.662   5.237 -0.4229  0.0321  0.1094
  767loPI    C212258  17.058   9.323   5.032 -0.2088 -0.0374  0.1664
  767loPI    C312259  16.904   9.666   4.894 -0.0825 -0.0858 -0.1020
  767loPI   PO412260  17.299   9.489   5.457  0.1395 -0.1264  0.1734
  767loPI   GL112261  17.356   9.515   5.913 -0.1725 -0.0456  0.0701
  767loPI   GL212262  17.592   9.631   6.094 -0.1554  0.1308  0.1408
  767loPI   C1A12263  17.195   9.452   6.320 -0.0275  0.0046  0.1141
  767loPI   C2A12264  17.264   9.379   6.784  0.3411 -0.1580  0.0345
  767loPI   C3A12265  17.150   9.396   7.217  0.2934 -0.1278 -0.0576
  767loPI   C4A12266  17.127   9.390   7.735  0.2363 -0.0499  0.0485
  767loPI   C5A12267  17.211   9.339   8.100  0.1454 -0.2847  0.0482
  767loPI   C6A12268  17.525   9.081   8.282  0.0354 -0.1043 -0.2265
  767loPI   C1B12269  17.724   9.483   6.347 -0.2317 -0.1957 -0.2636
  767loPI   C2B12270  17.755   9.464   6.786  0.1579  0.0427  0.0433
  767loPI   C3B12271  17.688   9.426   7.183  0.0518  0.1244  0.1543
  767loPI   C4B12272  17.655   9.402   7.724 -0.2797 -0.3747  0.2562
  768loPI    C112273  16.352   9.837   5.597 -0.1475  0.1771  0.0284
  768loPI    C212274  16.268  10.177   5.405  0.2128  0.1323 -0.2180
  768loPI    C312275  16.129   9.829   5.265 -0.3151  0.1870  0.1393
  768loPI   PO412276  16.416   9.893   5.790 -0.1189  0.0550 -0.1446
  768loPI   GL112277  16.657   9.733   6.186  0.2596 -0.0818  0.1251
  768loPI   GL212278  16.327   9.604   6.172  0.0236  0.0017 -0.1747
  768loPI   C1A12279  16.904   9.725   6.554  0.0869 -0.0714  0.3455
  768loPI   C2A12280  16.881   9.761   6.974 -0.1199  0.3203  0.0092
  768loPI   C3A12281  16.893   9.764   7.402  0.1035  0.0387 -0.0063
  768loPI   C4A12282  16.855   9.791   7.843 -0.2836  0.3146 -0.1277
  768loPI   C5A12283  16.818   9.881   8.305 -0.0746  0.2164 -0.0914
  768loPI   C6A12284  16.989   9.763   8.724  0.4697  0.1470 -0.0846
  768loPI   C1B12285  16.347   9.816   6.553 -0.2564 -0.0210  0.1080
  768loPI   C2B12286  16.322   9.756   6.933  0.1957  0.1048 -0.1944
  768loPI   C3B12287  16.340   9.696   7.378  0.1767  0.0505 -0.0831
  768loPI   C4B12288  16.358   9.725   7.782 -0.1237 -0.2582 -0.1671
  769loPI    C112289  14.476   1.272   5.841  0.0904 -0.1240 -0.0225
  769loPI    C212290  14.564   1.487   5.515 -0.0543 -0.1048 -0.0498
  769loPI    C312291  14.415   1.117   5.478  0.1179 -0.1801 -0.0033
  769loPI   PO412292  14.368   1.455   5.952 -0.1979  0.0912 -0.0016
  769loPI   GL112293  14.303   1.537   6.321 -0.2971  0.2517  0.0174
  769loPI   GL212294  14.698   1.640   6.292  0.0285 -0.2778 -0.1064
  769loPI   C1A12295  14.229   1.591   6.696  0.1314 -0.2010 -0.0902
  769loPI   C2A12296  14.185   1.598   7.215  0.2718 -0.2066  0.1280
  769loPI   C3A12297  14.126   1.621   7.708  0.0786 -0.0759  0.1546
  769loPI   C4A12298  14.096   1.661   8.193 -0.0188 -0.3566 -0.0185
  769loPI   C5A12299  14.290   1.556   8.579  0.0608 -0.1500 -0.0620
  769loPI   C6A12300  14.467   1.773   9.011  0.0414 -0.1582 -0.2632
  769loPI   C1B12301  14.712   1.654   6.682  0.0315 -0.2706  0.1378
  769loPI   C2B12302  14.681   1.600   7.186 -0.3404 -0.0920  0.2095
  769loPI   C3B12303  14.786   1.660   7.627 -0.0496 -0.1212 -0.0970
  769loPI   C4B12304  14.590   1.607   8.038 -0.0789  0.1134  0.2493
  770loPI    C112305   2.344   9.568   5.078 -0.3095 -0.0924  0.0209
  770loPI    C212306   2.397   9.173   5.053 -0.0816 -0.0774  0.2360
  770loPI    C312307   2.456   9.403   4.731  0.1393 -0.1802  0.2008
  770loPI   PO412308   2.385   9.610   5.345 -0.1165  0.0821  0.3373
  770loPI   GL112309   2.513   9.470   5.708 -0.1035  0.0005 -0.1759
  770loPI   GL212310   2.462   9.286   6.044 -0.0847 -0.3057  0.1572
  770loPI   C1A12311   2.576   9.767   6.166 -0.0694 -0.1375 -0.2343
  770loPI   C2A12312   2.514   9.715   6.586 -0.0743  0.1173  0.0148
  770loPI   C3A12313   2.482   9.726   7.028  0.2641  0.0666 -0.2512
  770loPI   C4A12314   2.455   9.709   7.496 -0.0618  0.2329  0.0078
  770loPI   C5A12315   2.614   9.841   7.914  0.1227  0.1037 -0.1382
  770loPI   C6A12316   2.551   9.991   8.222  0.0674 -0.0115 -0.3363
  770loPI   C1B12317   2.365   9.253   6.481  0.0462 -0.1097  0.1218
  770loPI   C2B12318   2.309   9.265   6.909  0.1590  0.2523 -0.0317
  770loPI   C3B12319   2.323   9.190   7.360 -0.0350 -0.3120  0.0561
  770loPI   C4B12320   2.240   9.284   7.774 -0.2076  0.2916 -0.0276
  771loPI    C112321   6.660  13.825   5.287  0.1354 -0.0152 -0.1979
  771loPI    C212322   6.860  13.743   4.951  0.1711 -0.0528 -0.1677
  771loPI    C312323   6.490  13.893   4.932  0.1330 -0.1528 -0.2238
  771loPI   PO412324   6.746  13.599   5.413  0.2724 -0.1873  0.1310
  771loPI   GL112325   6.569  13.614   5.844 -0.4985 -0.0999  0.5214
  771loPI   GL212326   6.275  13.399   5.890  0.0747  0.1403 -0.0605
  771loPI   C1A12327   6.596  13.508   6.293 -0.0665 -0.2253 -0.0450
  771loPI   C2A12328   6.489  13.426   6.715  0.0920  0.0479  0.3248
  771loPI   C3A12329   6.453  13.463   7.178 -0.0948  0.1762 -0.0614
  771loPI   C4A12330   6.337  13.352   7.635  0.1177 -0.0083 -0.1277
  771loPI   C5A12331   5.974  13.315   7.857  0.0177  0.3328  0.0785
  771loPI   C6A12332   5.766  13.259   8.233  0.1289  0.0147 -0.0256
  771loPI   C1B12333   6.048  13.465   6.267  0.0641  0.1720  0.1577
  771loPI   C2B12334   5.966  13.419   6.615 -0.1946  0.1534 -0.0887
  771loPI   C3B12335   5.991  13.358   7.024  0.0086  0.1595  0.1336
  771loPI   C4B12336   5.776  13.307   7.359  0.1200  0.0144 -0.0224
  772loPI    C112337   9.926  17.002   5.595 -0.2406 -0.0500  0.1400
  772loPI    C212338  10.320  17.012   5.659 -0.2555 -0.1015  0.2411
  772loPI    C312339  10.174  17.101   5.297 -0.1483 -0.1257  0.1913
  772loPI   PO412340   9.893  16.873   5.814 -0.2192 -0.3666 -0.1374
  772loPI   GL112341   9.907  16.829   6.175 -0.0477 -0.3413 -0.1361
  772loPI   GL212342   9.669  16.654   6.262 -0.2811  0.2050 -0.3505
  772loPI   C1A12343  10.153  16.732   6.576 -0.1875  0.0530 -0.0067
  772loPI   C2A12344  10.110  16.652   6.973 -0.0516  0.1988 -0.1503
  772loPI   C3A12345  10.036  16.596   7.434 -0.0003 -0.0275 -0.0336
  772loPI   C4A12346  10.003  16.567   7.777 -0.1180 -0.0254  0.0350
  772loPI   C5A12347   9.915  16.605   8.255 -0.4863  0.2425  0.2313
  772loPI   C6A12348   9.559  16.720   8.558  0.2278  0.2109 -0.2268
  772loPI   C1B12349   9.697  16.584   6.710  0.2584 -0.2692 -0.0715
  772loPI   C2B12350   9.577  16.529   7.114  0.3632 -0.1210  0.0666
  772loPI   C3B12351   9.510  16.495   7.573  0.2993 -0.0446 -0.0480
  772loPI   C4B12352   9.511  16.505   8.015 -0.1843  0.2323  0.3424
  773loPI    C112353   3.954  17.706   5.346  0.2619  0.3618 -0.0674
  773loPI    C212354   4.194  17.643   5.031  0.1179  0.0629 -0.1213
  773loPI    C312355   3.812  17.524   5.019  0.1031  0.0745  0.1568
  773loPI   PO412356   4.083  17.663   5.528 -0.2375  0.3546  0.0285
  773loPI   GL112357   4.013  17.687   5.934 -0.0883  0.1101  0.3345
  773loPI   GL212358   3.796  17.557   6.088  0.2237 -0.0642 -0.1843
  773loPI   C1A12359   4.175  17.697   6.350  0.2132  0.0085  0.0472
  773loPI   C2A12360   4.198  17.739   6.808 -0.2152 -0.1179  0.0193
  773loPI   C3A12361   4.293  17.730   7.277  0.1687 -0.0313  0.0301
  773loPI   C4A12362   4.277  17.646   7.716 -0.0663 -0.0893  0.0556
  773loPI   C5A12363   4.358  17.546   8.114  0.0399 -0.0046 -0.0712
  773loPI   C6A12364   4.767  17.577   8.347 -0.0053  0.0004 -0.0266
  773loPI   C1B12365   3.749  17.676   6.619 -0.0882  0.1204  0.1189
  773loPI   C2B12366   3.803  17.512   6.963 -0.0766 -0.1405 -0.1877
  773loPI   C3B12367   3.843  17.574   7.327  0.3525  0.0079  0.0095
  773loPI   C4B12368   3.804  17.518   7.846  0.2439 -0.0532  0.0550
  774loPI    C112369  15.606   0.229   5.455  0.1877  0.2201 -0.0849
  774loPI    C212370  15.656  -0.021   5.763 -0.1327  0.0495 -0.1669
  774loPI    C312371  15.875  -0.066   5.431  0.3335  0.3370  0.0913
  774loPI   PO412372  15.547   0.473   5.593  0.0778 -0.1491 -0.4362
  774loPI   GL112373  15.745   0.626   5.900 -0.0092 -0.1513 -0.0519
  774loPI   GL212374  15.552   0.447   6.099 -0.0074  0.3746  0.0689
  774loPI   C1A12375  15.835   0.837   6.279 -0.2337 -0.0771  0.0789
  774loPI   C2A12376  15.852   0.792   6.746 -0.4027  0.1024 -0.1090
  774loPI   C3A12377  15.838   0.782   7.194 -0.1088 -0.1446 -0.3749
  774loPI   C4A12378  15.796   0.801   7.615 -0.0981 -0.4183 -0.3480
  774loPI   C5A12379  15.790   0.835   8.097  0.2170  0.0390  0.0685
  774loPI   C6A12380  15.818   1.068   8.512 -0.3775  0.2092 -0.1756
  774loPI   C1B12381  15.667   0.379   6.496 -0.0626  0.1179 -0.0900
  774loPI   C2B12382  15.581   0.342   6.896 -0.1298  0.4600 -0.2475
  774loPI   C3B12383  15.613   0.322   7.371 -0.0157 -0.0505 -0.1974
  774loPI   C4B12384  15.516   0.456   7.864 -0.0078  0.1024  0.0157
  775loPI    C112385   0.736   4.554   5.226  0.2473 -0.0780  0.0712
  775loPI    C212386   1.129   4.523   5.289  0.2849  0.0568 -0.0898
  775loPI    C312387   0.991   4.602   4.922  0.1147  0.1447 -0.0081
  775loPI   PO412388   0.645   4.567   5.524 -0.1286 -0.2074 -0.5320
  775loPI   GL112389   0.679   4.543   6.009  0.1186  0.2051 -0.1435
  775loPI   GL212390   0.326   4.536   6.144 -0.1377 -0.0117 -0.0165
  775loPI   C1A12391   0.786   4.609   6.499  0.2200 -0.1092  0.0047
  775loPI   C2A12392   0.735   4.697   6.872  0.3819  0.1094 -0.0812
  775loPI   C3A12393   0.707   4.640   7.272 -0.0237 -0.0810 -0.1196
  775loPI   C4A12394   0.790   4.661   7.719  0.1437  0.1658  0.1000
  775loPI   C5A12395   0.782   4.725   8.190 -0.2662 -0.1953  0.0005
  775loPI   C6A12396   0.889   4.634   8.662  0.0916 -0.0358  0.1557
  775loPI   C1B12397   0.282   4.544   6.579  0.0053  0.1016 -0.0126
  775loPI   C2B12398   0.255   4.650   7.053 -0.0891  0.2227 -0.1365
  775loPI   C3B12399   0.272   4.606   7.527 -0.0698  0.0282 -0.1537
  775loPI   C4B12400   0.348   4.621   8.014  0.0166 -0.0596  0.1028
  776loPI    C112401   4.675  17.039   5.397  0.3474  0.1040  0.0935
  776loPI    C212402   4.689  16.990   5.000 -0.0795 -0.0589  0.0936
  776loPI    C312403   4.643  17.356   5.155  0.0184 -0.0030 -0.0085
  776loPI   PO412404   4.850  16.940   5.559  0.2142 -0.0351  0.3745
  776loPI   GL112405   4.897  17.031   5.960 -0.0317 -0.0003  0.2255
  776loPI   GL212406   4.872  17.284   5.946  0.1027  0.1133 -0.1090
  776loPI   C1A12407   4.890  16.852   6.382 -0.1678 -0.3561 -0.0083
  776loPI   C2A12408   4.865  16.848   6.842  0.1807  0.0254  0.0117
  776loPI   C3A12409   4.806  16.895   7.268 -0.2738 -0.0629  0.1676
  776loPI   C4A12410   4.948  16.752   7.674 -0.0469  0.1688 -0.1015
  776loPI   C5A12411   5.078  16.617   7.982  0.3201  0.0385  0.0961
  776loPI   C6A12412   5.233  16.391   8.285  0.1101  0.0244  0.1351
  776loPI   C1B12413   5.080  17.321   6.335 -0.0169  0.1311  0.0698
  776loPI   C2B12414   5.112  17.333   6.814 -0.1872  0.2130  0.0913
  776loPI   C3B12415   5.088  17.417   7.193  0.2286  0.4093 -0.1180
  776loPI   C4B12416   5.104  17.223   7.557  0.1278 -0.3975  0.0953
  777loPI    C112417  15.976  11.394   5.777  0.0993 -0.0963  0.1351
  777loPI    C212418  15.990  11.220   5.417 -0.0643 -0.2498  0.2014
  777loPI    C312419  15.696  11.476   5.504  0.0929 -0.0510  0.1553
  777loPI   PO412420  16.264  11.343   5.814 -0.3074  0.0872 -0.2185
  777loPI   GL112421  16.537  11.152   6.151  0.0387 -0.0402  0.0334
  777loPI   GL212422  16.449  10.866   6.141  0.0388 -0.0605  0.1948
  777loPI   C1A12423  16.708  11.074   6.557 -0.0362  0.1735 -0.0414
  777loPI   C2A12424  16.987  11.126   6.918  0.1579  0.1457 -0.2658
  777loPI   C3A12425  16.928  11.093   7.403 -0.2564 -0.0123 -0.1328
  777loPI   C4A12426  17.013  11.212   7.838  0.0900 -0.0830  0.0284
  777loPI   C5A12427  16.919  11.427   8.182  0.2579 -0.0152 -0.1631
  777loPI   C6A12428  16.963  11.660   8.576 -0.1102 -0.3178 -0.0242
  777loPI   C1B12429  16.246  10.807   6.543  0.0727  0.0626 -0.1395
  777loPI   C2B12430  16.280  10.698   6.968  0.0240  0.0214 -0.0544
  777loPI   C3B12431  16.261  10.553   7.352  0.2786  0.0491 -0.0528
  777loPI   C4B12432  16.245  10.583   7.749 -0.1429 -0.1963 -0.0436
  778loPI    C112433   5.980  10.816   5.365 -0.1220  0.1407 -0.1899
  778loPI    C212434   6.320  10.901   5.171 -0.0511  0.3213  0.0087
  778loPI    C312435   6.027  11.172   5.188 -0.0671  0.2966  0.1319
  778loPI   PO412436   6.022  10.729   5.553  0.0930  0.2999  0.0562
  778loPI   GL112437   5.816  10.789   5.925  0.0069  0.2090 -0.0301
  778loPI   GL212438   6.136  10.851   5.991  0.5767  0.0816  0.3000
  778loPI   C1A12439   5.833  10.642   6.340 -0.0034 -0.3818 -0.0475
  778loPI   C2A12440   5.684  10.495   6.695 -0.1793  0.0648 -0.2047
  778loPI   C3A12441   5.734  10.470   7.132 -0.0708 -0.1767  0.0070
  778loPI   C4A12442   5.823  10.553   7.601 -0.1838 -0.1024  0.1110
  778loPI   C5A12443   5.652  10.484   7.954  0.0044  0.2218 -0.0838
  778loPI   C6A12444   5.812  10.167   8.274 -0.1223 -0.1019 -0.0628
  778loPI   C1B12445   6.366  11.029   6.412  0.0959 -0.1427 -0.0929
  778loPI   C2B12446   6.366  11.114   6.777  0.1352  0.4250  0.1066
  778loPI   C3B12447   6.458  11.096   7.191  0.0260  0.0958  0.0354
  778loPI   C4B12448   6.478  11.112   7.565 -0.0296  0.0924 -0.0398
  779loPI    C112449  11.314   1.950   5.733  0.0214 -0.1279  0.1621
  779loPI    C212450  11.082   1.807   5.441  0.2638 -0.1083 -0.0435
  779loPI    C312451  11.383   1.586   5.584  0.3924  0.0377 -0.0857
  779loPI   PO412452  11.164   2.047   5.988 -0.2093  0.2249 -0.1382
  779loPI   GL112453  11.215   1.968   6.375 -0.2782  0.1760  0.0675
  779loPI   GL212454  10.875   2.122   6.554 -0.1347  0.1666  0.1999
  779loPI   C1A12455  11.320   2.057   6.861  0.2238 -0.2408  0.3517
  779loPI   C2A12456  11.587   1.754   7.120 -0.1509  0.1182 -0.0199
  779loPI   C3A12457  11.813   1.807   7.524 -0.1261 -0.1429 -0.0906
  779loPI   C4A12458  11.906   1.643   7.879 -0.1920 -0.1070 -0.4557
  779loPI   C5A12459  11.651   1.625   8.247  0.1395 -0.1385 -0.0873
  779loPI   C6A12460  11.284   1.560   8.469  0.1748 -0.2623 -0.3225
  779loPI   C1B12461  10.834   1.701   6.746 -0.0571 -0.2117 -0.2504
  779loPI   C2B12462  10.667   1.475   7.059 -0.1055 -0.0898  0.1972
  779loPI   C3B12463  10.351   1.219   7.089 -0.4469  0.1534  0.1463
  779loPI   C4B12464  10.034   1.111   7.129  0.0224  0.3714  0.1429
  780loPI    C112465  12.732   0.550   5.649 -0.1560 -0.1382  0.1879
  780loPI    C212466  12.337   0.517   5.595 -0.1410  0.1369 -0.1201
  780loPI    C312467  12.589   0.347   5.335 -0.0566  0.1263 -0.0317
  780loPI   PO412468  12.763   0.472   5.942 -0.1327 -0.0583 -0.0639
  780loPI   GL112469  12.642   0.310   6.284 -0.1754  0.1036 -0.1092
  780loPI   GL212470  12.813   0.578   6.444 -0.2383  0.0366 -0.1423
  780loPI   C1A12471  12.603   0.194   6.679 -0.1413  0.1666 -0.0729
  780loPI   C2A12472  12.646   0.059   7.164 -0.1117 -0.0460  0.1194
  780loPI   C3A12473  12.592   0.080   7.582 -0.2269  0.0305 -0.2004
  780loPI   C4A12474  12.379   0.058   7.902 -0.1080 -0.2353 -0.1126
  780loPI   C5A12475  12.139  -0.072   8.276 -0.0398 -0.2925 -0.0081
  780loPI   C6A12476  12.050  -0.321   8.570  0.0042 -0.0522  0.1440
  780loPI   C1B12477  12.750   0.536   6.954 -0.2480  0.3383  0.0982
  780loPI   C2B12478  12.742   0.522   7.360 -0.2968 -0.1051 -0.3837
  780loPI   C3B12479  12.600   0.540   7.794 -0.0630  0.1724 -0.4201
  780loPI   C4B12480  12.832   0.691   8.262 -0.0440  0.0168  0.0609
  781loPI    C112481  10.501   2.646   5.709 -0.0333 -0.2006  0.1962
  781loPI    C212482  10.384   2.693   5.329 -0.0605  0.0528  0.2342
  781loPI    C312483  10.408   2.326   5.487 -0.4672 -0.0280  0.1199
  781loPI   PO412484  10.401   2.803   5.847  0.0995 -0.0409 -0.0470
  781loPI   GL112485  10.109   2.948   6.086 -0.2600 -0.2728 -0.2907
  781loPI   GL212486   9.844   2.758   6.191  0.1452  0.0695  0.2055
  781loPI   C1A12487  10.094   3.321   6.254  0.1171  0.0102  0.1296
  781loPI   C2A12488  10.068   3.386   6.717 -0.1793  0.1114  0.0375
  781loPI   C3A12489  10.010   3.403   7.126 -0.0430  0.1582  0.0445
  781loPI   C4A12490  10.030   3.559   7.568 -0.0131  0.1164 -0.0207
  781loPI   C5A12491  10.206   3.563   7.998 -0.2177 -0.0290  0.1554
  781loPI   C6A12492  10.266   3.510   8.422 -0.0942  0.3429  0.2397
  781loPI   C1B12493   9.852   2.954   6.562 -0.0933  0.1935 -0.0216
  781loPI   C2B12494   9.770   2.929   7.094  0.0338  0.2981  0.0345
  781loPI   C3B12495   9.853   3.051   7.472  0.0364  0.0852  0.3117
  781loPI   C4B12496   9.793   3.044   7.928 -0.0809 -0.1265 -0.0639
  782loPI    C112497  14.826   0.928   5.429 -0.0914 -0.0800 -0.0312
  782loPI    C212498  14.770   1.134   5.091  0.1803  0.2045  0.0912
  782loPI    C312499  15.039   0.838   5.103  0.0113  0.0443  0.0007
  782loPI   PO412500  14.904   1.142   5.638  0.1771  0.1791 -0.1201
  782loPI   GL112501  14.851   1.132   6.102  0.0577 -0.2768 -0.0333
  782loPI   GL212502  15.115   1.399   6.145  0.2374  0.0712  0.2227
  782loPI   C1A12503  15.052   1.178   6.592 -0.0450  0.2628  0.0452
  782loPI   C2A12504  15.032   1.221   7.017 -0.0482  0.0936 -0.0342
  782loPI   C3A12505  14.997   1.203   7.430  0.2081 -0.1023 -0.0207
  782loPI   C4A12506  14.945   1.260   7.818  0.2270  0.2807  0.0860
  782loPI   C5A12507  14.947   1.227   8.213  0.1724  0.2431 -0.3926
  782loPI   C6A12508  14.986   1.236   8.694  0.2253 -0.0737 -0.0160
  782loPI   C1B12509  15.161   1.713   6.476 -0.1390 -0.2846 -0.2224
  782loPI   C2B12510  15.206   1.665   6.910  0.0588  0.0681 -0.0945
  782loPI   C3B12511  15.198   1.704   7.342 -0.0214  0.2631 -0.3472
  782loPI   C4B12512  15.220   1.702   7.755 -0.0844  0.1969  0.3230
  783loPI    C112513  10.649   0.529   5.642  0.0734 -0.1194 -0.1384
  783loPI    C212514  10.827   0.630   5.299  0.1945 -0.1384 -0.0816
  783loPI    C312515  10.519   0.375   5.297  0.0621  0.0208 -0.1972
  783loPI   PO412516  10.779   0.569   5.821 -0.2629  0.1534  0.2191
  783loPI   GL112517  10.935   0.821   6.221 -0.0476 -0.3766  0.2602
  783loPI   GL212518  10.748   0.677   6.317  0.1328  0.0190  0.1896
  783loPI   C1A12519  11.023   0.965   6.637 -0.1714 -0.2218 -0.1973
  783loPI   C2A12520  10.885   0.845   7.043 -0.0257  0.1382 -0.0149
  783loPI   C3A12521  10.747   0.767   7.516  0.1041  0.2644 -0.1727
  783loPI   C4A12522  10.515   0.705   7.894 -0.0776  0.4150 -0.1028
  783loPI   C5A12523  10.314   0.663   8.296 -0.0976 -0.2259 -0.1822
  783loPI   C6A12524  10.064   0.623   8.688 -0.2113  0.0073  0.1087
  783loPI   C1B12525  10.813   0.414   6.737 -0.0280  0.1785  0.0449
  783loPI   C2B12526  10.704   0.331   7.164  0.0056  0.0036  0.1486
  783loPI   C3B12527  10.554   0.321   7.646  0.1175  0.1805  0.3116
  783loPI   C4B12528  10.580   0.128   7.952 -0.0360 -0.1245  0.0006
  784loPI    C112529   4.260  16.388   5.563  0.3486 -0.0204  0.2614
  784loPI    C212530   4.640  16.508   5.523  0.2496  0.2499  0.1027
  784loPI    C312531   4.359  16.649   5.276  0.0316  0.1101  0.2671
  784loPI   PO412532   4.229  16.420   5.782 -0.0236 -0.1537 -0.1348
  784loPI   GL112533   4.530  16.416   6.081 -0.3305  0.1878  0.1352
  784loPI   GL212534   4.769  16.462   5.985 -0.4061  0.2558  0.0477
  784loPI   C1A12535   4.683  16.416   6.515  0.3528  0.2285 -0.0632
  784loPI   C2A12536   4.750  16.252   6.904 -0.1113  0.3821  0.1244
  784loPI   C3A12537   4.740  16.271   7.389 -0.0711 -0.2399  0.0106
  784loPI   C4A12538   4.824  16.252   7.854  0.0843  0.4242 -0.0025
  784loPI   C5A12539   4.738  16.230   8.351 -0.0734 -0.3223  0.0392
  784loPI   C6A12540   4.574  16.164   8.731  0.0242 -0.2949  0.2319
  784loPI   C1B12541   5.181  16.486   6.341 -0.0208 -0.0078 -0.0760
  784loPI   C2B12542   5.258  16.460   6.752  0.0970 -0.2240  0.0863
  784loPI   C3B12543   5.238  16.471   7.152  0.3418  0.1080 -0.1692
  784loPI   C4B12544   5.238  16.336   7.612  0.0673 -0.2776 -0.0988
  785loPI    C112545  13.251   0.590   5.605 -0.0672  0.3332 -0.0769
  785loPI    C212546  13.118   0.231   5.492 -0.1662  0.3465 -0.0036
  785loPI    C312547  13.375   0.431   5.259  0.1123  0.1045  0.0897
  785loPI   PO412548  13.266   0.542   5.856 -0.1863 -0.0862 -0.3354
  785loPI   GL112549  13.225   0.409   6.191  0.3219  0.2012  0.0867
  785loPI   GL212550  13.381   0.662   6.400  0.5363  0.0897 -0.0356
  785loPI   C1A12551  13.115   0.201   6.656  0.0638 -0.3511  0.1859
  785loPI   C2A12552  13.167   0.150   7.010 -0.1804 -0.2738  0.1755
  785loPI   C3A12553  13.084   0.135   7.406  0.1007 -0.5819  0.0856
  785loPI   C4A12554  13.069   0.108   7.865  0.0658 -0.1566 -0.3011
  785loPI   C5A12555  12.815   0.058   8.197 -0.1142  0.0068  0.0854
  785loPI   C6A12556  12.409   0.451   8.274  0.1981 -0.1052 -0.2149
  785loPI   C1B12557  13.292   0.670   6.865 -0.0505 -0.1783  0.1075
  785loPI   C2B12558  13.193   0.621   7.187 -0.1379  0.1119 -0.0901
  785loPI   C3B12559  13.220   0.621   7.647 -0.1487 -0.0295  0.2285
  785loPI   C4B12560  13.249   0.594   8.019  0.4162 -0.1032  0.0443
  786loPI    C112561   4.112   9.522   5.022 -0.1950  0.0478 -0.0895
  786loPI    C212562   4.162   9.126   4.993  0.0277  0.0427  0.2917
  786loPI    C312563   4.118   9.347   4.662  0.0018 -0.2854  0.0710
  786loPI   PO412564   3.941   9.561   5.337 -0.0526 -0.0407  0.0693
  786loPI   GL112565   3.932   9.661   5.793 -0.3616 -0.2258 -0.2091
  786loPI   GL212566   3.682   9.649   5.775  0.1776 -0.4083 -0.1076
  786loPI   C1A12567   3.973   9.446   6.149 -0.0043 -0.0159  0.3597
  786loPI   C2A12568   3.858   9.406   6.605 -0.0418  0.0227 -0.0674
  786loPI   C3A12569   3.793   9.532   7.088 -0.1488  0.2553  0.2266
  786loPI   C4A12570   3.718   9.489   7.612  0.2613 -0.1451  0.0888
  786loPI   C5A12571   3.782   9.217   7.992  0.0272  0.1470  0.0297
  786loPI   C6A12572   3.630   8.942   8.325  0.3223 -0.3467  0.3743
  786loPI   C1B12573   3.654   9.840   6.180  0.0196 -0.2557  0.1093
  786loPI   C2B12574   3.599   9.883   6.595 -0.1096  0.2540 -0.0012
  786loPI   C3B12575   3.509   9.985   6.953  0.0753  0.0047  0.0570
  786loPI   C4B12576   3.454   9.879   7.314  0.0577  0.1191  0.0651
  787loPI    C112577  11.546  16.645   5.656 -0.1173  0.2848  0.1916
  787loPI    C212578  11.639  16.816   5.307  0.0792 -0.0575  0.0721
  787loPI    C312579  11.316  16.583   5.335  0.0651 -0.0323  0.1187
  787loPI   PO412580  11.688  16.748   5.801 -0.3821 -0.0681  0.2054
  787loPI   GL112581  11.732  17.001   6.168  0.1091 -0.1332  0.4263
  787loPI   GL212582  11.975  17.113   6.092 -0.0445  0.0127 -0.1848
  787loPI   C1A12583  11.612  16.930   6.685  0.0267 -0.1209  0.2493
  787loPI   C2A12584  11.616  16.868   7.130  0.0595  0.1460  0.2707
  787loPI   C3A12585  11.569  16.809   7.569  0.0065  0.0000  0.2383
  787loPI   C4A12586  11.491  16.699   8.000  0.1659 -0.0066  0.0419
  787loPI   C5A12587  11.337  16.331   8.164  0.1481 -0.2986  0.0968
  787loPI   C6A12588  11.324  16.165   8.529  0.0758 -0.0421 -0.1374
  787loPI   C1B12589  12.129  17.057   6.579  0.0961 -0.1120  0.1575
  787loPI   C2B12590  12.122  16.869   7.025  0.3134 -0.0102 -0.1832
  787loPI   C3B12591  12.025  16.972   7.492 -0.0538 -0.0738 -0.0174
  787loPI   C4B12592  12.112  16.790   7.886  0.0602 -0.1045  0.1601
  788loPI    C112593  11.017   6.845   5.549 -0.0357  0.1314  0.0753
  788loPI    C212594  11.027   6.467   5.420  0.0754  0.1673 -0.0237
  788loPI    C312595  10.737   6.713   5.297 -0.1306  0.0516  0.2218
  788loPI   PO412596  10.987   6.849   5.827 -0.4033 -0.0887 -0.4777
  788loPI   GL112597  11.214   6.977   6.113 -0.0209 -0.0238 -0.1100
  788loPI   GL212598  11.406   6.776   6.135 -0.1670  0.1318 -0.0349
  788loPI   C1A12599  11.158   7.188   6.539 -0.1232  0.0695  0.2704
  788loPI   C2A12600  11.038   7.207   6.951 -0.0362  0.0862 -0.0795
  788loPI   C3A12601  11.013   7.230   7.425 -0.0102  0.0726  0.3789
  788loPI   C4A12602  11.064   7.250   7.887  0.1819  0.2732  0.2491
  788loPI   C5A12603  11.150   7.535   8.318  0.0589  0.3468  0.2705
  788loPI   C6A12604  11.249   7.633   8.698  0.0154  0.1771  0.0904
  788loPI   C1B12605  11.340   6.711   6.564 -0.0978  0.1950  0.0876
  788loPI   C2B12606  11.316   6.752   6.942  0.0032  0.1498 -0.0116
  788loPI   C3B12607  11.311   6.848   7.360 -0.0648 -0.0718  0.6927
  788loPI   C4B12608  11.346   6.841   7.787 -0.0460  0.0039 -0.0374
  789loPI    C112609   3.772   1.942   5.487 -0.2382 -0.1063  0.1288
  789loPI    C212610   3.592   1.585   5.498 -0.2851 -0.0850  0.0544
  789loPI    C312611   3.486   1.855   5.222 -0.0675 -0.1108 -0.0567
  789loPI   PO412612   3.771   2.055   5.754  0.2112 -0.2551  0.0936
  789loPI   GL112613   3.939   1.816   6.044  0.0648 -0.0369  0.1158
  789loPI   GL212614   4.165   1.870   6.221  0.0678 -0.1339 -0.1746
  789loPI   C1A12615   3.559   1.848   6.386 -0.0401 -0.0014  0.1612
  789loPI   C2A12616   3.557   1.761   6.810  0.1488 -0.0845  0.0173
  789loPI   C3A12617   3.592   1.681   7.368 -0.1955 -0.2694  0.2780
  789loPI   C4A12618   3.550   1.675   7.790  0.0770  0.1685 -0.0715
  789loPI   C5A12619   3.778   1.580   8.221  0.1387 -0.0120  0.0744
  789loPI   C6A12620   4.210   1.730   8.471  0.1397  0.1650 -0.1460
  789loPI   C1B12621   4.078   1.768   6.632  0.1001  0.1725 -0.4292
  789loPI   C2B12622   3.994   1.775   7.056 -0.0257 -0.2069  0.0561
  789loPI   C3B12623   4.098   1.738   7.516 -0.0463 -0.1298 -0.4661
  789loPI   C4B12624   4.142   1.816   7.953  0.0804  0.1825  0.1642
  790loPI    C112625   4.521   0.629   5.339 -0.3394  0.0804 -0.0079
  790loPI    C212626   4.254   0.404   5.144 -0.0548  0.0319 -0.3537
  790loPI    C312627   4.498   0.647   4.940  0.0976  0.1519 -0.0358
  790loPI   PO412628   4.403   0.679   5.529  0.3597  0.2748  0.0941
  790loPI   GL112629   4.371   0.740   5.917  0.0651 -0.0313 -0.0407
  790loPI   GL212630   4.616   0.923   6.060  0.0830 -0.2161  0.0066
  790loPI   C1A12631   4.148   0.860   6.280 -0.0697  0.1086 -0.0406
  790loPI   C2A12632   4.177   0.950   6.694  0.1473  0.0391 -0.0612
  790loPI   C3A12633   4.169   0.933   7.099 -0.1460  0.0765 -0.0784
  790loPI   C4A12634   4.164   0.928   7.549  0.0977 -0.1089  0.2572
  790loPI   C5A12635   4.208   0.810   7.978 -0.1962 -0.0446 -0.0873
  790loPI   C6A12636   4.124   0.706   8.347 -0.0245  0.0565  0.1456
  790loPI   C1B12637   4.667   1.010   6.524 -0.0062  0.2080  0.2475
  790loPI   C2B12638   4.696   0.959   6.966  0.0796 -0.0463  0.1098
  790loPI   C3B12639   4.670   0.936   7.354  0.1772  0.2324  0.1863
  790loPI   C4B12640   4.658   0.966   7.903  0.0529  0.0862 -0.1418
  791loPI    C112641  17.274  14.008   5.554  0.0190  0.0646  0.0804
  791loPI    C212642  16.931  13.802   5.539  0.0101  0.0706  0.1901
  791loPI    C312643  17.076  13.974   5.208  0.1052 -0.2546  0.0586
  791loPI   PO412644  17.326  14.090   5.812  0.1931 -0.1219 -0.2070
  791loPI   GL112645  17.456  13.853   6.140 -0.0603  0.2441 -0.3311
  791loPI   GL212646  17.533  13.479   6.280 -0.0272 -0.2439 -0.0428
  791loPI   C1A12647  17.628  13.869   6.588 -0.2709  0.1032 -0.0853
  791loPI   C2A12648  17.681  13.871   7.054 -0.4910 -0.1040  0.0462
  791loPI   C3A12649  17.666  13.890   7.569 -0.3440 -0.1985 -0.0894
  791loPI   C4A12650  17.612  13.934   8.020 -0.0490 -0.1584 -0.2818
  791loPI   C5A12651  17.717  13.743   8.397  0.0151 -0.0772 -0.1347
  791loPI   C6A12652  17.717  13.369   8.531 -0.0595 -0.1068  0.3275
  791loPI   C1B12653  17.552  13.359   6.661 -0.1583  0.0135  0.1242
  791loPI   C2B12654  17.424  13.463   7.115  0.2443 -0.0026 -0.0702
  791loPI   C3B12655  17.451  13.432   7.559 -0.0703  0.0433 -0.0784
  791loPI   C4B12656  17.486  13.474   8.011  0.1700 -0.0984  0.1725
  792loPI    C112657  11.241   3.062   5.521  0.2160 -0.0857 -0.0175
  792loPI    C212658  11.435   3.191   5.195  0.1938 -0.1592 -0.0601
  792loPI    C312659  11.147   2.916   5.161  0.0235  0.0101 -0.0074
  792loPI   PO412660  11.406   3.006   5.696 -0.2225 -0.0736  0.1525
  792loPI   GL112661  11.284   3.200   6.109  0.1651  0.1034  0.1863
  792loPI   GL212662  11.331   2.914   6.160 -0.0279  0.0619 -0.0916
  792loPI   C1A12663  11.188   3.362   6.467  0.2085 -0.0997  0.0923
  792loPI   C2A12664  11.085   3.570   6.816 -0.1569 -0.3720  0.2473
  792loPI   C3A12665  11.082   3.574   7.241  0.0229  0.2679 -0.0004
  792loPI   C4A12666  11.074   3.708   7.699  0.1638 -0.0507 -0.3621
  792loPI   C5A12667  11.249   3.534   8.125  0.0007 -0.2771  0.0210
  792loPI   C6A12668  11.472   3.294   8.453  0.1052 -0.0312 -0.2334
  792loPI   C1B12669  11.399   2.937   6.584  0.1980 -0.1748 -0.1974
  792loPI   C2B12670  11.256   3.154   6.987  0.2077  0.0549  0.1774
  792loPI   C3B12671  11.319   3.181   7.482  0.2031 -0.0520  0.1200
  792loPI   C4B12672  11.089   3.169   7.881  0.0527  0.1075  0.3776
  793loPI    C112673   0.246  16.327   5.485  0.2515  0.0363 -0.0240
  793loPI    C212674   0.442  16.652   5.359  0.0354  0.1698 -0.0204
  793loPI    C312675   0.171  16.478   5.122 -0.0344  0.1447  0.0772
  793loPI   PO412676   0.355  16.373   5.796 -0.1909  0.1501 -0.0305
  793loPI   GL112677   0.520  16.536   6.176 -0.0233 -0.3114  0.2370
  793loPI   GL212678   0.841  16.366   6.332 -0.2335  0.0910  0.1208
  793loPI   C1A12679   0.574  16.532   6.685  0.0433  0.0496 -0.2890
  793loPI   C2A12680   0.599  16.597   7.032 -0.2193  0.0251 -0.1163
  793loPI   C3A12681   0.631  16.615   7.467  0.2406 -0.4166 -0.0505
  793loPI   C4A12682   0.562  16.718   7.952 -0.3477 -0.3983  0.0908
  793loPI   C5A12683   0.593  16.689   8.367  0.0597 -0.2073  0.1694
  793loPI   C6A12684   0.928  16.313   8.542  0.2130 -0.1316 -0.2476
  793loPI   C1B12685   0.874  16.207   6.829 -0.1833 -0.1538  0.3333
  793loPI   C2B12686   0.878  16.190   7.354  0.3174  0.1624  0.1543
  793loPI   C3B12687   0.943  16.262   7.759  0.0708  0.0862 -0.0815
  793loPI   C4B12688   0.875  16.298   8.051  0.0356 -0.0480 -0.3530
  794loPI    C112689  11.672  -0.092   5.436  0.1295  0.0240  0.0437
  794loPI    C212690  11.394   0.041   5.180  0.1723 -0.0279 -0.0301
  794loPI    C312691  11.783   0.078   5.091  0.1841 -0.2762 -0.0901
  794loPI   PO412692  11.415  -0.170   5.726  0.3711  0.1515  0.1523
  794loPI   GL112693  11.662  -0.242   6.042  0.0525 -0.0475 -0.0534
  794loPI   GL212694  11.637   0.035   6.267 -0.0140  0.1344  0.0479
  794loPI   C1A12695  11.358  -0.362   6.492  0.0809 -0.1542 -0.2068
  794loPI   C2A12696  11.286  -0.486   6.897 -0.0444 -0.1164 -0.2706
  794loPI   C3A12697  11.284  -0.462   7.408 -0.0001  0.0863  0.3014
  794loPI   C4A12698  11.275  -0.483   7.878 -0.1727 -0.4871  0.2400
  794loPI   C5A12699  11.300  -0.639   8.304  0.2586 -0.0093 -0.1233
  794loPI   C6A12700  11.159  -0.332   8.636  0.2326  0.2563  0.0772
  794loPI   C1B12701  11.593   0.053   6.739 -0.1705 -0.2168  0.0147
  794loPI   C2B12702  11.470  -0.022   7.185 -0.3094  0.0424  0.0976
  794loPI   C3B12703  11.411  -0.052   7.637 -0.0422  0.1999 -0.1327
  794loPI   C4B12704  11.305   0.029   8.047 -0.0291 -0.1841  0.0960
  795loPI    C112705  10.745  10.952   5.206 -0.3208  0.1163  0.1185
  795loPI    C212706  10.895  10.811   4.863 -0.1420  0.1292  0.1900
  795loPI    C312707  10.511  10.919   4.884 -0.1707  0.0646  0.0133
  795loPI   PO412708  10.825  10.719   5.414  0.1642 -0.1211 -0.5061
  795loPI   GL112709  10.734  10.581   5.836  0.0403  0.0104 -0.0199
  795loPI   GL212710  10.441  10.685   5.997  0.0300 -0.2934 -0.2734
  795loPI   C1A12711  10.986  10.796   6.306  0.1633 -0.2592 -0.2655
  795loPI   C2A12712  11.033  10.919   6.753  0.0606 -0.3417  0.0205
  795loPI   C3A12713  11.032  10.880   7.175  0.1644  0.2284 -0.0983
  795loPI   C4A12714  11.020  10.872   7.616 -0.1517 -0.1727 -0.0718
  795loPI   C5A12715  10.911  10.953   8.051 -0.0647  0.2042 -0.0342
  795loPI   C6A12716  10.496  11.128   8.251  0.1445  0.0604 -0.0415
  795loPI   C1B12717  10.520  10.788   6.437 -0.0124  0.1370 -0.1452
  795loPI   C2B12718  10.499  10.886   6.806 -0.3121  0.1064 -0.0112
  795loPI   C3B12719  10.459  10.781   7.236  0.0904  0.3259 -0.0765
  795loPI   C4B12720  10.479  10.860   7.722 -0.0760 -0.0002 -0.4005
  796loPI    C112721  12.301  17.370   5.559 -0.1615 -0.1710 -0.0188
  796loPI    C212722  12.225  17.723   5.387  0.0763 -0.0181  0.1814
  796loPI    C312723  12.051  17.390   5.248 -0.1556  0.1771 -0.0046
  796loPI   PO412724  12.244  17.352   5.786 -0.3549  0.0962  0.2860
  796loPI   GL112725  12.460  17.262   6.225 -0.0045 -0.1198  0.0999
  796loPI   GL212726  12.660  17.047   6.350  0.1219 -0.2196  0.0400
  796loPI   C1A12727  12.432  17.462   6.617  0.0328  0.2128  0.0403
  796loPI   C2A12728  12.379  17.402   7.016  0.1985 -0.1378  0.0454
  796loPI   C3A12729  12.293  17.397   7.395  0.1219  0.0234 -0.0866
  796loPI   C4A12730  12.255  17.365   7.750 -0.0141 -0.0687 -0.0881
  796loPI   C5A12731  12.226  17.198   8.148  0.1428 -0.1904  0.2330
  796loPI   C6A12732  12.437  17.024   8.454 -0.1513 -0.0214  0.2010
  796loPI   C1B12733  12.614  17.027   6.814 -0.1945 -0.2236  0.0536
  796loPI   C2B12734  12.600  16.988   7.196 -0.3957 -0.1118 -0.0147
  796loPI   C3B12735  12.532  16.979   7.593 -0.2384 -0.1760  0.0533
  796loPI   C4B12736  12.653  16.780   8.100  0.2415  0.3928  0.0281
  797loPI    C112737  17.525   0.634   5.551 -0.0123  0.1996 -0.0588
  797loPI    C212738  17.789   0.853   5.345  0.2625 -0.1127 -0.0478
  797loPI    C312739  17.686   0.489   5.215 -0.0697 -0.0451  0.0172
  797loPI   PO412740  17.624   0.595   5.835  0.1510 -0.0286 -0.0852
  797loPI   GL112741  17.475   0.585   6.200  0.0268 -0.1612  0.1708
  797loPI   GL212742  17.464   0.957   6.109  0.2692 -0.1674  0.2562
  797loPI   C1A12743  17.580   0.544   6.622 -0.0256  0.2812  0.1932
  797loPI   C2A12744  17.684   0.516   7.008 -0.0620 -0.1708 -0.3275
  797loPI   C3A12745  17.626   0.514   7.444 -0.2693  0.1954  0.4216
  797loPI   C4A12746  17.631   0.560   7.868 -0.0737  0.0275  0.3849
  797loPI   C5A12747  17.581   0.635   8.282  0.1959  0.1826  0.0901
  797loPI   C6A12748  17.266   0.869   8.387 -0.3580 -0.1397 -0.0263
  797loPI   C1B12749  17.319   0.973   6.576  0.2286  0.0381 -0.0621
  797loPI   C2B12750  17.350   0.914   7.089 -0.1785  0.0781  0.0393
  797loPI   C3B12751  17.372   0.967   7.538 -0.0001 -0.1798  0.2303
  797loPI   C4B12752  17.378   1.004   7.945 -0.1652 -0.0831  0.1433
  798loPI    C112753   0.921  14.335   5.404 -0.0886 -0.1445 -0.1495
  798loPI    C212754   1.260  14.446   5.224 -0.1542  0.0699 -0.1443
  798loPI    C312755   0.970  14.269   5.013 -0.1683  0.1790 -0.2175
  798loPI   PO412756   0.932  14.211   5.624  0.1111 -0.0794 -0.0499
  798loPI   GL112757   0.926  14.387   5.948  0.0068 -0.2587 -0.0851
  798loPI   GL212758   1.183  14.180   6.049  0.1832  0.0645 -0.1345
  798loPI   C1A12759   0.973  14.494   6.384 -0.1722 -0.0341  0.2097
  798loPI   C2A12760   1.076  14.473   6.785 -0.1556 -0.0292  0.1092
  798loPI   C3A12761   1.045  14.549   7.244 -0.1554  0.1795  0.1382
  798loPI   C4A12762   1.119  14.501   7.679 -0.1614  0.0588  0.0589
  798loPI   C5A12763   1.121  14.417   8.043 -0.1042  0.0398 -0.1672
  798loPI   C6A12764   0.993  14.510   8.469 -0.0905 -0.2400 -0.2910
  798loPI   C1B12765   1.351  14.113   6.437  0.1012 -0.2669 -0.1340
  798loPI   C2B12766   1.437  14.043   6.848  0.3738 -0.2310 -0.2368
  798loPI   C3B12767   1.396  14.091   7.279  0.1357  0.1629  0.2076
  798loPI   C4B12768   1.395  14.076   7.740  0.0142  0.1789 -0.0163
  799loPI    C112769  11.954   8.154   5.525  0.1883 -0.1663 -0.0365
  799loPI    C212770  12.157   8.419   5.305  0.0036 -0.0335 -0.0494
  799loPI    C312771  11.758   8.406   5.284 -0.0135 -0.0457  0.2486
  799loPI   PO412772  12.049   8.162   5.728 -0.3361  0.0333  0.0101
  799loPI   GL112773  11.776   8.107   6.080 -0.0868 -0.0953  0.0157
  799loPI   GL212774  12.020   8.269   6.193  0.0521  0.0317  0.1008
  799loPI   C1A12775  11.633   8.545   6.279  0.0919 -0.1528  0.1094
  799loPI   C2A12776  11.621   8.722   6.644 -0.0332  0.0220 -0.0049
  799loPI   C3A12777  11.583   8.713   7.082 -0.2514 -0.2936 -0.0609
  799loPI   C4A12778  11.567   8.641   7.502  0.3924  0.3030 -0.1704
  799loPI   C5A12779  11.583   8.739   7.868 -0.0151  0.1796  0.2066
  799loPI   C6A12780  11.537   8.791   8.212 -0.0733 -0.0194 -0.0570
  799loPI   C1B12781  11.966   8.171   6.698  0.0275 -0.2170  0.1087
  799loPI   C2B12782  11.930   8.264   7.138  0.4880  0.2444  0.0077
  799loPI   C3B12783  11.881   8.305   7.665  0.0367  0.1085 -0.0067
  799loPI   C4B12784  11.841   8.311   8.085 -0.0324 -0.1058  0.1345
  800loPI    C112785   9.622   6.881   5.276 -0.1000  0.0053  0.0576
  800loPI    C212786   9.350   6.979   5.000 -0.1372 -0.2486  0.0016
  800loPI    C312787   9.600   6.674   4.934  0.1901  0.0070  0.0351
  800loPI   PO412788   9.524   6.736   5.471 -0.0034 -0.0376  0.1960
  800loPI   GL112789   9.359   6.634   5.881  0.1048  0.2108 -0.1177
  800loPI   GL212790   9.172   6.889   5.877  0.1779 -0.3119 -0.1177
  800loPI   C1A12791   9.486   6.543   6.246  0.0636 -0.0073 -0.1031
  800loPI   C2A12792   9.376   6.476   6.660  0.0731 -0.2876 -0.1176
  800loPI   C3A12793   9.339   6.614   7.045  0.1105 -0.0977  0.1865
  800loPI   C4A12794   9.361   6.619   7.406  0.0066  0.0088  0.1506
  800loPI   C5A12795   9.293   6.522   7.837 -0.4324 -0.2047  0.0456
  800loPI   C6A12796   9.306   6.735   8.089 -0.0062 -0.2745  0.0324
  800loPI   C1B12797   9.114   6.887   6.288 -0.0227 -0.1438 -0.0600
  800loPI   C2B12798   9.058   6.903   6.712  0.1036 -0.0673 -0.1218
  800loPI   C3B12799   8.956   7.023   7.058 -0.0200  0.1684  0.1967
  800loPI   C4B12800   9.045   7.012   7.512  0.0726 -0.2313 -0.3062
  801loPI    C112801  15.686  13.151   6.048 -0.1739 -0.0106 -0.0000
  801loPI    C212802  15.781  12.947   5.718 -0.2819  0.0107 -0.0448
  801loPI    C312803  15.672  13.331   5.691 -0.3646 -0.0089  0.0068
  801loPI   PO412804  15.828  12.949   6.227  0.1456 -0.0060  0.0493
  801loPI   GL112805  15.746  12.758   6.582  0.1281 -0.2556  0.0878
  801loPI   GL212806  16.054  12.770   6.753 -0.3478 -0.0156  0.0876
  801loPI   C1A12807  15.657  12.711   6.985  0.0138 -0.0719 -0.0989
  801loPI   C2A12808  15.674  12.779   7.469 -0.3625 -0.0412  0.0619
  801loPI   C3A12809  15.662  12.709   7.930 -0.4213 -0.1704  0.2394
  801loPI   C4A12810  15.757  12.714   8.355 -0.0077 -0.1560 -0.0042
  801loPI   C5A12811  15.486  12.591   8.648  0.1014 -0.0917  0.0916
  801loPI   C6A12812  15.480  12.594   9.062  0.1978 -0.3042  0.2137
  801loPI   C1B12813  16.158  12.835   7.122  0.3621 -0.2222  0.1297
  801loPI   C2B12814  16.192  12.866   7.540  0.0474 -0.1409 -0.1565
  801loPI   C3B12815  16.144  12.796   7.995  0.1522  0.1193 -0.4979
  801loPI   C4B12816  16.214  12.535   8.432  0.0177 -0.0628  0.0924
  802loPI    C112817   7.690   5.402   5.040  0.0674  0.0161 -0.0938
  802loPI    C212818   7.499   5.702   4.858  0.0739 -0.0282 -0.1743
  802loPI    C312819   7.783   5.500   4.663 -0.0431 -0.1918 -0.1771
  802loPI   PO412820   7.443   5.355   5.207 -0.3845 -0.1559 -0.0122
  802loPI   GL112821   7.425   5.167   5.644  0.0073 -0.1115  0.0863
  802loPI   GL212822   7.370   5.501   5.656  0.2806 -0.2683 -0.1712
  802loPI   C1A12823   7.473   5.297   6.098 -0.2261 -0.3400 -0.0222
  802loPI   C2A12824   7.468   5.364   6.599  0.0925  0.3266  0.3177
  802loPI   C3A12825   7.504   5.443   6.935 -0.1458 -0.0442  0.1190
  802loPI   C4A12826   7.514   5.316   7.302 -0.1394  0.0631 -0.1788
  802loPI   C5A12827   7.394   5.396   7.687 -0.3584  0.1476 -0.0193
  802loPI   C6A12828   7.395   5.493   8.051  0.0014  0.1280 -0.1466
  802loPI   C1B12829   7.228   5.729   6.114  0.0001 -0.2672 -0.0690
  802loPI   C2B12830   7.169   5.773   6.583  0.0685 -0.2919 -0.0192
  802loPI   C3B12831   7.137   5.776   7.003  0.0579  0.2306  0.1986
  802loPI   C4B12832   7.096   5.801   7.464  0.0553 -0.2258  0.1987
  803loPI    C112833   9.357   5.488   5.168 -0.0884  0.3278 -0.1523
  803loPI    C212834   9.095   5.329   4.911 -0.0855  0.0999 -0.0179
  803loPI    C312835   9.264   5.683   4.832 -0.0327  0.0013 -0.3618
  803loPI   PO412836   9.297   5.215   5.439 -0.0679 -0.0029  0.1764
  803loPI   GL112837   9.527   5.236   5.808 -0.1078 -0.0078  0.2637
  803loPI   GL212838   9.235   5.175   5.937  0.1844  0.0446  0.1887
  803loPI   C1A12839   9.726   5.228   6.185 -0.0589 -0.3813  0.1835
  803loPI   C2A12840   9.838   5.188   6.441  0.2210 -0.1723 -0.2911
  803loPI   C3A12841   9.808   5.213   6.899 -0.1552 -0.1016  0.1094
  803loPI   C4A12842   9.760   5.223   7.353  0.2134 -0.0234 -0.1069
  803loPI   C5A12843   9.770   5.382   7.862  0.0551  0.1128  0.0761
  803loPI   C6A12844   9.813   5.449   8.399  0.1662  0.1552 -0.0178
  803loPI   C1B12845   9.263   5.039   6.316 -0.2227  0.0245 -0.0304
  803loPI   C2B12846   9.362   5.206   6.641  0.0284 -0.0821 -0.0743
  803loPI   C3B12847   9.312   5.160   7.075  0.0636 -0.2009 -0.3836
  803loPI   C4B12848   9.253   5.193   7.363 -0.1113  0.0154 -0.4709
  804loPI    C112849   4.948  12.371   5.343  0.0246 -0.0981  0.1549
  804loPI    C212850   4.842  12.715   5.169  0.2100 -0.1135  0.0078
  804loPI    C312851   4.792  12.369   4.974 -0.0350 -0.1783  0.1800
  804loPI   PO412852   4.888  12.348   5.557 -0.1498 -0.0886 -0.0885
  804loPI   GL112853   4.970  12.201   5.996 -0.1797  0.1381  0.1777
  804loPI   GL212854   4.686  12.305   6.141  0.2923  0.1153  0.1015
  804loPI   C1A12855   5.063  12.302   6.486  0.1223 -0.0843  0.2190
  804loPI   C2A12856   5.007  12.340   6.844 -0.1325  0.0395  0.0748
  804loPI   C3A12857   4.908  12.338   7.211 -0.2300 -0.2216  0.0441
  804loPI   C4A12858   4.993  12.281   7.509  0.0142 -0.1213 -0.0253
  804loPI   C5A12859   5.091  12.249   7.964 -0.2542  0.1398 -0.3723
  804loPI   C6A12860   5.502  12.317   8.156  0.0853 -0.0072  0.0940
  804loPI   C1B12861   4.507  12.224   6.630 -0.0703  0.0139  0.4548
  804loPI   C2B12862   4.426  12.276   7.036  0.0629 -0.0331 -0.0840
  804loPI   C3B12863   4.495  12.293   7.468  0.1355  0.1511 -0.1805
  804loPI   C4B12864   4.596  12.175   7.859  0.0082 -0.0816 -0.0097
  805loPI    C112865  16.983   5.568   5.319  0.0014 -0.3124 -0.0211
  805loPI    C212866  16.715   5.346   5.121 -0.3857  0.1090  0.0133
  805loPI    C312867  16.762   5.733   5.029  0.0849  0.0873  0.1359
  805loPI   PO412868  16.909   5.586   5.564  0.0856 -0.2715 -0.1841
  805loPI   GL112869  16.901   5.474   5.938 -0.1352 -0.0160  0.0478
  805loPI   GL212870  16.789   5.243   6.056 -0.0354  0.1972  0.2191
  805loPI   C1A12871  16.683   5.736   6.268 -0.1742  0.2243 -0.0166
  805loPI   C2A12872  16.620   5.718   6.688 -0.0530 -0.0942  0.2311
  805loPI   C3A12873  16.560   5.783   7.151 -0.0996  0.1136  0.2941
  805loPI   C4A12874  16.527   5.875   7.605  0.0529  0.1561  0.0727
  805loPI   C5A12875  16.752   5.705   8.044 -0.1520  0.3429  0.0392
  805loPI   C6A12876  16.942   5.504   8.221 -0.1679 -0.2064 -0.1470
  805loPI   C1B12877  16.978   5.315   6.491  0.1529  0.2148 -0.0648
  805loPI   C2B12878  16.882   5.401   6.989  0.3028  0.4515  0.1781
  805loPI   C3B12879  16.936   5.336   7.340 -0.2906  0.0741 -0.1359
  805loPI   C4B12880  16.945   5.358   7.754 -0.0063 -0.1714 -0.0832
  806loPI    C112881   7.760  12.581   5.500  0.1247  0.1722  0.0018
  806loPI    C212882   7.931  12.772   5.193  0.1194 -0.0053 -0.1135
  806loPI    C312883   7.590  12.570   5.137  0.0719  0.0338  0.0300
  806loPI   PO412884   8.007  12.545   5.709 -0.0089  0.0334  0.0109
  806loPI   GL112885   8.161  12.598   6.091  0.0488 -0.2665  0.1448
  806loPI   GL212886   8.030  12.855   6.133  0.2664  0.3917  0.3185
  806loPI   C1A12887   8.353  12.398   6.364 -0.2422 -0.2486  0.2366
  806loPI   C2A12888   8.311  12.387   6.779  0.0450  0.0915  0.2512
  806loPI   C3A12889   8.281  12.421   7.225  0.1224  0.2673 -0.1680
  806loPI   C4A12890   8.290  12.356   7.634  0.0058 -0.0065  0.2296
  806loPI   C5A12891   8.319  12.240   8.091 -0.1124 -0.0622  0.0519
  806loPI   C6A12892   8.307  12.005   8.470  0.1107 -0.1252  0.0176
  806loPI   C1B12893   8.134  12.798   6.610  0.0654  0.0741 -0.4055
  806loPI   C2B12894   8.051  12.822   7.130  0.2340  0.0837 -0.4203
  806loPI   C3B12895   7.887  12.666   7.537 -0.0579  0.3344  0.0126
  806loPI   C4B12896   8.049  12.767   7.926  0.0657 -0.0844 -0.1712
  807loPI    C112897  12.293   5.862   5.643  0.1503  0.1067  0.1252
  807loPI    C212898  12.630   5.881   5.429  0.0761 -0.0790 -0.0107
  807loPI    C312899  12.281   5.984   5.263  0.0505  0.0114  0.0974
  807loPI   PO412900  12.505   5.810   5.896  0.1130  0.1497 -0.0804
  807loPI   GL112901  12.548   6.056   6.129  0.1583  0.1148 -0.3766
  807loPI   GL212902  12.628   6.344   6.193 -0.1609 -0.1745  0.1424
  807loPI   C1A12903  12.469   6.062   6.548 -0.0639  0.1459 -0.1783
  807loPI   C2A12904  12.532   6.124   6.911 -0.2107  0.2153  0.1736
  807loPI   C3A12905  12.488   6.110   7.347  0.2931 -0.1186 -0.3485
  807loPI   C4A12906  12.414   6.104   7.773 -0.2671 -0.2319 -0.3619
  807loPI   C5A12907  12.477   6.224   8.202  0.2820  0.1390  0.0193
  807loPI   C6A12908  12.761   5.918   8.490 -0.0037  0.0722  0.0233
  807loPI   C1B12909  12.643   6.527   6.613 -0.3284  0.0849 -0.2017
  807loPI   C2B12910  12.741   6.552   7.051  0.1169 -0.2255  0.1576
  807loPI   C3B12911  12.703   6.581   7.537  0.2745  0.2271 -0.1323
  807loPI   C4B12912  12.624   6.640   7.933 -0.1178  0.0170 -0.0997
  808loPI    C112913  15.405   8.568   5.457  0.0025  0.0061  0.1369
  808loPI    C212914  15.730   8.755   5.317 -0.2541  0.2814 -0.1043
  808loPI    C312915  15.366   8.872   5.200 -0.4313 -0.2507 -0.1129
  808loPI   PO412916  15.450   8.515   5.644  0.0623  0.1580 -0.2155
  808loPI   GL112917  15.522   8.588   6.097 -0.0047 -0.0563  0.1713
  808loPI   GL212918  15.330   8.343   6.209 -0.0735 -0.3264 -0.2390
  808loPI   C1A12919  15.561   8.727   6.477 -0.1302 -0.0923 -0.1552
  808loPI   C2A12920  15.518   8.694   6.980  0.0136  0.1077 -0.0240
  808loPI   C3A12921  15.415   8.751   7.383 -0.0276 -0.2741  0.4074
  808loPI   C4A12922  15.384   8.774   7.794 -0.1060  0.3454  0.0892
  808loPI   C5A12923  15.409   8.737   8.226  0.3831 -0.0194  0.2181
  808loPI   C6A12924  15.339   9.034   8.543  0.2045 -0.0560 -0.0500
  808loPI   C1B12925  15.331   8.195   6.665 -0.0033  0.0047 -0.0369
  808loPI   C2B12926  15.360   8.230   7.074  0.1654  0.0485 -0.2013
  808loPI   C3B12927  15.233   8.264   7.527  0.2781 -0.0777  0.2662
  808loPI   C4B12928  15.205   8.277   8.018 -0.0618 -0.1434  0.0443
  809loPI    C112929   3.465   5.747   5.641  0.1434  0.1507 -0.1253
  809loPI    C212930   3.467   5.951   5.986  0.1710  0.1262 -0.1109
  809loPI    C312931   3.194   6.034   5.705 -0.1470 -0.1663  0.1037
  809loPI   PO412932   3.772   5.704   5.671  0.0428 -0.0906  0.0414
  809loPI   GL112933   3.972   5.849   5.951  0.0949  0.4235 -0.0749
  809loPI   GL212934   4.063   6.115   5.949  0.0144 -0.0002  0.4353
  809loPI   C1A12935   3.783   5.796   6.343 -0.3030  0.1807 -0.0696
  809loPI   C2A12936   3.738   5.816   6.637 -0.0987  0.0215 -0.0269
  809loPI   C3A12937   3.737   5.810   7.039  0.0466  0.0965  0.0416
  809loPI   C4A12938   3.771   5.858   7.468  0.0404 -0.0722  0.0657
  809loPI   C5A12939   3.796   5.845   7.844  0.0126  0.2421 -0.0215
  809loPI   C6A12940   3.840   5.969   8.185  0.1842  0.1975 -0.0304
  809loPI   C1B12941   3.977   6.234   6.342 -0.1159  0.0496  0.1183
  809loPI   C2B12942   3.945   6.363   6.711 -0.0646  0.0002  0.2112
  809loPI   C3B12943   3.955   6.293   7.096  0.3883  0.0598 -0.1264
  809loPI   C4B12944   3.952   6.280   7.567 -0.0363  0.1454  0.1726
  810loPI    C112945   7.198  13.831   5.620 -0.1151  0.0591 -0.0434
  810loPI    C212946   7.125  14.026   5.278 -0.4957  0.0571  0.0326
  810loPI    C312947   7.256  13.648   5.269 -0.1254  0.1845 -0.1113
  810loPI   PO412948   6.972  13.906   5.753  0.2194  0.3277  0.0986
  810loPI   GL112949   6.881  14.168   6.114  0.1585  0.2898 -0.2216
  810loPI   GL212950   6.635  14.029   6.192 -0.1328  0.1741 -0.2809
  810loPI   C1A12951   6.786  14.432   6.497 -0.1987  0.0977  0.2676
  810loPI   C2A12952   6.760  14.382   6.930  0.1003 -0.2110 -0.0591
  810loPI   C3A12953   6.740  14.372   7.451  0.2214 -0.1138  0.1475
  810loPI   C4A12954   6.714  14.318   7.924 -0.1813 -0.2271 -0.0934
  810loPI   C5A12955   6.772  14.013   8.233  0.1234  0.0222 -0.0320
  810loPI   C6A12956   6.791  14.077   8.643 -0.1914  0.0251 -0.2347
  810loPI   C1B12957   6.649  13.954   6.595 -0.1038 -0.1678 -0.0677
  810loPI   C2B12958   6.592  13.949   7.028 -0.0073 -0.0607 -0.2490
  810loPI   C3B12959   6.505  13.960   7.535 -0.1233 -0.3223 -0.1105
  810loPI   C4B12960   6.486  13.785   7.945 -0.2005 -0.1417 -0.0984
  811loPI    C112961   8.547   4.154   5.433  0.1232  0.0241  0.0136
  811loPI    C212962   8.494   4.479   5.206  0.0021  0.0675  0.1028
  811loPI    C312963   8.680   4.158   5.056 -0.0228  0.1181 -0.0379
  811loPI   PO412964   8.327   4.158   5.561  0.1382 -0.1176  0.0794
  811loPI   GL112965   8.299   4.255   5.946  0.2447 -0.1564 -0.0959
  811loPI   GL212966   8.050   4.523   5.940  0.1308 -0.1596 -0.0133
  811loPI   C1A12967   8.422   4.054   6.411 -0.0120 -0.1937  0.0264
  811loPI   C2A12968   8.389   4.177   6.883 -0.0053 -0.0976  0.1190
  811loPI   C3A12969   8.417   4.150   7.366  0.1324  0.1967  0.1531
  811loPI   C4A12970   8.475   4.088   7.747  0.1711 -0.1585  0.0147
  811loPI   C5A12971   8.420   4.290   8.098 -0.0281  0.2411  0.1183
  811loPI   C6A12972   8.006   4.525   8.343  0.0482 -0.0050  0.0917
  811loPI   C1B12973   8.104   4.502   6.372 -0.0288  0.1146 -0.0928
  811loPI   C2B12974   8.040   4.566   6.793  0.1059 -0.1433 -0.0816
  811loPI   C3B12975   8.058   4.478   7.254  0.0311  0.0674 -0.1482
  811loPI   C4B12976   8.037   4.526   7.652  0.3662  0.1502 -0.1839
  812loPI    C112977   3.942   8.218   5.305 -0.0623  0.0414  0.3748
  812loPI    C212978   3.668   8.499   5.227 -0.0131 -0.0438 -0.1438
  812loPI    C312979   3.585   8.114   5.158 -0.0034 -0.1444  0.3616
  812loPI   PO412980   3.966   8.254   5.556  0.1702 -0.1354  0.1915
  812loPI   GL112981   4.245   8.462   5.914  0.1047 -0.2484  0.1692
  812loPI   GL212982   4.018   8.630   5.983  0.1204 -0.0013  0.0092
  812loPI   C1A12983   4.454   8.585   6.305 -0.1982  0.2742 -0.3209
  812loPI   C2A12984   4.525   8.573   6.657  0.1588  0.0056  0.2660
  812loPI   C3A12985   4.512   8.613   7.059  0.0878 -0.2422 -0.0663
  812loPI   C4A12986   4.434   8.605   7.497 -0.0070 -0.4870 -0.1830
  812loPI   C5A12987   4.482   8.451   7.925  0.3446 -0.3853 -0.1780
  812loPI   C6A12988   4.168   8.371   8.325 -0.0283 -0.0657 -0.1421
  812loPI   C1B12989   3.965   8.494   6.360 -0.1812 -0.0078  0.1234
  812loPI   C2B12990   3.996   8.550   6.882  0.1542 -0.2788  0.0320
  812loPI   C3B12991   3.976   8.534   7.358  0.0968  0.1375 -0.0868
  812loPI   C4B12992   3.943   8.497   7.707 -0.0754 -0.0661  0.0502
  813loPI    C112993   9.411   8.971   5.405  0.2945  0.0275 -0.1905
  813loPI    C212994   9.240   9.266   5.195  0.1934 -0.0569 -0.2275
  813loPI    C312995   9.200   8.886   5.076 -0.0282 -0.1244  0.0498
  813loPI   PO412996   9.274   9.072   5.669 -0.2757 -0.0377 -0.3784
  813loPI   GL112997   9.349   9.138   6.000  0.2392 -0.0470 -0.0409
  813loPI   GL212998   9.116   9.248   6.131 -0.0368 -0.1979  0.2888
  813loPI   C1A12999   9.374   8.808   6.304  0.0259 -0.2065  0.0939
  813loPI   C2A13000   9.397   8.749   6.705  0.0976  0.0431 -0.0346
  813loPI   C3A13001   9.323   8.914   7.094  0.1495 -0.0193  0.1965
  813loPI   C4A13002   9.290   8.948   7.594 -0.2180 -0.3205 -0.1031
  813loPI   C5A13003   9.198   8.718   7.870  0.1771 -0.0358  0.0069
  813loPI   C6A13004   8.760   8.614   8.145 -0.1970  0.0454 -0.2417
  813loPI   C1B13005   9.021   9.222   6.494  0.0946 -0.1361 -0.3100
  813loPI   C2B13006   9.030   9.177   6.881 -0.0157 -0.1172  0.0404
  813loPI   C3B13007   8.990   9.277   7.303 -0.2502  0.1194 -0.1646
  813loPI   C4B13008   8.848   9.240   7.714  0.0889  0.1335  0.0337
  814loPI    C113009  16.390   1.011   5.361  0.0246 -0.4346  0.2846
  814loPI    C213010  16.775   0.973   5.462  0.1746  0.1919 -0.0013
  814loPI    C313011  16.666   0.944   5.079 -0.0313  0.2382  0.0526
  814loPI   PO413012  16.341   1.223   5.608 -0.3604 -0.2662  0.0571
  814loPI   GL113013  16.383   1.244   6.039 -0.0677  0.0948 -0.0867
  814loPI   GL213014  16.094   1.257   6.125 -0.0638  0.0531 -0.1212
  814loPI   C1A13015  16.591   1.440   6.425 -0.1286  0.2341  0.1838
  814loPI   C2A13016  16.600   1.338   6.799 -0.0989 -0.3085  0.0807
  814loPI   C3A13017  16.568   1.319   7.171 -0.2867  0.1064 -0.0205
  814loPI   C4A13018  16.515   1.358   7.615 -0.0694 -0.0262 -0.0897
  814loPI   C5A13019  16.571   1.260   8.060  0.1159  0.1871  0.2741
  814loPI   C6A13020  16.789   1.147   8.402  0.1931  0.0085 -0.1692
  814loPI   C1B13021  16.072   1.230   6.570 -0.0521 -0.2658  0.0577
  814loPI   C2B13022  16.017   1.270   7.065  0.0130  0.0372  0.1539
  814loPI   C3B13023  15.985   1.230   7.549 -0.1138  0.0148  0.1042
  814loPI   C4B13024  15.953   1.270   8.000 -0.1290  0.2973 -0.0601
  815loPI    C113025  10.420   4.836   5.182 -0.0842 -0.0674  0.1510
  815loPI    C213026  10.604   4.536   4.993  0.0943  0.0993  0.0571
  815loPI    C313027  10.372   4.789   4.787  0.2529  0.2542  0.0665
  815loPI   PO413028  10.280   4.835   5.437 -0.1829 -0.0539  0.0853
  815loPI   GL113029  10.045   4.813   5.811 -0.0154  0.0216  0.1637
  815loPI   GL213030   9.706   4.640   5.894 -0.1380  0.3488  0.0791
  815loPI   C1A13031  10.122   4.786   6.196 -0.0355  0.1118  0.3339
  815loPI   C2A13032  10.140   4.762   6.642 -0.0635  0.0509 -0.0645
  815loPI   C3A13033  10.079   4.845   7.069  0.1965 -0.2826 -0.0396
  815loPI   C4A13034  10.187   4.859   7.484 -0.1961 -0.2427 -0.0273
  815loPI   C5A13035  10.087   4.840   7.953 -0.0960  0.2265 -0.0034
  815loPI   C6A13036  10.095   5.043   8.433 -0.1238  0.0602 -0.0145
  815loPI   C1B13037   9.690   4.680   6.307 -0.1241 -0.0522  0.0639
  815loPI   C2B13038   9.565   4.805   6.709 -0.1877  0.5300 -0.0381
  815loPI   C3B13039   9.569   4.752   7.186 -0.0051 -0.0491 -0.0867
  815loPI   C4B13040   9.708   4.770   7.611  0.0214 -0.1683  0.0428
  816loPI    C113041  13.151  11.073   6.016 -0.2555  0.0263 -0.0800
  816loPI    C213042  12.974  11.147   5.665  0.1181 -0.0875 -0.2969
  816loPI    C313043  13.256  10.864   5.691  0.3956  0.2082  0.0005
  816loPI   PO413044  13.201  11.240   6.134 -0.0404 -0.0744 -0.1701
  816loPI   GL113045  13.035  11.342   6.434  0.0942  0.2914 -0.1297
  816loPI   GL213046  12.955  11.129   6.545  0.2879 -0.1370 -0.4353
  816loPI   C1A13047  13.345  11.551   6.722 -0.0611 -0.0409  0.0646
  816loPI   C2A13048  13.334  11.579   7.139  0.1760  0.0448  0.2899
  816loPI   C3A13049  13.767  11.611   7.370  0.0693  0.1784 -0.0567
  816loPI   C4A13050  14.169  11.692   7.336 -0.4137 -0.1000 -0.1032
  816loPI   C5A13051  14.492  11.737   7.219 -0.0371 -0.0901 -0.2658
  816loPI   C6A13052  14.813  11.684   7.408  0.2327 -0.0063  0.1215
  816loPI   C1B13053  13.159  11.095   6.917 -0.2145 -0.0757 -0.2902
  816loPI   C2B13054  13.082  11.086   7.261 -0.3987 -0.1223  0.0552
  816loPI   C3B13055  13.018  11.079   7.644 -0.3131  0.1622  0.1626
  816loPI   C4B13056  13.116  11.249   7.990 -0.4507  0.3171  0.0475
  817loPI    C113057  10.297  12.570   5.227 -0.0776 -0.0301 -0.0067
  817loPI    C213058  10.063  12.553   4.903  0.1111  0.0727 -0.1504
  817loPI    C313059  10.446  12.664   4.868  0.0919  0.2380  0.1303
  817loPI   PO413060  10.123  12.820   5.398  0.1610  0.0533  0.0084
  817loPI   GL113061  10.002  12.776   5.861 -0.1325 -0.2102 -0.1960
  817loPI   GL213062   9.689  12.772   5.997 -0.2315 -0.0939 -0.0812
  817loPI   C1A13063  10.135  12.931   6.207 -0.1977  0.0129 -0.1052
  817loPI   C2A13064  10.128  12.990   6.645 -0.2260 -0.0013 -0.1567
  817loPI   C3A13065  10.028  13.011   7.029  0.0777 -0.1965  0.0828
  817loPI   C4A13066  10.060  13.022   7.473 -0.0681 -0.0646 -0.1648
  817loPI   C5A13067  10.025  13.007   7.937  0.1586 -0.3781 -0.0456
  817loPI   C6A13068   9.768  13.194   8.160  0.0733  0.0760  0.0729
  817loPI   C1B13069   9.622  12.856   6.402  0.0449  0.0632 -0.0462
  817loPI   C2B13070   9.580  12.939   6.880 -0.1696 -0.1657 -0.2024
  817loPI   C3B13071   9.608  12.958   7.280 -0.0025  0.0383  0.2335
  817loPI   C4B13072   9.454  12.931   7.760  0.3825 -0.1835 -0.3111
  818loPI    C113073   9.820   2.005   5.616  0.0647  0.0124 -0.2180
  818loPI    C213074   9.536   2.267   5.515  0.0649  0.1256  0.0676
  818loPI    C313075   9.898   2.291   5.348 -0.0472  0.0715 -0.1879
  818loPI   PO413076   9.763   1.972   5.888  0.3218  0.0054 -0.0597
  818loPI   GL113077   9.811   2.259   6.226  0.0739 -0.2437 -0.0253
  818loPI   GL213078   9.615   2.351   6.451 -0.0393 -0.1416 -0.1633
  818loPI   C1A13079   9.960   2.035   6.617  0.3020  0.3131  0.0980
  818loPI   C2A13080   9.875   2.092   7.018 -0.3146  0.0010 -0.3513
  818loPI   C3A13081   9.875   2.049   7.464 -0.0897  0.2342  0.0987
  818loPI   C4A13082  10.025   2.053   7.848 -0.2315  0.2437 -0.0479
  818loPI   C5A13083  10.250   2.171   8.177 -0.4644 -0.2036  0.0850
  818loPI   C6A13084  10.388   2.640   8.227 -0.1271 -0.0755  0.0279
  818loPI   C1B13085   9.644   2.521   6.860 -0.3037  0.0196  0.0779
  818loPI   C2B13086   9.674   2.502   7.268  0.1927  0.2631  0.0566
  818loPI   C3B13087   9.895   2.505   7.594  0.0542  0.0965  0.1708
  818loPI   C4B13088   9.972   2.564   7.999 -0.1099  0.0963 -0.0857
  819loPI    C113089  16.757  13.380   5.771  0.1576  0.1242 -0.1931
  819loPI    C213090  16.584  13.417   5.412 -0.0931  0.0023 -0.0878
  819loPI    C313091  16.698  13.056   5.544  0.1784  0.0720 -0.1249
  819loPI   PO413092  16.625  13.542   5.952  0.1558 -0.0198  0.3615
  819loPI   GL113093  16.499  13.636   6.367 -0.0351 -0.0629  0.1537
  819loPI   GL213094  16.311  13.821   6.253 -0.1841 -0.0269  0.2690
  819loPI   C1A13095  16.558  13.683   6.745 -0.0058 -0.0563 -0.1648
  819loPI   C2A13096  16.632  13.799   7.152  0.0188  0.1885 -0.0170
  819loPI   C3A13097  16.691  13.762   7.524 -0.1194 -0.0039 -0.0688
  819loPI   C4A13098  16.499  13.793   7.901  0.2876 -0.0915  0.0252
  819loPI   C5A13099  16.446  13.784   8.281 -0.0757  0.2159 -0.0226
  819loPI   C6A13100  16.132  13.720   8.453  0.0518  0.1406  0.1233
  819loPI   C1B13101  16.059  13.727   6.642  0.2265  0.0711  0.1911
  819loPI   C2B13102  16.062  13.725   7.093  0.0916  0.1058 -0.1109
  819loPI   C3B13103  16.149  13.669   7.549 -0.0946  0.1552  0.4953
  819loPI   C4B13104  15.998  13.722   7.984  0.0299 -0.1099  0.1628
  820loPI    C113105   4.199   1.575   5.412  0.4374  0.0236 -0.0452
  820loPI    C213106   3.933   1.629   5.117  0.0575 -0.2189  0.2428
  820loPI    C313107   4.285   1.454   5.040  0.1923  0.2084 -0.1654
  820loPI   PO413108   4.066   1.528   5.694  0.2536  0.2071 -0.2144
  820loPI   GL113109   3.859   1.297   6.057  0.0270  0.1049  0.4007
  820loPI   GL213110   4.260   1.264   6.093 -0.2245 -0.3020 -0.0935
  820loPI   C1A13111   3.825   1.314   6.472 -0.0406 -0.1742  0.0006
  820loPI   C2A13112   3.838   1.288   6.887 -0.0496  0.0051 -0.2071
  820loPI   C3A13113   3.895   1.294   7.351 -0.1020 -0.0246  0.1932
  820loPI   C4A13114   3.984   1.291   7.889 -0.1275 -0.0837  0.0133
  820loPI   C5A13115   4.209   1.250   8.209 -0.0455  0.2436 -0.2683
  820loPI   C6A13116   4.198   1.238   8.607  0.1344 -0.1285  0.2409
  820loPI   C1B13117   4.327   1.367   6.480  0.0894 -0.1568  0.1250
  820loPI   C2B13118   4.358   1.425   6.954  0.1052 -0.0232 -0.0957
  820loPI   C3B13119   4.410   1.336   7.387 -0.2980  0.0627  0.0664
  820loPI   C4B13120   4.447   1.441   7.785  0.1188  0.1361 -0.1355
  821loPI    C113121   5.885  17.473   5.579  0.0902 -0.1493 -0.1404
  821loPI    C213122   5.528  17.505   5.402 -0.0362 -0.2106  0.0997
  821loPI    C313123   5.860  17.603   5.202 -0.1745 -0.2920 -0.1742
  821loPI   PO413124   5.871  17.300   5.727  0.2034 -0.0235  0.0898
  821loPI   GL113125   6.010  17.117   6.094 -0.1403 -0.2793 -0.0763
  821loPI   GL213126   6.025  17.408   6.196 -0.0196 -0.1409  0.0318
  821loPI   C1A13127   5.909  17.002   6.536  0.0921 -0.3066  0.0703
  821loPI   C2A13128   5.933  16.978   6.949  0.0706 -0.1134 -0.1547
  821loPI   C3A13129   5.903  16.990   7.377 -0.0083  0.0467 -0.0044
  821loPI   C4A13130   5.917  16.994   7.816 -0.1841  0.0637  0.0479
  821loPI   C5A13131   5.756  17.297   8.170  0.0775 -0.0153  0.1487
  821loPI   C6A13132   5.814  17.734   8.249 -0.2135 -0.1334 -0.3251
  821loPI   C1B13133   6.084  17.548   6.639  0.1458 -0.3080  0.2796
  821loPI   C2B13134   6.142  17.535   7.014  0.0637  0.2911 -0.2365
  821loPI   C3B13135   6.138  17.482   7.479  0.2125  0.1644 -0.1882
  821loPI   C4B13136   6.100  17.473   7.894 -0.1672  0.0097  0.1398
  822loPI    C113137  15.181   9.955   5.548 -0.0872 -0.2855 -0.0398
  822loPI    C213138  15.122  10.208   5.244  0.4568 -0.0918  0.0052
  822loPI    C313139  15.141   9.815   5.176 -0.4382 -0.1431 -0.0594
  822loPI   PO413140  15.349   9.991   5.701  0.0958 -0.1554 -0.0824
  822loPI   GL113141  15.448   9.907   6.025 -0.0593  0.0543 -0.1647
  822loPI   GL213142  15.728   9.825   6.193  0.1006  0.2952 -0.1511
  822loPI   C1A13143  15.416  10.090   6.471 -0.0960 -0.4430  0.4020
  822loPI   C2A13144  15.491  10.041   6.932 -0.2169 -0.1764 -0.0211
  822loPI   C3A13145  15.544  10.001   7.439 -0.0259 -0.1800  0.1115
  822loPI   C4A13146  15.504  10.063   7.950 -0.0207  0.0083  0.1650
  822loPI   C5A13147  15.315  10.057   8.338  0.0390 -0.0694 -0.3527
  822loPI   C6A13148  15.275   9.938   8.758  0.1885 -0.0646  0.3076
  822loPI   C1B13149  15.894   9.731   6.732 -0.0759  0.1504  0.0880
  822loPI   C2B13150  15.885   9.652   7.177 -0.0876 -0.1119  0.1003
  822loPI   C3B13151  15.847   9.634   7.621 -0.2310 -0.2571  0.0580
  822loPI   C4B13152  15.832   9.729   8.093 -0.0059  0.0367  0.0886
  823loPI    C113153   8.434   8.556   5.155  0.0461  0.0317  0.0072
  823loPI    C213154   8.567   8.753   4.833 -0.0810 -0.0448 -0.0931
  823loPI    C313155   8.540   8.354   4.827 -0.1156 -0.0442  0.0007
  823loPI   PO413156   8.592   8.642   5.398  0.3439  0.2797  0.1378
  823loPI   GL113157   8.351   8.879   5.648 -0.1687 -0.2485 -0.0538
  823loPI   GL213158   8.243   9.172   5.607 -0.0362  0.1142 -0.1291
  823loPI   C1A13159   8.288   8.700   6.128  0.0604 -0.0569  0.0905
  823loPI   C2A13160   8.277   8.628   6.617 -0.0414 -0.1970 -0.2371
  823loPI   C3A13161   8.346   8.657   7.052 -0.1515 -0.1885 -0.2093
  823loPI   C4A13162   8.254   8.656   7.500 -0.0180  0.0887 -0.0610
  823loPI   C5A13163   8.237   8.551   7.953 -0.0429  0.1773 -0.0531
  823loPI   C6A13164   8.309   8.803   8.446  0.0158  0.0985  0.0963
  823loPI   C1B13165   8.283   9.505   5.881  0.0083  0.2005 -0.0048
  823loPI   C2B13166   8.193   9.528   6.306 -0.1191 -0.2802  0.1320
  823loPI   C3B13167   8.239   9.553   6.749  0.0549  0.0439 -0.0465
  823loPI   C4B13168   8.199   9.622   7.234 -0.2000  0.0849  0.1206
  824loPI    C113169   3.135   6.707   5.572  0.1306 -0.1445  0.1578
  824loPI    C213170   2.881   6.418   5.683 -0.1359  0.1041  0.2068
  824loPI    C313171   2.868   6.563   5.311 -0.0817  0.1346  0.2166
  824loPI   PO413172   3.009   6.904   5.780 -0.1914 -0.1248 -0.0204
  824loPI   GL113173   2.801   7.009   6.087 -0.2165 -0.1455  0.1040
  824loPI   GL213174   2.758   6.637   6.126 -0.2598 -0.3976 -0.0684
  824loPI   C1A13175   2.879   7.001   6.524  0.4209 -0.1933  0.1364
  824loPI   C2A13176   2.906   7.014   6.942  0.0767 -0.2975 -0.0325
  824loPI   C3A13177   2.856   7.002   7.338 -0.1129  0.1094 -0.0535
  824loPI   C4A13178   2.863   6.966   7.772  0.3878 -0.0089 -0.1668
  824loPI   C5A13179   2.688   7.042   8.201  0.0193  0.0822  0.0368
  824loPI   C6A13180   2.649   7.103   8.693  0.2009  0.3299 -0.0240
  824loPI   C1B13181   2.653   6.551   6.603  0.0444 -0.0975 -0.0353
  824loPI   C2B13182   2.694   6.569   7.138 -0.0166 -0.1351  0.0620
  824loPI   C3B13183   2.702   6.553   7.622 -0.0116  0.1343  0.3027
  824loPI   C4B13184   2.671   6.539   8.040  0.1759 -0.1461 -0.1521
  825loPI    C113185   4.167  12.479   5.711 -0.0972  0.1341  0.0385
  825loPI    C213186   4.379  12.410   5.379 -0.1285 -0.2564  0.0949
  825loPI    C313187   4.018  12.583   5.355 -0.1124 -0.2444 -0.0691
  825loPI   PO413188   4.270  12.611   5.878 -0.2710 -0.0477 -0.1147
  825loPI   GL113189   4.345  12.662   6.219 -0.3116  0.0436 -0.0803
  825loPI   GL213190   4.689  12.786   6.161  0.0177 -0.0300 -0.3813
  825loPI   C1A13191   4.151  12.687   6.652  0.0806  0.1838  0.1787
  825loPI   C2A13192   4.139  12.661   7.144  0.2396  0.0018  0.1941
  825loPI   C3A13193   4.169  12.624   7.579  0.1231 -0.0399 -0.1102
  825loPI   C4A13194   4.173  12.516   7.961  0.0671 -0.1334  0.2007
  825loPI   C5A13195   4.130  12.467   8.407  0.2253 -0.0415  0.0466
  825loPI   C6A13196   3.895  12.167   8.765  0.0451  0.0135  0.1899
  825loPI   C1B13197   4.638  12.723   6.589  0.0495  0.0111 -0.2300
  825loPI   C2B13198   4.657  12.742   6.966  0.3013  0.1919  0.0284
  825loPI   C3B13199   4.675  12.763   7.389  0.2295  0.0669 -0.0092
  825loPI   C4B13200   4.687  12.655   7.812  0.1629 -0.0173  0.1312
  826loPI    C113201   3.015  17.425   5.513 -0.2432 -0.1459  0.0899
  826loPI    C213202   2.722  17.365   5.248 -0.0888 -0.1587 -0.0797
  826loPI    C313203   2.998  17.646   5.180 -0.1225 -0.0726  0.1317
  826loPI   PO413204   2.795  17.463   5.717 -0.0680  0.3520 -0.2179
  826loPI   GL113205   2.721  17.288   6.127 -0.0204  0.3111 -0.4969
  826loPI   GL213206   3.016  17.171   6.064 -0.0002 -0.2109  0.1173
  826loPI   C1A13207   2.908  17.275   6.561  0.2599 -0.1749 -0.1968
  826loPI   C2A13208   2.833  17.308   7.089  0.1959 -0.1045 -0.0249
  826loPI   C3A13209   2.790  17.325   7.495 -0.2215 -0.0137 -0.2824
  826loPI   C4A13210   2.887  17.377   7.905 -0.1300 -0.1209 -0.0758
  826loPI   C5A13211   2.903  17.605   8.328  0.0005  0.1377  0.0671
  826loPI   C6A13212   2.603  17.521   8.605  0.0997  0.0774 -0.2681
  826loPI   C1B13213   3.201  16.902   6.399 -0.2690  0.1954  0.0567
  826loPI   C2B13214   3.158  16.878   6.866  0.2755 -0.4269 -0.2431
  826loPI   C3B13215   3.215  17.038   7.257 -0.1496  0.1758 -0.0939
  826loPI   C4B13216   3.138  16.919   7.626 -0.2453 -0.2182  0.1351
  827loPI    C113217  12.122  11.026   5.830  0.1133 -0.1383 -0.0838
  827loPI    C213218  12.450  10.974   5.606  0.0825 -0.1882 -0.1175
  827loPI    C313219  12.238  11.312   5.575  0.0961 -0.1818 -0.1407
  827loPI   PO413220  12.209  10.904   5.994 -0.0723  0.1587 -0.0839
  827loPI   GL113221  12.250  10.955   6.382 -0.1042  0.1584  0.2300
  827loPI   GL213222  12.443  11.132   6.441 -0.5350 -0.0480  0.0292
  827loPI   C1A13223  12.056  11.024   6.764 -0.0082  0.2445  0.2960
  827loPI   C2A13224  12.036  10.992   7.184 -0.2132  0.1948  0.0573
  827loPI   C3A13225  12.036  10.954   7.617  0.2644 -0.3896 -0.0874
  827loPI   C4A13226  11.967  10.985   8.097 -0.0650  0.3173 -0.1195
  827loPI   C5A13227  11.797  10.855   8.473  0.2921 -0.1967 -0.2906
  827loPI   C6A13228  11.649  10.547   8.770  0.1406 -0.0300  0.1467
  827loPI   C1B13229  12.627  11.031   6.893 -0.0642  0.3387 -0.0660
  827loPI   C2B13230  12.575  11.078   7.357  0.1280  0.1017  0.1649
  827loPI   C3B13231  12.486  11.072   7.825 -0.2831 -0.1776 -0.0294
  827loPI   C4B13232  12.492  10.987   8.180 -0.0363 -0.0778 -0.0859
  828loPI    C113233   7.679  10.679   5.182 -0.1842 -0.0367 -0.0890
  828loPI    C213234   8.035  10.600   5.017 -0.0432  0.2686  0.0617
  828loPI    C313235   7.728  10.351   4.958  0.2228 -0.0560  0.0205
  828loPI   PO413236   7.711  10.726   5.430 -0.0416  0.0391  0.1781
  828loPI   GL113237   7.503  10.577   5.823  0.0953 -0.1030  0.3017
  828loPI   GL213238   7.816  10.400   5.821  0.0709 -0.0463 -0.1118
  828loPI   C1A13239   7.618  10.748   6.156  0.0154  0.0078 -0.3277
  828loPI   C2A13240   7.722  10.811   6.619  0.2270 -0.1493  0.1310
  828loPI   C3A13241   7.734  10.828   7.060 -0.0080 -0.5912 -0.0173
  828loPI   C4A13242   7.782  10.850   7.481  0.0593  0.0057  0.0044
  828loPI   C5A13243   7.657  10.791   7.859  0.2124  0.1893  0.0157
  828loPI   C6A13244   7.832  10.559   8.108  0.1181 -0.1595  0.1403
  828loPI   C1B13245   8.014  10.427   6.260  0.2623  0.2486 -0.1262
  828loPI   C2B13246   8.055  10.475   6.767  0.0864  0.1849  0.2352
  828loPI   C3B13247   8.063  10.476   7.211 -0.5749 -0.1219  0.1598
  828loPI   C4B13248   8.068  10.425   7.663  0.1861 -0.2729  0.0194
  829loPI    C113249   5.671  12.229   5.155 -0.1227 -0.1314 -0.0303
  829loPI    C213250   5.437  11.914   5.081 -0.0927 -0.0949 -0.2909
  829loPI    C313251   5.301  12.283   5.012 -0.1176 -0.0497 -0.0134
  829loPI   PO413252   5.772  12.299   5.385  0.1818  0.5138 -0.2009
  829loPI   GL113253   5.828  12.231   5.849  0.0612  0.1332  0.1735
  829loPI   GL213254   5.529  12.272   5.938  0.4047  0.0724  0.0668
  829loPI   C1A13255   5.857  12.035   6.255  0.2669 -0.0055  0.1555
  829loPI   C2A13256   5.850  12.089   6.649 -0.1783 -0.2094  0.1650
  829loPI   C3A13257   5.728  12.013   7.040 -0.0022 -0.2262 -0.1224
  829loPI   C4A13258   5.785  11.902   7.484 -0.0268  0.2186 -0.2507
  829loPI   C5A13259   5.685  11.907   7.890  0.2654 -0.2086 -0.2579
  829loPI   C6A13260   5.837  11.732   8.314  0.0390 -0.0927 -0.0547
  829loPI   C1B13261   5.587  12.482   6.341 -0.1085  0.4738  0.1062
  829loPI   C2B13262   5.536  12.487   6.743  0.0153  0.0204 -0.0101
  829loPI   C3B13263   5.475  12.409   7.170  0.0350  0.1031 -0.3526
  829loPI   C4B13264   5.503  12.372   7.633 -0.0614  0.0788 -0.0865
  830loPI    C113265   4.994   4.606   5.328  0.1029  0.1281  0.0537
  830loPI    C213266   4.820   4.735   4.992 -0.1788  0.0308  0.1584
  830loPI    C313267   5.066   4.976   5.195 -0.1871  0.1703  0.0055
  830loPI   PO413268   4.839   4.612   5.470  0.0939 -0.0969  0.1423
  830loPI   GL113269   4.863   4.611   5.965  0.0778 -0.0048  0.3447
  830loPI   GL213270   5.146   4.461   5.812 -0.0097 -0.1084 -0.0317
  830loPI   C1A13271   4.694   4.538   6.363 -0.2844  0.1637  0.2345
  830loPI   C2A13272   4.695   4.532   6.813 -0.3139 -0.1123 -0.0808
  830loPI   C3A13273   4.623   4.620   7.182 -0.3482  0.0841 -0.0490
  830loPI   C4A13274   4.662   4.508   7.629 -0.3339 -0.3244 -0.0065
  830loPI   C5A13275   4.734   4.443   8.050  0.0029  0.0647  0.3872
  830loPI   C6A13276   4.714   4.501   8.594  0.0910 -0.0502  0.1429
  830loPI   C1B13277   5.280   4.610   6.273  0.1864 -0.1817 -0.0983
  830loPI   C2B13278   5.148   4.625   6.600 -0.0866  0.1230  0.0298
  830loPI   C3B13279   5.175   4.585   7.007  0.2805 -0.0817  0.0627
  830loPI   C4B13280   5.068   4.648   7.360  0.3885 -0.0899  0.1486
  831loPI    C113281  16.159   5.880   5.552 -0.1055 -0.1057 -0.0355
  831loPI    C213282  16.436   5.734   5.801 -0.0530  0.1015  0.0302
  831loPI    C313283  16.436   5.625   5.416  0.0535  0.0173  0.0533
  831loPI   PO413284  16.202   6.124   5.651  0.2425  0.2104 -0.1557
  831loPI   GL113285  16.200   6.219   6.087 -0.2081 -0.0775 -0.0288
  831loPI   GL213286  16.117   6.478   6.026  0.0663  0.2582  0.0381
  831loPI   C1A13287  16.329   6.094   6.506  0.1371  0.1736  0.0846
  831loPI   C2A13288  16.290   6.213   6.952 -0.1666  0.3064  0.2446
  831loPI   C3A13289  16.241   6.254   7.379  0.1560  0.1774  0.1975
  831loPI   C4A13290  16.272   6.232   7.756  0.0720 -0.2687  0.1320
  831loPI   C5A13291  16.132   6.341   8.169 -0.0858 -0.1126  0.0189
  831loPI   C6A13292  16.251   6.460   8.589 -0.0933 -0.0309  0.0507
  831loPI   C1B13293  16.006   6.486   6.439 -0.0415  0.1374 -0.1120
  831loPI   C2B13294  15.967   6.531   6.740 -0.0363  0.2250 -0.1007
  831loPI   C3B13295  15.901   6.613   7.183  0.1120 -0.1184  0.1418
  831loPI   C4B13296  15.910   6.580   7.624 -0.0942 -0.4000  0.1507
  832loPI    C113297   2.337  10.411   5.360  0.1701 -0.0665 -0.0713
  832loPI    C213298   2.126  10.076   5.413  0.0196  0.0296 -0.0569
  832loPI    C313299   2.392  10.100   5.115 -0.0078 -0.0831 -0.0908
  832loPI   PO413300   2.479  10.401   5.585 -0.2107  0.1945  0.0057
  832loPI   GL113301   2.523  10.075   5.803  0.1091 -0.2148  0.1365
  832loPI   GL213302   2.210   9.946   5.918  0.1225  0.0246  0.1342
  832loPI   C1A13303   2.701  10.271   6.191 -0.1373  0.1784 -0.1074
  832loPI   C2A13304   2.743  10.188   6.560  0.0517  0.1260 -0.0548
  832loPI   C3A13305   2.747  10.174   6.895 -0.0811  0.0771 -0.0997
  832loPI   C4A13306   2.660  10.250   7.314 -0.0295  0.4887 -0.1436
  832loPI   C5A13307   2.667  10.295   7.726 -0.1845  0.2301 -0.1759
  832loPI   C6A13308   2.893  10.531   8.032  0.1476  0.1950 -0.4532
  832loPI   C1B13309   2.123   9.674   6.275  0.0831  0.3685  0.0809
  832loPI   C2B13310   2.078   9.715   6.740  0.2286 -0.2223  0.0979
  832loPI   C3B13311   2.000   9.597   7.156 -0.1175 -0.1763 -0.1546
  832loPI   C4B13312   2.001   9.739   7.560  0.1560  0.2692 -0.1504
  833loPI    C113313  12.983  12.090   5.725  0.3007  0.0652  0.0592
  833loPI    C213314  13.217  12.116   5.402 -0.0177 -0.1434 -0.1937
  833loPI    C313315  12.892  12.347   5.433  0.1530  0.0635  0.1033
  833loPI   PO413316  13.099  12.115   5.885 -0.1030  0.2752  0.0635
  833loPI   GL113317  13.044  12.113   6.322 -0.1510  0.1027 -0.2702
  833loPI   GL213318  12.817  12.337   6.451  0.3313  0.2784  0.0586
  833loPI   C1A13319  12.968  12.001   6.756 -0.1917  0.0827  0.0950
  833loPI   C2A13320  12.989  12.000   7.164 -0.1150  0.1873  0.0135
  833loPI   C3A13321  12.914  12.003   7.593 -0.1656  0.0895 -0.1087
  833loPI   C4A13322  12.883  11.982   8.040  0.0085  0.1001  0.2760
  833loPI   C5A13323  12.888  11.967   8.446 -0.2252 -0.5752  0.1346
  833loPI   C6A13324  13.038  11.647   8.711 -0.0436  0.0527  0.1618
  833loPI   C1B13325  12.654  12.407   6.888 -0.3007  0.0669 -0.1461
  833loPI   C2B13326  12.663  12.370   7.296 -0.0319  0.1010 -0.0823
  833loPI   C3B13327  12.634  12.408   7.777  0.2693  0.2289  0.1006
  833loPI   C4B13328  12.595  12.404   8.273 -0.0139 -0.0107  0.0848
  834loPI    C113329   1.653   8.266   5.748  0.0727 -0.1278  0.1078
  834loPI    C213330   1.899   8.579   5.776 -0.1421  0.0373  0.1804
  834loPI    C313331   1.883   8.367   5.437  0.0495  0.0656  0.1525
  834loPI   PO413332   1.714   8.097   5.908  0.2550  0.0176  0.0978
  834loPI   GL113333   1.954   8.150   6.215 -0.1013  0.0685 -0.1523
  834loPI   GL213334   1.943   8.417   6.273 -0.1735  0.2192  0.0536
  834loPI   C1A13335   1.782   7.941   6.501 -0.0884  0.0615  0.1685
  834loPI   C2A13336   1.781   7.874   6.884 -0.0966 -0.0186 -0.1228
  834loPI   C3A13337   1.728   7.793   7.391  0.2544  0.1542 -0.1021
  834loPI   C4A13338   1.727   7.827   7.800  0.0131 -0.0088 -0.0962
  834loPI   C5A13339   1.809   7.840   8.265  0.0123 -0.1829 -0.0283
  834loPI   C6A13340   1.809   8.261   8.496 -0.1103 -0.0593 -0.0363
  834loPI   C1B13341   1.945   8.333   6.710  0.2314  0.0355  0.0689
  834loPI   C2B13342   1.921   8.288   7.193 -0.0352 -0.2183 -0.1314
  834loPI   C3B13343   2.013   8.246   7.563  0.0236 -0.0588  0.0626
  834loPI   C4B13344   1.945   8.334   7.972 -0.2825  0.2673  0.0402
  835loPI    C113345   3.271   8.401   5.637 -0.1384  0.0653  0.0536
  835loPI    C213346   2.982   8.206   5.833 -0.1891  0.0888  0.0026
  835loPI    C313347   2.887   8.467   5.545 -0.1270  0.2843  0.1573
  835loPI   PO413348   3.447   8.259   5.618 -0.4583  0.1936 -0.0353
  835loPI   GL113349   3.696   8.217   6.017 -0.1727 -0.1025  0.0287
  835loPI   GL213350   3.472   8.450   6.109 -0.0427 -0.0190  0.1768
  835loPI   C1A13351   3.775   8.041   6.448  0.2516  0.2941  0.1057
  835loPI   C2A13352   3.833   8.054   6.856  0.1797  0.0464  0.3917
  835loPI   C3A13353   3.737   8.110   7.265 -0.0292 -0.0800 -0.1363
  835loPI   C4A13354   3.730   7.939   7.605 -0.1192 -0.2165  0.0261
  835loPI   C5A13355   3.906   7.995   8.003 -0.2697 -0.2263  0.1634
  835loPI   C6A13356   4.328   7.949   8.151  0.1508 -0.0916  0.3287
  835loPI   C1B13357   3.503   8.464   6.646 -0.1427 -0.0405  0.0856
  835loPI   C2B13358   3.467   8.423   7.016 -0.0053 -0.1494 -0.3049
  835loPI   C3B13359   3.436   8.535   7.396  0.0971 -0.0286  0.1719
  835loPI   C4B13360   3.394   8.442   7.724 -0.3389 -0.3100 -0.0014
  836loPI    C113361  10.403  11.433   5.304  0.1146 -0.2655 -0.0725
  836loPI    C213362  10.194  11.097   5.246 -0.1252 -0.0888 -0.2530
  836loPI    C313363  10.244  11.356   4.945  0.2005 -0.0405 -0.1608
  836loPI   PO413364  10.303  11.511   5.546 -0.1098 -0.0718  0.0299
  836loPI   GL113365  10.352  11.411   5.935 -0.0205 -0.0365 -0.1124
  836loPI   GL213366  10.283  11.150   6.163 -0.0453 -0.2531  0.3688
  836loPI   C1A13367  10.492  11.635   6.282  0.0414 -0.1936 -0.1622
  836loPI   C2A13368  10.442  11.685   6.712 -0.1584  0.1370  0.1667
  836loPI   C3A13369  10.482  11.669   7.149 -0.2174  0.0224  0.0189
  836loPI   C4A13370  10.422  11.720   7.579  0.0934 -0.1711  0.1707
  836loPI   C5A13371  10.382  11.699   7.969 -0.0654 -0.0413  0.0429
  836loPI   C6A13372  10.125  11.904   8.151  0.1041 -0.3168 -0.1022
  836loPI   C1B13373  10.277  11.252   6.540 -0.0883 -0.2506 -0.1433
  836loPI   C2B13374  10.225  11.215   7.010 -0.0093  0.2217 -0.0650
  836loPI   C3B13375  10.172  11.230   7.462 -0.1005 -0.1283 -0.4092
  836loPI   C4B13376  10.159  11.225   7.896 -0.1152 -0.1368  0.1253
  837loPI    C113377  11.596  13.073   5.604 -0.1112  0.0298 -0.0437
  837loPI    C213378  11.945  13.164   5.431 -0.1029  0.3004  0.1100
  837loPI    C313379  11.762  12.820   5.342  0.1148  0.2371 -0.1047
  837loPI   PO413380  11.576  13.025   5.869  0.0657  0.1747 -0.0041
  837loPI   GL113381  11.722  12.912   6.172 -0.0245 -0.3594  0.0007
  837loPI   GL213382  11.968  12.699   6.265  0.4390  0.1006 -0.0451
  837loPI   C1A13383  11.519  12.692   6.567  0.0516 -0.0035 -0.0595
  837loPI   C2A13384  11.433  12.696   6.944 -0.1415  0.0818 -0.1363
  837loPI   C3A13385  11.372  12.679   7.336 -0.0494  0.0115 -0.1078
  837loPI   C4A13386  11.269  12.657   7.656  0.0825  0.4446  0.0446
  837loPI   C5A13387  11.143  12.612   8.140 -0.1835 -0.0580 -0.0933
  837loPI   C6A13388  11.083  12.572   8.601  0.1544  0.1541 -0.0206
  837loPI   C1B13389  11.996  12.734   6.755  0.2177  0.1700  0.0218
  837loPI   C2B13390  11.885  12.718   7.126  0.0783  0.1292 -0.3126
  837loPI   C3B13391  11.834  12.797   7.530  0.2578 -0.0707 -0.1739
  837loPI   C4B13392  11.841  12.738   7.947 -0.0609 -0.0934  0.0098
  838loPI    C113393   8.203  13.585   5.418 -0.3464  0.0730 -0.0946
  838loPI    C213394   8.046  13.305   5.180  0.0224 -0.0825 -0.1613
  838loPI    C313395   8.347  13.533   5.049  0.0673 -0.0049  0.0720
  838loPI   PO413396   8.245  13.494   5.592  0.0894  0.2970  0.0113
  838loPI   GL113397   8.015  13.447   5.980  0.0113 -0.1463 -0.2424
  838loPI   GL213398   7.770  13.235   6.096 -0.0974  0.0281  0.0648
  838loPI   C1A13399   7.980  13.615   6.459 -0.1117 -0.1611  0.2571
  838loPI   C2A13400   7.946  13.657   6.866 -0.0168  0.2482 -0.1116
  838loPI   C3A13401   7.890  13.676   7.351  0.0256 -0.2762  0.0054
  838loPI   C4A13402   7.794  13.535   7.718 -0.0162  0.0134 -0.1152
  838loPI   C5A13403   7.663  13.563   8.158  0.0456 -0.1845  0.4400
  838loPI   C6A13404   7.612  13.519   8.621 -0.0760 -0.2591 -0.0810
  838loPI   C1B13405   7.818  13.173   6.550 -0.1070 -0.0012  0.0584
  838loPI   C2B13406   7.762  13.178   7.011  0.1210 -0.0625 -0.2855
  838loPI   C3B13407   7.689  13.118   7.434 -0.2409 -0.0076  0.0535
  838loPI   C4B13408   7.660  13.066   7.846  0.0537  0.2579 -0.1296
  839loPI    C113409  17.081   8.468   5.285 -0.0718  0.0360  0.0058
  839loPI    C213410  17.077   8.861   5.214 -0.3312  0.0309 -0.0155
  839loPI    C313411  16.745   8.645   5.162 -0.1835 -0.1961 -0.0274
  839loPI   PO413412  17.209   8.462   5.592 -0.0487 -0.1863  0.3200
  839loPI   GL113413  17.279   8.537   5.978 -0.1513 -0.2052  0.0104
  839loPI   GL213414  17.010   8.812   6.141  0.0203  0.4489 -0.0091
  839loPI   C1A13415  17.406   8.598   6.366  0.0931  0.2606 -0.0471
  839loPI   C2A13416  17.354   8.511   6.779 -0.0862 -0.0153  0.0373
  839loPI   C3A13417  17.300   8.494   7.230  0.1232  0.0014 -0.0759
  839loPI   C4A13418  17.265   8.487   7.644 -0.0927 -0.2713 -0.0335
  839loPI   C5A13419  17.246   8.546   8.139 -0.0030  0.0325  0.1576
  839loPI   C6A13420  17.344   8.328   8.573  0.0856 -0.0433  0.1645
  839loPI   C1B13421  17.071   8.944   6.551  0.1094 -0.0336  0.0836
  839loPI   C2B13422  17.005   8.958   6.976  0.0989 -0.2530  0.1540
  839loPI   C3B13423  16.987   8.885   7.430  0.1496  0.0464 -0.1630
  839loPI   C4B13424  16.972   8.909   7.867 -0.1132 -0.3449 -0.2775
  840loPI    C113425   9.460   8.472   5.086 -0.2407 -0.0861  0.1283
  840loPI    C213426   9.501   8.197   4.798  0.0598 -0.0505  0.1340
  840loPI    C313427   9.414   8.575   4.702  0.2297 -0.0237  0.0828
  840loPI   PO413428   9.442   8.287   5.402  0.0285  0.0417  0.0122
  840loPI   GL113429   9.586   8.115   5.759  0.0143 -0.0617  0.0982
  840loPI   GL213430   9.844   8.030   5.885  0.0170  0.1686 -0.3964
  840loPI   C1A13431   9.407   7.877   6.126 -0.2135 -0.2304 -0.2156
  840loPI   C2A13432   9.485   7.841   6.541  0.0203 -0.2695 -0.2925
  840loPI   C3A13433   9.474   8.051   7.014 -0.1469  0.1672 -0.1428
  840loPI   C4A13434   9.449   7.933   7.484  0.1598  0.0020  0.3250
  840loPI   C5A13435   9.537   7.805   7.925  0.0727  0.0248  0.0488
  840loPI   C6A13436   9.270   7.848   8.267  0.1294  0.0887 -0.2457
  840loPI   C1B13437   9.899   7.916   6.334  0.0627 -0.4607 -0.2720
  840loPI   C2B13438   9.944   7.907   6.857 -0.3018  0.2510  0.1014
  840loPI   C3B13439   9.930   8.033   7.260  0.0146  0.2122  0.1963
  840loPI   C4B13440   9.929   8.033   7.635 -0.4229  0.2750  0.2286
  841loPI    C113441   9.589  10.447   5.439 -0.0435 -0.3787  0.1288
  841loPI    C213442   9.922  10.518   5.649 -0.0254 -0.0998  0.0096
  841loPI    C313443   9.895  10.642   5.269 -0.2725 -0.1025  0.0251
  841loPI   PO413444   9.393  10.425   5.643  0.0883 -0.0510  0.3580
  841loPI   GL113445   9.525  10.177   6.068 -0.0159 -0.2024 -0.1480
  841loPI   GL213446   9.797  10.302   6.149  0.2035  0.1075  0.0900
  841loPI   C1A13447   9.375  10.313   6.413  0.2077  0.0149 -0.0120
  841loPI   C2A13448   9.257  10.199   6.863  0.2515  0.0055  0.0753
  841loPI   C3A13449   9.349  10.186   7.329  0.2472 -0.0034 -0.2506
  841loPI   C4A13450   9.380  10.174   7.789  0.1308  0.2561  0.0824
  841loPI   C5A13451   9.521  10.142   8.254  0.1198  0.0397  0.2641
  841loPI   C6A13452   9.874  10.403   8.373 -0.1731 -0.0013 -0.0131
  841loPI   C1B13453   9.890  10.286   6.503 -0.3470 -0.2597 -0.2849
  841loPI   C2B13454   9.809  10.278   6.945 -0.2526  0.2548 -0.3578
  841loPI   C3B13455   9.819  10.263   7.435 -0.2645 -0.2354  0.0121
  841loPI   C4B13456   9.866  10.328   7.855 -0.1424 -0.1488  0.1597
  842loPI    C113457  16.490  14.036   5.791 -0.1779  0.1255 -0.1451
  842loPI    C213458  16.091  14.048   5.769 -0.2060 -0.2498  0.0782
  842loPI    C313459  16.293  13.755   5.586 -0.0205  0.0077 -0.1369
  842loPI   PO413460  16.540  14.216   6.042 -0.0396  0.0191  0.0649
  842loPI   GL113461  16.588  14.190   6.427  0.0032  0.3234  0.3203
  842loPI   GL213462  16.795  14.144   6.542 -0.3366 -0.3732  0.1280
  842loPI   C1A13463  16.309  14.183   6.722  0.4442  0.0428  0.2095
  842loPI   C2A13464  16.290  14.183   7.210 -0.0949 -0.3033  0.1350
  842loPI   C3A13465  16.361  14.142   7.574 -0.1046  0.1833 -0.2622
  842loPI   C4A13466  16.203  14.186   7.899  0.3912 -0.0916  0.0608
  842loPI   C5A13467  16.226  14.293   8.387 -0.1780  0.0986  0.1651
  842loPI   C6A13468  16.600  14.552   8.576  0.0233 -0.0492  0.3034
  842loPI   C1B13469  16.753  14.254   6.972  0.1903 -0.2607  0.2008
  842loPI   C2B13470  16.860  14.264   7.363 -0.0785 -0.0590  0.0767
  842loPI   C3B13471  16.825  14.293   7.769 -0.0627  0.1969  0.2674
  842loPI   C4B13472  16.670  14.171   8.207 -0.1071  0.1062 -0.0887
  843loPI    C113473   4.868   8.029   5.301  0.0650 -0.2100 -0.2899
  843loPI    C213474   5.063   8.225   5.012 -0.1826  0.2658 -0.1438
  843loPI    C313475   4.752   7.991   4.920 -0.0769  0.1811 -0.2896
  843loPI   PO413476   5.033   8.041   5.590  0.1607  0.0778  0.0059
  843loPI   GL113477   5.022   7.813   6.059 -0.0226 -0.0944 -0.0635
  843loPI   GL213478   5.209   8.185   6.129  0.1302  0.2768 -0.2357
  843loPI   C1A13479   5.121   7.728   6.466  0.0704 -0.1452  0.1518
  843loPI   C2A13480   5.109   7.780   6.955 -0.0303 -0.1434  0.0741
  843loPI   C3A13481   5.070   7.767   7.300  0.1827  0.3242  0.1919
  843loPI   C4A13482   5.032   7.659   7.649  0.0671 -0.0678  0.1263
  843loPI   C5A13483   5.323   7.566   8.009 -0.0808  0.1465 -0.2223
  843loPI   C6A13484   5.718   7.754   8.124 -0.2817 -0.0559 -0.2743
  843loPI   C1B13485   5.230   8.157   6.620 -0.1214  0.2806  0.3447
  843loPI   C2B13486   5.301   8.207   6.986 -0.0646  0.0002 -0.2050
  843loPI   C3B13487   5.331   8.199   7.463 -0.2946 -0.0283 -0.1150
  843loPI   C4B13488   5.254   8.138   7.983  0.0821  0.0858 -0.0642
  844loPI    C113489   4.097  15.549   5.401 -0.1449 -0.1023  0.1817
  844loPI    C213490   3.917  15.226   5.248 -0.1301 -0.0057 -0.0435
  844loPI    C313491   4.020  15.529   5.009  0.0887  0.0564  0.1260
  844loPI   PO413492   4.027  15.456   5.662 -0.0597  0.1176 -0.0273
  844loPI   GL113493   3.959  15.577   6.086 -0.0727 -0.2174  0.2319
  844loPI   GL213494   3.800  15.282   6.043  0.0383 -0.1894 -0.0590
  844loPI   C1A13495   4.082  15.785   6.498  0.0142 -0.1821 -0.1949
  844loPI   C2A13496   4.138  15.753   6.949 -0.0254  0.2086  0.0382
  844loPI   C3A13497   4.101  15.762   7.301  0.2162 -0.0140 -0.1854
  844loPI   C4A13498   4.051  15.775   7.711 -0.0388  0.0195 -0.3415
  844loPI   C5A13499   4.046  15.707   8.125  0.3089 -0.0787 -0.3502
  844loPI   C6A13500   4.056  15.632   8.616  0.1914 -0.0153  0.0851
  844loPI   C1B13501   3.909  15.220   6.466  0.4320 -0.0897 -0.2257
  844loPI   C2B13502   3.930  15.285   6.935 -0.2513 -0.1238 -0.2584
  844loPI   C3B13503   3.845  15.237   7.379 -0.0154  0.0577 -0.0145
  844loPI   C4B13504   3.866  15.263   7.806  0.1927 -0.0004 -0.0126
  845loPI    C113505   3.714   9.008   5.168 -0.0347 -0.0906 -0.0469
  845loPI    C213506   3.618   9.338   4.963  0.0447  0.0580  0.1524
  845loPI    C313507   3.735   9.008   4.769 -0.1324  0.1144 -0.0530
  845loPI   PO413508   3.845   9.087   5.346 -0.0126 -0.0163  0.0546
  845loPI   GL113509   4.039   9.145   5.733  0.1611  0.1852  0.0627
  845loPI   GL213510   3.680   9.145   5.959 -0.1607 -0.0597  0.2459
  845loPI   C1A13511   4.238   8.995   6.212  0.1031 -0.2513 -0.0184
  845loPI   C2A13512   4.234   9.003   6.673  0.1569  0.2852 -0.0596
  845loPI   C3A13513   4.127   9.003   7.037  0.0110  0.0879 -0.2535
  845loPI   C4A13514   4.117   9.014   7.477  0.2687 -0.2653  0.0651
  845loPI   C5A13515   4.188   8.897   7.924  0.3018 -0.0432  0.0941
  845loPI   C6A13516   4.092   8.917   8.337  0.2324 -0.2303 -0.1728
  845loPI   C1B13517   3.741   8.978   6.335  0.1552  0.1641  0.0271
  845loPI   C2B13518   3.602   9.004   6.785  0.2400  0.0514  0.2062
  845loPI   C3B13519   3.648   8.909   7.199 -0.0909 -0.3105 -0.3187
  845loPI   C4B13520   3.629   8.906   7.652 -0.2238 -0.1468  0.2563
  846loPI    C113521  10.113  14.383   5.586 -0.1644  0.0170  0.0961
  846loPI    C213522  10.028  14.424   5.198 -0.3756 -0.0004  0.1392
  846loPI    C313523  10.350  14.604   5.353 -0.2830 -0.0046 -0.0459
  846loPI   PO413524   9.845  14.354   5.717 -0.0459  0.0571 -0.2894
  846loPI   GL113525   9.636  14.258   6.192  0.0552  0.2433 -0.0705
  846loPI   GL213526   9.378  14.179   6.130  0.0218  0.0604  0.0162
  846loPI   C1A13527   9.633  14.358   6.667 -0.0876  0.0601 -0.2002
  846loPI   C2A13528   9.579  14.327   7.194  0.1383  0.0328  0.0663
  846loPI   C3A13529   9.622  14.315   7.620  0.1419  0.0075 -0.1577
  846loPI   C4A13530   9.496  14.288   8.025 -0.0096  0.0017  0.0462
  846loPI   C5A13531   9.229  14.473   8.270  0.0597  0.1918 -0.0899
  846loPI   C6A13532   9.003  14.692   8.495  0.0216  0.1611  0.2656
  846loPI   C1B13533   9.181  14.241   6.539  0.1042  0.1533 -0.0321
  846loPI   C2B13534   9.165  14.244   6.990 -0.0669 -0.1075 -0.3764
  846loPI   C3B13535   9.060  14.236   7.424  0.1023 -0.1701  0.5330
  846loPI   C4B13536   9.041  14.346   7.796 -0.2803 -0.0961  0.2763
  847loPI    C113537  13.459  13.706   5.740 -0.2404  0.0458 -0.0619
  847loPI    C213538  13.818  13.691   5.563 -0.0305  0.3838  0.3171
  847loPI    C313539  13.501  13.831   5.363  0.0357  0.0518 -0.0312
  847loPI   PO413540  13.470  13.751   5.940  0.3131 -0.0495  0.0524
  847loPI   GL113541  13.361  14.095   6.276 -0.0544 -0.1896 -0.0750
  847loPI   GL213542  13.369  14.382   6.373  0.0280  0.0400  0.1267
  847loPI   C1A13543  13.359  13.905   6.625  0.3381 -0.1483 -0.0020
  847loPI   C2A13544  13.260  13.843   6.982  0.3690 -0.2975 -0.2928
  847loPI   C3A13545  13.224  13.807   7.461 -0.0299 -0.0759 -0.1131
  847loPI   C4A13546  13.205  13.768   7.963  0.0744  0.0245 -0.1208
  847loPI   C5A13547  13.387  13.802   8.342  0.2072  0.2961  0.5085
  847loPI   C6A13548  13.488  13.520   8.555 -0.1149 -0.0484 -0.0582
  847loPI   C1B13549  13.516  14.344   6.782 -0.0038 -0.1352 -0.3346
  847loPI   C2B13550  13.427  14.256   7.218 -0.0270  0.1360  0.1204
  847loPI   C3B13551  13.469  14.219   7.679  0.3560 -0.2350 -0.0105
  847loPI   C4B13552  13.415  14.257   8.137  0.0288  0.1480 -0.0198
  848loPI    C113553   2.069   7.056   5.406 -0.1664  0.1871  0.2131
  848loPI    C213554   1.709   6.988   5.247 -0.0579  0.0756  0.0115
  848loPI    C313555   2.039   6.916   5.032  0.1031 -0.3899  0.3957
  848loPI   PO413556   2.050   6.976   5.706  0.0362 -0.0721  0.0519
  848loPI   GL113557   1.889   7.101   6.095 -0.2616 -0.4088  0.1941
  848loPI   GL213558   2.082   7.293   6.272 -0.2005 -0.0191 -0.0168
  848loPI   C1A13559   1.783   6.945   6.500 -0.0309 -0.0177 -0.0812
  848loPI   C2A13560   1.807   6.945   6.903 -0.0423  0.0189 -0.1008
  848loPI   C3A13561   1.875   6.920   7.453  0.0076 -0.1140 -0.1882
  848loPI   C4A13562   1.846   6.998   7.879  0.0532 -0.2189 -0.2469
  848loPI   C5A13563   1.863   6.874   8.231  0.1319 -0.3242 -0.1846
  848loPI   C6A13564   2.252   7.010   8.433 -0.0018 -0.1268 -0.2629
  848loPI   C1B13565   2.065   7.309   6.736  0.0956 -0.0750  0.2999
  848loPI   C2B13566   2.077   7.368   7.244 -0.1343  0.1014  0.1892
  848loPI   C3B13567   2.040   7.386   7.599  0.2826 -0.1216  0.1853
  848loPI   C4B13568   1.990   7.458   8.050 -0.1383  0.0465  0.3764
  849loPI    C113569  17.125   4.016   5.596 -0.2654 -0.1346 -0.0109
  849loPI    C213570  17.296   4.238   5.310 -0.2233  0.0610  0.1636
  849loPI    C313571  17.303   3.839   5.285 -0.2052  0.0762 -0.0986
  849loPI   PO413572  17.254   4.105   5.830  0.0845 -0.2022  0.2194
  849loPI   GL113573  17.299   3.808   6.164  0.0424  0.2096 -0.0638
  849loPI   GL213574  17.064   3.618   6.404  0.2763 -0.1388  0.1456
  849loPI   C1A13575  17.359   3.961   6.537 -0.4603  0.2107 -0.1124
  849loPI   C2A13576  17.339   4.062   6.965 -0.1737 -0.0353  0.0505
  849loPI   C3A13577  17.357   4.021   7.360 -0.1258 -0.1591  0.0411
  849loPI   C4A13578  17.328   4.138   7.775 -0.1066 -0.0658 -0.1507
  849loPI   C5A13579  17.366   4.167   8.264 -0.0352  0.0536  0.0910
  849loPI   C6A13580  17.332   4.237   8.774 -0.0032 -0.1574  0.2075
  849loPI   C1B13581  17.103   3.580   6.808 -0.0068 -0.2347  0.4456
  849loPI   C2B13582  17.155   3.527   7.205 -0.1719 -0.2507 -0.3426
  849loPI   C3B13583  17.194   3.602   7.684 -0.0575 -0.0429  0.1930
  849loPI   C4B13584  17.066   3.703   8.061  0.1037  0.1255  0.1735
  850loPI    C113585  12.730  17.245   5.788  0.0785 -0.2854 -0.0317
  850loPI    C213586  12.891  17.449   5.485 -0.1951 -0.1033 -0.0574
  850loPI    C313587  12.758  17.077   5.426  0.0240 -0.1782 -0.0864
  850loPI   PO413588  12.844  17.311   5.969 -0.1175 -0.2396  0.1015
  850loPI   GL113589  13.064  17.386   6.370 -0.0784 -0.0496 -0.0818
  850loPI   GL213590  12.861  17.531   6.403  0.0480 -0.3720 -0.0861
  850loPI   C1A13591  13.145  17.013   6.584 -0.0225  0.0194  0.2317
  850loPI   C2A13592  13.117  17.030   7.013 -0.1572  0.0538  0.2629
  850loPI   C3A13593  13.187  16.963   7.477  0.0765  0.0128 -0.1216
  850loPI   C4A13594  13.014  16.948   7.813  0.0550  0.0820  0.2778
  850loPI   C5A13595  13.144  16.928   8.289  0.1156 -0.3110 -0.0521
  850loPI   C6A13596  12.961  16.999   8.719  0.0738 -0.0650  0.1890
  850loPI   C1B13597  12.879  17.474   6.851  0.1985 -0.4819 -0.0136
  850loPI   C2B13598  12.896  17.389   7.372  0.1765 -0.0036 -0.0971
  850loPI   C3B13599  12.791  17.395   7.759 -0.3210  0.3492 -0.2893
  850loPI   C4B13600  12.741  17.296   8.201  0.0939 -0.3454 -0.2817
  851loPI    C113601   8.958  12.865   5.367  0.1266  0.2526 -0.1123
  851loPI    C213602   8.937  12.486   5.241  0.0092  0.2047  0.0474
  851loPI    C313603   9.199  12.739   5.074  0.3023 -0.0276  0.1471
  851loPI   PO413604   8.857  12.810   5.589 -0.1696  0.0699  0.0334
  851loPI   GL113605   9.031  12.785   5.961  0.1468  0.1509  0.2743
  851loPI   GL213606   8.937  12.483   6.168 -0.1256 -0.2142  0.0541
  851loPI   C1A13607   9.081  12.929   6.379 -0.1679 -0.0103 -0.0526
  851loPI   C2A13608   9.129  12.862   6.779 -0.1432 -0.1665 -0.0840
  851loPI   C3A13609   9.077  12.846   7.282  0.1393  0.0822 -0.2201
  851loPI   C4A13610   8.989  12.983   7.603  0.4287 -0.0719  0.0550
  851loPI   C5A13611   9.042  12.933   8.054  0.1719 -0.2162  0.0580
  851loPI   C6A13612   8.840  13.066   8.391  0.0417 -0.0172  0.2665
  851loPI   C1B13613   8.827  12.310   6.518 -0.0518 -0.0715  0.1679
  851loPI   C2B13614   8.887  12.432   6.978 -0.2322  0.0492  0.1609
  851loPI   C3B13615   8.775  12.410   7.398  0.1384 -0.2694 -0.0638
  851loPI   C4B13616   8.815  12.374   7.788  0.1780 -0.3317 -0.2620
  852loPI    C113617  14.078   2.676   5.606 -0.1615  0.0596  0.1013
  852loPI    C213618  14.003   3.022   5.421 -0.0597  0.0403  0.0229
  852loPI    C313619  13.883   2.678   5.258  0.2484  0.0040 -0.1355
  852loPI   PO413620  14.102   2.821   5.870  0.0625  0.0246  0.0134
  852loPI   GL113621  14.224   2.720   6.222 -0.0445 -0.1454 -0.2037
  852loPI   GL213622  14.024   3.065   6.341 -0.1302  0.2425 -0.1448
  852loPI   C1A13623  14.368   2.882   6.591  0.2143  0.3270  0.0798
  852loPI   C2A13624  14.332   2.876   7.101 -0.0401  0.0326  0.2994
  852loPI   C3A13625  14.319   2.804   7.515  0.2542  0.1389  0.0397
  852loPI   C4A13626  14.295   2.831   7.963 -0.1326 -0.3109 -0.2764
  852loPI   C5A13627  14.391   2.845   8.409 -0.1973 -0.1414 -0.2127
  852loPI   C6A13628  14.259   2.856   8.774  0.2463  0.1686 -0.0400
  852loPI   C1B13629  14.089   3.253   6.807 -0.0456 -0.1945  0.1055
  852loPI   C2B13630  14.166   3.315   7.190  0.0297  0.0885 -0.5239
  852loPI   C3B13631  13.994   3.245   7.638  0.1059 -0.3604  0.0600
  852loPI   C4B13632  13.931   3.317   8.068 -0.2055  0.0426  0.4087
  853loPI    C113633   8.972  16.711   5.634  0.1512  0.0190 -0.0059
  853loPI    C213634   8.832  16.498   5.326  0.0901  0.0009  0.0343
  853loPI    C313635   8.953  16.876   5.270  0.0555  0.0059 -0.0071
  853loPI   PO413636   8.951  16.677   5.839  0.1666 -0.0587  0.0077
  853loPI   GL113637   9.141  16.819   6.280 -0.1374 -0.1165  0.1446
  853loPI   GL213638   9.402  16.957   6.538 -0.1364  0.2076  0.2143
  853loPI   C1A13639   9.175  16.530   6.628  0.0902 -0.1261  0.2506
  853loPI   C2A13640   9.100  16.497   7.064  0.2550 -0.2313  0.1995
  853loPI   C3A13641   8.999  16.553   7.394  0.2113  0.2376 -0.0233
  853loPI   C4A13642   9.011  16.364   7.769 -0.2126 -0.1579  0.0082
  853loPI   C5A13643   9.064  16.493   8.177  0.2891  0.2190 -0.1193
  853loPI   C6A13644   9.018  16.396   8.603 -0.2340  0.1213  0.0156
  853loPI   C1B13645   9.253  17.052   6.872  0.3724  0.1104  0.1157
  853loPI   C2B13646   9.209  16.992   7.269 -0.1769  0.0865  0.0425
  853loPI   C3B13647   9.223  16.889   7.739 -0.0909  0.1935 -0.1378
  853loPI   C4B13648   9.209  16.966   8.167 -0.3413  0.0748  0.0047
  854loPI    C113649  11.568   5.864   5.757  0.2523 -0.2098 -0.0481
  854loPI    C213650  11.476   6.126   5.470  0.1443 -0.1294  0.0586
  854loPI    C313651  11.856   6.010   5.521  0.1743 -0.0902 -0.0698
  854loPI   PO413652  11.518   5.876   5.931 -0.0104 -0.1470 -0.1281
  854loPI   GL113653  11.468   5.758   6.257 -0.1892  0.0707  0.0531
  854loPI   GL213654  11.067   5.757   6.407 -0.1026 -0.1562  0.0475
  854loPI   C1A13655  11.566   5.870   6.700  0.0537 -0.2367  0.2638
  854loPI   C2A13656  11.505   5.999   7.116 -0.0613  0.2246 -0.1427
  854loPI   C3A13657  11.482   5.932   7.604  0.0035  0.2978  0.1911
  854loPI   C4A13658  11.442   5.988   8.039 -0.0934 -0.0170 -0.5396
  854loPI   C5A13659  11.634   5.866   8.496 -0.5222 -0.2117  0.1930
  854loPI   C6A13660  11.667   5.481   8.715  0.3558  0.2128  0.2138
  854loPI   C1B13661  10.998   5.842   6.760 -0.2344  0.1003  0.1201
  854loPI   C2B13662  10.954   5.872   7.209  0.2332 -0.0263  0.2301
  854loPI   C3B13663  10.932   5.879   7.639  0.1914  0.1683 -0.1410
  854loPI   C4B13664  10.920   5.916   8.135 -0.0290 -0.0132  0.2543
  855loPI    C113665  13.123  16.475   5.728  0.1694  0.1515  0.1461
  855loPI    C213666  13.166  16.867   5.660  0.2181  0.1310  0.0576
  855loPI    C313667  13.159  16.611   5.353 -0.0627  0.0859  0.0986
  855loPI   PO413668  13.142  16.435   5.930 -0.2816 -0.0473 -0.0164
  855loPI   GL113669  12.860  16.435   6.274 -0.0247 -0.1801 -0.2422
  855loPI   GL213670  12.732  16.087   6.316  0.2976 -0.0068 -0.1874
  855loPI   C1A13671  12.933  16.567   6.685 -0.1036 -0.2408 -0.2521
  855loPI   C2A13672  12.967  16.583   7.208  0.0336  0.3167 -0.1605
  855loPI   C3A13673  12.957  16.487   7.641 -0.1924  0.3301 -0.1030
  855loPI   C4A13674  13.004  16.447   8.077  0.0406 -0.3787  0.1293
  855loPI   C5A13675  13.042  16.270   8.444  0.0238  0.2528 -0.2132
  855loPI   C6A13676  13.277  15.866   8.389 -0.0719 -0.0075  0.2461
  855loPI   C1B13677  12.758  16.104   6.800  0.2563  0.0959  0.0352
  855loPI   C2B13678  12.713  16.036   7.300  0.1343  0.2260 -0.0537
  855loPI   C3B13679  12.716  15.957   7.711 -0.2835  0.0971  0.1469
  855loPI   C4B13680  12.747  16.059   8.093  0.1751 -0.1942 -0.1275
  856loPI    C113681   3.209  11.520   5.299 -0.1782 -0.0403 -0.0573
  856loPI    C213682   2.954  11.225   5.207 -0.0813 -0.0841 -0.1877
  856loPI    C313683   3.113  11.450   4.917  0.0825 -0.1022 -0.1134
  856loPI   PO413684   3.339  11.427   5.443 -0.1349 -0.0751 -0.0592
  856loPI   GL113685   3.504  11.461   5.795 -0.3745 -0.0101  0.0642
  856loPI   GL213686   3.246  11.650   5.896  0.0303 -0.2545  0.0765
  856loPI   C1A13687   3.756  11.696   6.138 -0.3617 -0.0402  0.1080
  856loPI   C2A13688   3.774  11.848   6.573  0.0965 -0.2334  0.1023
  856loPI   C3A13689   3.801  11.705   6.912 -0.1104  0.2502 -0.1990
  856loPI   C4A13690   3.772  11.661   7.394 -0.1578  0.2817 -0.0597
  856loPI   C5A13691   3.820  11.657   7.825 -0.0686  0.0524  0.3350
  856loPI   C6A13692   4.049  11.264   8.027  0.0850 -0.0562 -0.0142
  856loPI   C1B13693   3.281  11.649   6.346  0.0281  0.0237 -0.0611
  856loPI   C2B13694   3.310  11.727   6.853 -0.1572  0.0437 -0.0518
  856loPI   C3B13695   3.294  11.600   7.300 -0.0760 -0.0673  0.1792
  856loPI   C4B13696   3.185  11.554   7.774 -0.1089  0.0180  0.0196
  857loPI    C113697  14.109  16.642   5.348  0.1209  0.0362  0.4042
  857loPI    C213698  14.362  16.919   5.209  0.0553 -0.0502  0.1047
  857loPI    C313699  13.988  16.903   5.070  0.0799 -0.3353  0.0647
  857loPI   PO413700  14.142  16.661   5.652 -0.1929 -0.0454  0.2521
  857loPI   GL113701  14.037  16.784   6.112 -0.0258  0.1359 -0.1243
  857loPI   GL213702  14.290  16.966   6.341  0.4132 -0.1634 -0.0033
  857loPI   C1A13703  13.888  16.677   6.575 -0.2727 -0.0417 -0.1808
  857loPI   C2A13704  13.965  16.566   7.031 -0.1245 -0.0196  0.0202
  857loPI   C3A13705  13.905  16.684   7.502  0.0901 -0.1418  0.0080
  857loPI   C4A13706  13.964  16.514   7.956 -0.3553  0.1070  0.2781
  857loPI   C5A13707  14.005  16.661   8.338 -0.1348 -0.0440  0.2331
  857loPI   C6A13708  13.859  16.884   8.633  0.0391 -0.1261 -0.0654
  857loPI   C1B13709  14.156  17.054   6.775 -0.1958  0.0978  0.0677
  857loPI   C2B13710  14.186  17.006   7.239  0.1057 -0.3276 -0.4408
  857loPI   C3B13711  14.130  17.126   7.682  0.3140  0.1352 -0.0221
  857loPI   C4B13712  14.147  17.060   8.075  0.0502 -0.1588 -0.2816
  858loPI    C113713   3.684  11.137   5.233 -0.1528 -0.1042  0.0729
  858loPI    C213714   3.802  10.871   4.959  0.0686  0.0687 -0.0022
  858loPI    C313715   3.445  11.047   4.925 -0.1813 -0.3869  0.1744
  858loPI   PO413716   3.672  11.014   5.506 -0.2391  0.0540 -0.0686
  858loPI   GL113717   3.651  10.949   5.870 -0.0624 -0.1381  0.2627
  858loPI   GL213718   3.798  10.579   5.823 -0.0794 -0.1183  0.2473
  858loPI   C1A13719   3.698  11.167   6.300 -0.1249 -0.0217  0.1390
  858loPI   C2A13720   3.579  11.252   6.709  0.1146 -0.2624 -0.1653
  858loPI   C3A13721   3.570  11.186   7.152 -0.1271 -0.0041  0.2967
  858loPI   C4A13722   3.551  11.178   7.585  0.0382  0.1719 -0.1235
  858loPI   C5A13723   3.584  11.208   7.938  0.0133 -0.1887  0.0259
  858loPI   C6A13724   3.788  11.057   8.374 -0.1193  0.0086 -0.2753
  858loPI   C1B13725   3.825  10.312   6.254 -0.1790  0.1238 -0.0103
  858loPI   C2B13726   3.807  10.330   6.707  0.2382 -0.2998  0.0550
  858loPI   C3B13727   3.685  10.430   7.034 -0.0783 -0.4178  0.3958
  858loPI   C4B13728   3.632  10.327   7.447 -0.0182 -0.1194 -0.1545
  859loPI    C113729   1.178   5.354   5.370 -0.0990 -0.0992  0.0027
  859loPI    C213730   0.946   5.399   5.047 -0.2299  0.0152  0.1115
  859loPI    C313731   1.012   5.034   5.197 -0.0927 -0.0479 -0.0989
  859loPI   PO413732   1.041   5.511   5.545 -0.0901  0.3205 -0.0929
  859loPI   GL113733   0.870   5.398   5.868 -0.0631  0.0819 -0.0412
  859loPI   GL213734   0.725   5.436   6.056 -0.0574  0.2806 -0.0357
  859loPI   C1A13735   1.148   5.555   6.200  0.1795  0.1692  0.3116
  859loPI   C2A13736   1.152   5.597   6.637  0.2728  0.0979  0.1887
  859loPI   C3A13737   1.167   5.607   7.055  0.2787  0.2253  0.1786
  859loPI   C4A13738   1.185   5.579   7.509 -0.1802  0.1676  0.2653
  859loPI   C5A13739   1.162   5.609   8.046 -0.0306 -0.1568 -0.2131
  859loPI   C6A13740   1.469   5.353   8.299  0.0695  0.1231  0.2951
  859loPI   C1B13741   0.707   5.507   6.424  0.1723  0.0558 -0.3181
  859loPI   C2B13742   0.676   5.465   6.834  0.1567  0.0064  0.0407
  859loPI   C3B13743   0.667   5.513   7.279  0.0752  0.2793 -0.0116
  859loPI   C4B13744   0.676   5.555   7.753 -0.0853  0.2082  0.0881
  860loPI    C113745   6.339  17.603   5.341  0.0539  0.0618  0.0465
  860loPI    C213746   6.569  17.786   5.070  0.0956 -0.0413  0.0117
  860loPI    C313747   6.311  17.504   4.954  0.1341 -0.1059  0.0827
  860loPI   PO413748   6.233  17.807   5.493 -0.1792  0.0453  0.1468
  860loPI   GL113749   6.211  18.001   5.921  0.0509 -0.2941 -0.1216
  860loPI   GL213750   5.946  17.831   5.949  0.5060  0.2849 -0.0446
  860loPI   C1A13751   6.277  17.893   6.391 -0.3796 -0.0158  0.1588
  860loPI   C2A13752   6.293  17.998   6.798  0.0072  0.3188  0.1016
  860loPI   C3A13753   6.319  17.978   7.336 -0.0907  0.4768  0.0402
  860loPI   C4A13754   6.257  17.895   7.811 -0.2359  0.0026  0.3063
  860loPI   C5A13755   6.322  17.977   8.235  0.2719 -0.1409  0.0321
  860loPI   C6A13756   5.987  18.137   8.573 -0.0943 -0.0318 -0.1973
  860loPI   C1B13757   5.756  17.842   6.364  0.1656  0.4761 -0.0732
  860loPI   C2B13758   5.673  17.946   6.791  0.0750  0.2161 -0.1008
  860loPI   C3B13759   5.741  18.008   7.272 -0.4351  0.0101 -0.1560
  860loPI   C4B13760   5.774  17.803   7.759  0.0147 -0.1588  0.0411
  861loPI    C113761   5.347  10.203   5.316 -0.1449  0.2226 -0.0180
  861loPI    C213762   5.313   9.815   5.222 -0.0763  0.1921  0.0820
  861loPI    C313763   5.329  10.091   4.932 -0.1438  0.1218  0.0111
  861loPI   PO413764   5.214  10.250   5.608  0.1437 -0.2038  0.2247
  861loPI   GL113765   5.188  10.496   6.002 -0.0952 -0.1823 -0.0119
  861loPI   GL213766   5.451  10.502   6.069  0.1321 -0.1654  0.1614
  861loPI   C1A13767   4.816  10.497   6.296  0.1308 -0.2458  0.0190
  861loPI   C2A13768   4.763  10.538   6.660 -0.1287 -0.0651  0.0098
  861loPI   C3A13769   4.678  10.534   7.093  0.0592 -0.1004 -0.1505
  861loPI   C4A13770   4.708  10.356   7.428 -0.1970 -0.2377 -0.0829
  861loPI   C5A13771   4.532  10.373   7.861 -0.0014  0.1384 -0.2463
  861loPI   C6A13772   4.376  10.314   8.278  0.1912  0.2296 -0.1676
  861loPI   C1B13773   5.262  10.567   6.492  0.2308 -0.2732 -0.0186
  861loPI   C2B13774   5.187  10.543   6.937 -0.0734 -0.2849  0.0501
  861loPI   C3B13775   5.324  10.501   7.426  0.1403  0.0422 -0.1585
  861loPI   C4B13776   5.133  10.336   7.784  0.0271  0.4002 -0.1568
  862loPI    C113777   6.150  12.541   5.295 -0.2872 -0.0535 -0.0622
  862loPI    C213778   6.022  12.512   4.917  0.1444  0.0993 -0.2269
  862loPI    C313779   6.359  12.327   5.029  0.0113  0.0420  0.0903
  862loPI   PO413780   6.157  12.572   5.502  0.0514 -0.0319 -0.0123
  862loPI   GL113781   6.274  12.728   5.879 -0.2006 -0.0242 -0.2592
  862loPI   GL213782   6.506  12.566   5.891 -0.0949 -0.1723  0.0001
  862loPI   C1A13783   6.077  12.632   6.169 -0.1001  0.3232  0.2976
  862loPI   C2A13784   6.125  12.492   6.588 -0.2711 -0.2319  0.2141
  862loPI   C3A13785   6.011  12.521   6.943 -0.2004 -0.0026  0.1769
  862loPI   C4A13786   5.928  12.397   7.414 -0.0490 -0.0300  0.0854
  862loPI   C5A13787   5.967  12.373   7.882 -0.3099  0.4210  0.1920
  862loPI   C6A13788   5.979  12.256   8.233  0.3474  0.1375 -0.0222
  862loPI   C1B13789   6.628  12.647   6.304  0.2474 -0.4040  0.4752
  862loPI   C2B13790   6.567  12.519   6.781  0.0216 -0.1688 -0.2135
  862loPI   C3B13791   6.454  12.539   7.145 -0.0536  0.2084  0.1700
  862loPI   C4B13792   6.398  12.408   7.519 -0.2726  0.1112 -0.0970
  863loPI    C113793   5.878   0.380   5.289 -0.1923 -0.2152 -0.2492
  863loPI    C213794   6.112   0.657   5.121  0.1332 -0.2181  0.1836
  863loPI    C313795   6.143   0.275   5.008  0.2101 -0.1903  0.1097
  863loPI   PO413796   5.937   0.510   5.516  0.2418  0.0009  0.0854
  863loPI   GL113797   5.940   0.674   5.934 -0.0690  0.0925 -0.0765
  863loPI   GL213798   5.651   0.531   6.008 -0.2446 -0.0926 -0.1774
  863loPI   C1A13799   6.020   0.564   6.322  0.1248 -0.0441 -0.0880
  863loPI   C2A13800   5.948   0.601   6.711  0.1803 -0.0062  0.1473
  863loPI   C3A13801   5.924   0.700   7.134 -0.1699 -0.1740  0.1255
  863loPI   C4A13802   6.034   0.571   7.636 -0.0556  0.1327 -0.2481
  863loPI   C5A13803   5.887   0.476   8.033  0.0554  0.0258 -0.2706
  863loPI   C6A13804   5.450   0.312   8.148  0.2547 -0.4582 -0.0478
  863loPI   C1B13805   5.531   0.564   6.437  0.1524 -0.0495 -0.0191
  863loPI   C2B13806   5.403   0.657   6.829 -0.0686  0.1050 -0.2148
  863loPI   C3B13807   5.452   0.688   7.243 -0.1393 -0.0268 -0.3084
  863loPI   C4B13808   5.457   0.500   7.643 -0.2455  0.2121 -0.0108
  864loPI    C113809  12.115  15.924   5.492  0.0472 -0.1628  0.0436
  864loPI    C213810  12.017  15.707   5.171 -0.1470  0.1054 -0.0820
  864loPI    C313811  12.151  16.081   5.126 -0.2707  0.1797  0.1529
  864loPI   PO413812  11.923  15.834   5.712  0.5392  0.0533  0.0607
  864loPI   GL113813  11.727  16.054   5.981 -0.1566  0.0536 -0.2705
  864loPI   GL213814  11.556  16.296   6.082  0.3195  0.0778 -0.1931
  864loPI   C1A13815  11.781  16.030   6.439 -0.0303 -0.1679 -0.0773
  864loPI   C2A13816  11.772  16.083   6.812  0.0009 -0.0144  0.1190
  864loPI   C3A13817  11.726  15.971   7.255  0.0307  0.0117 -0.0750
  864loPI   C4A13818  11.742  15.860   7.729 -0.2108  0.1406  0.0222
  864loPI   C5A13819  11.675  15.841   8.227 -0.0831 -0.0662 -0.0308
  864loPI   C6A13820  11.852  15.488   8.437 -0.1662 -0.0062 -0.2411
  864loPI   C1B13821  11.444  16.474   6.530  0.1182  0.4500 -0.3242
  864loPI   C2B13822  11.357  16.418   6.903  0.0895  0.2077 -0.1510
  864loPI   C3B13823  11.404  16.426   7.317 -0.0026 -0.0829  0.0581
  864loPI   C4B13824  11.432  16.272   7.682  0.0103 -0.2665 -0.0041
  865loPI    C113825   9.309  16.409   5.376  0.2122 -0.0405  0.3652
  865loPI    C213826   9.561  16.719   5.401  0.1450  0.0483  0.0038
  865loPI    C313827   9.554  16.493   5.071 -0.0008 -0.1713  0.1544
  865loPI   PO413828   9.318  16.357   5.633  0.2696 -0.0783 -0.2081
  865loPI   GL113829   9.358  16.309   6.092  0.1358  0.0176 -0.0308
  865loPI   GL213830   9.072  16.177   6.137  0.3785  0.1140  0.0501
  865loPI   C1A13831   9.424  16.069   6.484  0.1721 -0.1602 -0.1266
  865loPI   C2A13832   9.365  16.038   6.827 -0.1385 -0.0919 -0.0543
  865loPI   C3A13833   9.372  16.105   7.227 -0.1742  0.3535  0.0720
  865loPI   C4A13834   9.362  16.021   7.695  0.0833 -0.1627 -0.1225
  865loPI   C5A13835   9.292  16.007   8.146  0.0403  0.1219 -0.1175
  865loPI   C6A13836   9.376  16.074   8.643  0.0404 -0.0652  0.0622
  865loPI   C1B13837   8.858  16.053   6.567  0.3091  0.1119  0.0548
  865loPI   C2B13838   8.859  16.080   7.037 -0.2470 -0.0081  0.0499
  865loPI   C3B13839   8.800  15.998   7.443 -0.0414 -0.0348 -0.2155
  865loPI   C4B13840   8.806  15.907   7.833  0.1449  0.0733 -0.1546
  866loPI    C113841  14.168   0.337   5.723  0.0475 -0.1960  0.1291
  866loPI    C213842  14.309   0.616   5.475  0.2203 -0.1633  0.2618
  866loPI    C313843  14.177   0.268   5.330  0.3645 -0.1635  0.1279
  866loPI   PO413844  14.315   0.389   5.947  0.0812 -0.2128  0.2972
  866loPI   GL113845  14.729   0.182   6.122 -0.1452 -0.1118 -0.0158
  866loPI   GL213846  14.843  -0.085   6.287  0.0272 -0.0492 -0.0260
  866loPI   C1A13847  14.564   0.285   6.566 -0.1422  0.1913  0.2230
  866loPI   C2A13848  14.591   0.365   7.048  0.0531  0.0115 -0.2024
  866loPI   C3A13849  14.564   0.313   7.434 -0.0947 -0.0167  0.0127
  866loPI   C4A13850  14.489   0.286   7.779 -0.0848 -0.1690 -0.0056
  866loPI   C5A13851  14.647   0.310   8.278  0.1862 -0.0105 -0.0847
  866loPI   C6A13852  14.502   0.383   8.605  0.1123 -0.0683 -0.2108
  866loPI   C1B13853  14.853  -0.118   6.707  0.2759  0.2766 -0.2623
  866loPI   C2B13854  14.833  -0.057   7.180  0.2998  0.1719 -0.0310
  866loPI   C3B13855  14.864  -0.146   7.690 -0.0779 -0.0748  0.0399
  866loPI   C4B13856  14.892  -0.097   8.074 -0.1066 -0.2654  0.0840
  867loPI    C113857  15.090  16.047   5.387 -0.1186  0.1819  0.2575
  867loPI    C213858  15.047  16.329   5.106  0.1292  0.0150  0.0470
  867loPI    C313859  15.078  15.945   5.000 -0.1654 -0.0913  0.3292
  867loPI   PO413860  14.943  16.138   5.564  0.0597  0.0392  0.2796
  867loPI   GL113861  15.010  16.078   5.995 -0.3356  0.2101  0.0855
  867loPI   GL213862  14.906  16.311   6.182 -0.0720 -0.0119 -0.0347
  867loPI   C1A13863  15.166  15.847   6.438  0.0170  0.0107  0.0710
  867loPI   C2A13864  15.176  15.788   6.884  0.0445 -0.1757  0.1001
  867loPI   C3A13865  15.085  15.859   7.283 -0.0210  0.0093  0.1421
  867loPI   C4A13866  15.036  15.860   7.757  0.1587 -0.0220  0.3702
  867loPI   C5A13867  15.205  15.896   8.184  0.0226 -0.3012  0.1301
  867loPI   C6A13868  15.543  16.079   8.375  0.0884  0.0902  0.1240
  867loPI   C1B13869  14.838  16.193   6.601  0.1357 -0.0554 -0.0316
  867loPI   C2B13870  14.766  16.241   7.041  0.0128  0.1405 -0.1645
  867loPI   C3B13871  14.721  16.251   7.511  0.0961 -0.0365  0.1664
  867loPI   C4B13872  14.710  16.219   7.912  0.1190  0.0773  0.0663
  868loPI    C113873   7.756  11.840   5.386 -0.0810  0.1407 -0.3208
  868loPI    C213874   7.501  11.566   5.526  0.1052  0.1668  0.0857
  868loPI    C313875   7.548  11.613   5.131 -0.1732 -0.1539  0.0093
  868loPI   PO413876   7.677  12.068   5.605 -0.1186 -0.2344  0.0622
  868loPI   GL113877   7.736  12.302   6.006 -0.1995 -0.0423  0.2075
  868loPI   GL213878   7.431  12.263   6.191  0.3108 -0.1008 -0.2106
  868loPI   C1A13879   7.897  12.347   6.454 -0.2489 -0.0107  0.1763
  868loPI   C2A13880   7.834  12.301   6.903 -0.3489 -0.2285 -0.0698
  868loPI   C3A13881   7.775  12.238   7.286  0.1069 -0.1302  0.3070
  868loPI   C4A13882   7.672  12.268   7.722  0.1367  0.2783  0.0119
  868loPI   C5A13883   7.825  12.279   8.157 -0.1917 -0.0391  0.1022
  868loPI   C6A13884   8.085  12.549   8.438 -0.0771  0.3084 -0.1310
  868loPI   C1B13885   7.382  12.330   6.632  0.2334 -0.3402 -0.0444
  868loPI   C2B13886   7.324  12.266   7.063 -0.2546 -0.1797  0.0757
  868loPI   C3B13887   7.248  12.116   7.507 -0.1433  0.1456 -0.2346
  868loPI   C4B13888   7.175  12.191   7.934 -0.1203  0.1153  0.1387
  869loPI    C113889   8.641  13.864   5.397 -0.1127  0.0569 -0.2818
  869loPI    C213890   8.894  13.678   5.150 -0.0422 -0.1583 -0.0520
  869loPI    C313891   8.886  14.078   5.165  0.3277 -0.1489 -0.0192
  869loPI   PO413892   8.658  13.823   5.669 -0.0188 -0.1428  0.1150
  869loPI   GL113893   8.472  13.718   6.062  0.1546 -0.1974  0.0860
  869loPI   GL213894   8.176  13.922   5.916  0.3328 -0.1755  0.1039
  869loPI   C1A13895   8.438  13.730   6.384 -0.0461 -0.3179 -0.2712
  869loPI   C2A13896   8.448  13.682   6.867  0.0056  0.0896  0.0645
  869loPI   C3A13897   8.389  13.725   7.245 -0.0929 -0.1389  0.0626
  869loPI   C4A13898   8.321  13.671   7.640 -0.1623  0.2217  0.2588
  869loPI   C5A13899   8.159  13.779   8.002  0.1669 -0.2573 -0.2042
  869loPI   C6A13900   8.407  14.018   8.415 -0.0197 -0.0599 -0.1996
  869loPI   C1B13901   8.123  14.090   6.380  0.0464 -0.2276 -0.1643
  869loPI   C2B13902   8.208  14.123   6.759  0.2428 -0.1564 -0.0339
  869loPI   C3B13903   8.118  14.125   7.168  0.0769 -0.0905  0.0943
  869loPI   C4B13904   8.080  14.168   7.589  0.0499  0.0823  0.0974
  870loPI    C113905   3.812   7.261   5.431 -0.0087  0.1117  0.0991
  870loPI    C213906   4.096   7.330   5.159  0.1521 -0.2259  0.1761
  870loPI    C313907   3.740   7.190   5.044  0.1038 -0.0498  0.1071
  870loPI   PO413908   3.903   7.378   5.695 -0.2184  0.2113  0.0205
  870loPI   GL113909   3.985   7.362   6.107 -0.0546 -0.0733 -0.0121
  870loPI   GL213910   3.751   7.151   6.306  0.0726  0.3285 -0.0692
  870loPI   C1A13911   4.080   7.553   6.508  0.1147 -0.5959  0.0737
  870loPI   C2A13912   4.071   7.572   7.040  0.0271 -0.2450 -0.1111
  870loPI   C3A13913   4.028   7.550   7.445  0.1855 -0.0301  0.2455
  870loPI   C4A13914   4.103   7.583   7.846 -0.0001 -0.2366 -0.2548
  870loPI   C5A13915   4.026   7.568   8.243  0.0904 -0.0169  0.0176
  870loPI   C6A13916   3.696   7.363   8.466 -0.1015 -0.2512 -0.0604
  870loPI   C1B13917   3.887   7.141   6.750 -0.0782  0.1910  0.0737
  870loPI   C2B13918   3.855   7.113   7.160  0.0355  0.0015  0.1371
  870loPI   C3B13919   3.878   7.110   7.631 -0.0268  0.1188 -0.2134
  870loPI   C4B13920   3.852   7.044   8.016 -0.1482 -0.1678  0.3864
  871loPI    C113921   6.359  11.491   5.685  0.1474 -0.0512 -0.0825
  871loPI    C213922   6.463  11.235   5.974 -0.0877 -0.0471  0.0077
  871loPI    C313923   6.322  11.097   5.626 -0.3512 -0.0399  0.1094
  871loPI   PO413924   6.210  11.655   5.778  0.2354  0.1375 -0.0183
  871loPI   GL113925   6.138  11.590   6.162 -0.1535 -0.0318  0.2346
  871loPI   GL213926   5.967  11.281   6.137 -0.0098  0.2952 -0.1203
  871loPI   C1A13927   6.106  11.616   6.636  0.0054  0.1709 -0.1029
  871loPI   C2A13928   6.097  11.458   7.060 -0.1091 -0.2153  0.0594
  871loPI   C3A13929   6.135  11.501   7.449  0.1069 -0.1358  0.2192
  871loPI   C4A13930   6.066  11.496   7.861  0.2210 -0.1768 -0.1076
  871loPI   C5A13931   6.051  11.240   8.233 -0.1874  0.0469 -0.0235
  871loPI   C6A13932   6.046  11.167   8.654 -0.1835 -0.2257  0.0431
  871loPI   C1B13933   5.911  11.146   6.552 -0.2022  0.0469  0.1762
  871loPI   C2B13934   5.882  10.979   7.018 -0.0031  0.4381  0.0510
  871loPI   C3B13935   5.950  11.029   7.465  0.1345 -0.2000 -0.2033
  871loPI   C4B13936   6.022  10.970   7.864 -0.2466  0.1580 -0.2218
  872loPI    C113937   2.130   0.255   5.698  0.0863  0.0836  0.2144
  872loPI    C213938   2.034   0.258   5.310  0.0917 -0.1078  0.2103
  872loPI    C313939   2.313   0.509   5.449  0.1223 -0.0703  0.0826
  872loPI   PO413940   1.944   0.173   5.847  0.0924  0.0134 -0.1504
  872loPI   GL113941   1.796  -0.096   6.236 -0.1850  0.0488  0.2396
  872loPI   GL213942   2.031  -0.115   6.363  0.1861  0.2177  0.0265
  872loPI   C1A13943   1.537  -0.176   6.680  0.1430  0.0412 -0.0991
  872loPI   C2A13944   1.538  -0.207   7.103 -0.1177  0.0683 -0.0991
  872loPI   C3A13945   1.537  -0.170   7.571  0.1191  0.1804  0.1593
  872loPI   C4A13946   1.508  -0.065   7.962 -0.1751 -0.2283 -0.1979
  872loPI   C5A13947   1.426  -0.046   8.395  0.0765  0.2157 -0.0043
  872loPI   C6A13948   1.709  -0.236   8.770 -0.1943 -0.1652 -0.1037
  872loPI   C1B13949   2.062  -0.185   6.799  0.1607  0.0148  0.0248
  872loPI   C2B13950   2.068  -0.144   7.206  0.0851 -0.1292 -0.0972
  872loPI   C3B13951   2.047  -0.061   7.674 -0.1107  0.0877 -0.1114
  872loPI   C4B13952   1.985   0.042   8.034 -0.3206  0.1839  0.2506
  873loPI    C113953   1.209   7.855   5.600 -0.1297  0.1417 -0.0703
  873loPI    C213954   0.863   7.903   5.794  0.0232  0.4252  0.1388
  873loPI    C313955   1.052   8.221   5.642  0.0196  0.2318 -0.2810
  873loPI   PO413956   1.387   7.760   5.787  0.1076  0.0614  0.0313
  873loPI   GL113957   1.323   7.873   6.188  0.2030  0.0222 -0.1398
  873loPI   GL213958   1.290   8.241   6.122  0.1795  0.0356 -0.1465
  873loPI   C1A13959   1.339   7.812   6.604 -0.0607  0.1436 -0.1436
  873loPI   C2A13960   1.338   7.779   7.029 -0.1166  0.1867  0.0016
  873loPI   C3A13961   1.164   7.814   7.384  0.0546  0.4413 -0.2760
  873loPI   C4A13962   1.233   7.799   7.808  0.1514 -0.4728 -0.0584
  873loPI   C5A13963   1.287   7.816   8.257 -0.1869 -0.1693  0.1502
  873loPI   C6A13964   1.349   8.077   8.659  0.1529  0.1361 -0.0258
  873loPI   C1B13965   1.497   8.340   6.503 -0.2750 -0.1819  0.1621
  873loPI   C2B13966   1.459   8.262   6.838 -0.1416 -0.0609 -0.0000
  873loPI   C3B13967   1.380   8.253   7.211 -0.2727  0.2129  0.1483
  873loPI   C4B13968   1.469   8.209   7.547  0.2089  0.0366  0.2141
  874loPI    C113969  14.641  14.604   5.591  0.0312 -0.0284 -0.2138
  874loPI    C213970  15.021  14.704   5.517  0.0222  0.0806 -0.1168
  874loPI    C313971  14.806  14.515   5.238  0.2447 -0.2720 -0.0556
  874loPI   PO413972  14.678  14.432   5.862  0.1971  0.0247 -0.1295
  874loPI   GL113973  14.841  14.457   6.231 -0.1007  0.0956 -0.0546
  874loPI   GL213974  14.491  14.575   6.384  0.1139  0.0163  0.0597
  874loPI   C1A13975  14.955  14.604   6.565 -0.0379  0.0605  0.0055
  874loPI   C2A13976  14.927  14.559   6.975  0.1485  0.0657 -0.2638
  874loPI   C3A13977  14.971  14.411   7.389  0.0968  0.2343 -0.2334
  874loPI   C4A13978  14.966  14.439   7.756 -0.2065  0.0267 -0.0207
  874loPI   C5A13979  14.997  14.641   8.114  0.0791  0.0545 -0.0822
  874loPI   C6A13980  15.322  14.652   8.398 -0.0990  0.0822 -0.0724
  874loPI   C1B13981  14.415  14.507   6.788  0.1259 -0.1175  0.0235
  874loPI   C2B13982  14.462  14.393   7.190  0.3396  0.2994  0.0450
  874loPI   C3B13983  14.443  14.406   7.614  0.2153 -0.0371 -0.1174
  874loPI   C4B13984  14.523  14.466   8.035 -0.1914 -0.2692  0.0630
  875loPI    C113985   8.751  15.661   5.367 -0.1673  0.1456  0.0787
  875loPI    C213986   8.367  15.558   5.321 -0.1469  0.0657  0.0851
  875loPI    C313987   8.563  15.739   5.023 -0.0633 -0.2962 -0.0846
  875loPI   PO413988   8.748  15.718   5.626 -0.3430 -0.0890 -0.1330
  875loPI   GL113989   8.772  15.724   6.062  0.1896  0.0582 -0.2823
  875loPI   GL213990   8.598  15.916   6.084  0.2489 -0.3579  0.0356
  875loPI   C1A13991   8.668  15.549   6.511 -0.0750  0.1155  0.1071
  875loPI   C2A13992   8.634  15.649   6.976  0.1699 -0.2319 -0.1414
  875loPI   C3A13993   8.604  15.523   7.408 -0.0764  0.0294 -0.3621
  875loPI   C4A13994   8.625  15.433   7.848  0.0709 -0.1414  0.1184
  875loPI   C5A13995   8.371  15.647   8.165 -0.2129 -0.0821 -0.0947
  875loPI   C6A13996   8.054  15.509   8.452  0.1231  0.2363 -0.3677
  875loPI   C1B13997   8.396  15.925   6.458 -0.0838 -0.1655 -0.0931
  875loPI   C2B13998   8.327  16.019   6.833 -0.3056  0.2443  0.1013
  875loPI   C3B13999   8.337  15.979   7.234  0.0232  0.0995  0.1141
  875loPI   C4B14000   8.313  15.873   7.635 -0.1738 -0.0319 -0.0018
  876loPI    C114001   1.355   9.227   5.303 -0.2431 -0.1204 -0.0563
  876loPI    C214002   1.414   9.413   4.954 -0.0119  0.2376  0.1658
  876loPI    C314003   1.569   9.049   5.016  0.0098  0.2037 -0.0749
  876loPI   PO414004   1.422   9.404   5.521  0.0508  0.0526 -0.2599
  876loPI   GL114005   1.494   9.542   5.990 -0.1916  0.1687 -0.2010
  876loPI   GL214006   1.656   9.733   6.204  0.1292  0.0780 -0.1122
  876loPI   C1A14007   1.287   9.308   6.324  0.1220  0.1559  0.0214
  876loPI   C2A14008   1.331   9.205   6.756 -0.2009  0.1348 -0.1549
  876loPI   C3A14009   1.288   9.131   7.133 -0.3817  0.2057 -0.1035
  876loPI   C4A14010   1.285   9.125   7.574 -0.0004  0.1108 -0.1569
  876loPI   C5A14011   1.225   9.041   8.008 -0.0215  0.0959  0.1328
  876loPI   C6A14012   1.086   8.943   8.418  0.1800 -0.0799  0.0247
  876loPI   C1B14013   1.604   9.556   6.537  0.2550 -0.2940  0.2055
  876loPI   C2B14014   1.585   9.620   6.965 -0.1912 -0.1640 -0.0559
  876loPI   C3B14015   1.434   9.611   7.328 -0.0506  0.2491 -0.2737
  876loPI   C4B14016   1.355   9.571   7.818 -0.2774 -0.0625 -0.2123
  877loPI    C114017   1.247  15.134   5.651  0.1276  0.0473  0.0138
  877loPI    C214018   1.236  15.182   5.254 -0.0984  0.2285  0.0404
  877loPI    C314019   1.095  14.846   5.418  0.2285  0.0439 -0.0485
  877loPI   PO414020   1.489  15.082   5.716  0.2009  0.2487 -0.1078
  877loPI   GL114021   1.575  15.151   6.064  0.0382  0.0550 -0.1849
  877loPI   GL214022   1.853  14.971   6.237 -0.1717 -0.2268  0.4279
  877loPI   C1A14023   1.371  14.960   6.439  0.1351  0.1303 -0.0747
  877loPI   C2A14024   1.287  14.961   6.908 -0.0761 -0.1053 -0.2899
  877loPI   C3A14025   1.309  14.967   7.350 -0.2055  0.0143 -0.0093
  877loPI   C4A14026   1.315  14.946   7.739 -0.0162 -0.1196 -0.2700
  877loPI   C5A14027   1.210  14.981   8.214  0.2825  0.0979  0.0230
  877loPI   C6A14028   1.135  14.994   8.622 -0.0674  0.0167 -0.1264
  877loPI   C1B14029   1.794  15.001   6.675  0.3396 -0.3993 -0.1150
  877loPI   C2B14030   1.824  15.020   7.170 -0.0460  0.2724 -0.0111
  877loPI   C3B14031   1.809  15.028   7.609 -0.2179  0.1331  0.1936
  877loPI   C4B14032   1.699  15.015   8.075  0.0046  0.2464 -0.0922
  878loPI    C114033  11.320   8.621   5.371  0.0792 -0.0388 -0.0675
  878loPI    C214034  11.108   8.744   5.055 -0.0544  0.1996  0.1116
  878loPI    C314035  11.197   8.357   5.097 -0.1059  0.1543 -0.1740
  878loPI   PO414036  11.233   8.638   5.563  0.2191 -0.1843 -0.0763
  878loPI   GL114037  11.198   8.464   6.010  0.0195  0.2600  0.0094
  878loPI   GL214038  11.237   8.067   6.070 -0.0149  0.2751 -0.4226
  878loPI   C1A14039  11.136   8.550   6.409  0.0795 -0.2682 -0.2254
  878loPI   C2A14040  11.107   8.622   6.876 -0.1833  0.2600  0.3332
  878loPI   C3A14041  11.090   8.633   7.257  0.0809 -0.0150  0.0707
  878loPI   C4A14042  11.071   8.647   7.695 -0.0447 -0.0218 -0.0622
  878loPI   C5A14043  11.048   8.638   8.107 -0.3087 -0.0606  0.1468
  878loPI   C6A14044  10.836   8.420   8.442  0.1239  0.1601  0.1149
  878loPI   C1B14045  11.437   8.093   6.497  0.0200 -0.0761  0.2029
  878loPI   C2B14046  11.441   8.265   6.934 -0.0782  0.0732 -0.2620
  878loPI   C3B14047  11.403   8.217   7.340 -0.0780 -0.1140  0.2049
  878loPI   C4B14048  11.421   8.200   7.805  0.1440 -0.0064 -0.1391
  879loPI    C114049   7.942   3.045   5.117  0.1469 -0.1047 -0.0173
  879loPI    C214050   7.888   3.205   4.754 -0.0099  0.3035  0.1792
  879loPI    C314051   8.138   2.896   4.802 -0.0467  0.1941 -0.2853
  879loPI   PO414052   7.963   3.198   5.349 -0.0859 -0.0848  0.2195
  879loPI   GL114053   7.938   3.147   5.762  0.1636  0.1916  0.0795
  879loPI   GL214054   7.806   2.881   5.918 -0.0778  0.0034 -0.1374
  879loPI   C1A14055   7.999   3.185   6.232 -0.1625  0.0428  0.0002
  879loPI   C2A14056   7.945   3.160   6.656 -0.3175  0.0359  0.1420
  879loPI   C3A14057   7.961   3.281   7.077  0.0658  0.1508  0.0661
  879loPI   C4A14058   7.885   3.209   7.469  0.0355 -0.0197 -0.0957
  879loPI   C5A14059   7.954   3.179   7.933  0.0052  0.4454  0.0632
  879loPI   C6A14060   7.874   3.224   8.431 -0.0692 -0.1462 -0.0568
  879loPI   C1B14061   7.729   2.730   6.260  0.2656 -0.3624  0.2074
  879loPI   C2B14062   7.785   2.710   6.726 -0.0786 -0.1169 -0.0298
  879loPI   C3B14063   7.796   2.767   7.222 -0.2267 -0.0115 -0.2228
  879loPI   C4B14064   7.788   2.726   7.690 -0.1076 -0.2818  0.0205
  880loPI    C114065   5.803  16.810   5.518  0.1797 -0.0482  0.0279
  880loPI    C214066   5.620  17.047   5.253 -0.0578  0.0320  0.2601
  880loPI    C314067   5.671  16.659   5.172 -0.1824  0.0434  0.1219
  880loPI   PO414068   5.755  16.789   5.751 -0.1484 -0.3043 -0.1432
  880loPI   GL114069   5.554  16.940   6.175  0.1109 -0.0532 -0.1001
  880loPI   GL214070   5.671  16.626   6.196 -0.3412 -0.0051  0.2884
  880loPI   C1A14071   5.382  16.996   6.637 -0.1103  0.1828 -0.1981
  880loPI   C2A14072   5.424  16.928   7.102 -0.0259 -0.2295 -0.2750
  880loPI   C3A14073   5.434  16.839   7.485 -0.0316  0.1454 -0.0355
  880loPI   C4A14074   5.380  17.009   7.924  0.0353  0.3172 -0.0668
  880loPI   C5A14075   4.988  17.196   8.158  0.1811  0.2331  0.1948
  880loPI   C6A14076   5.061  17.226   8.569 -0.0271 -0.1047 -0.1108
  880loPI   C1B14077   5.753  16.512   6.572  0.1330 -0.3712  0.1548
  880loPI   C2B14078   5.743  16.515   6.996 -0.0464 -0.1651  0.1157
  880loPI   C3B14079   5.726  16.442   7.426  0.1489  0.0527  0.4185
  880loPI   C4B14080   5.687  16.536   7.828 -0.0093 -0.0072  0.1169
  881loPI    C114081  14.678  11.644   6.173 -0.1667 -0.1828  0.1287
  881loPI    C214082  14.313  11.807   6.176 -0.0656  0.0666 -0.2893
  881loPI    C314083  14.480  11.698   5.830  0.3262  0.1130 -0.1198
  881loPI   PO414084  14.779  11.805   6.329 -0.5264  0.0511 -0.0420
  881loPI   GL114085  14.879  11.902   6.729 -0.1280  0.0051 -0.1291
  881loPI   GL214086  15.200  11.662   6.750 -0.0789  0.2407  0.0549
  881loPI   C1A14087  14.921  12.196   7.083  0.4242  0.0157 -0.1298
  881loPI   C2A14088  15.102  12.141   7.540  0.2109 -0.3367  0.1570
  881loPI   C3A14089  14.909  11.972   7.851 -0.0428 -0.0174 -0.0602
  881loPI   C4A14090  14.545  12.027   8.151  0.0498 -0.0431 -0.0794
  881loPI   C5A14091  14.509  12.202   8.629 -0.1281  0.0748  0.0754
  881loPI   C6A14092  14.511  11.992   8.954  0.1107  0.1809  0.2607
  881loPI   C1B14093  15.034  11.353   7.003 -0.2748 -0.0647  0.1590
  881loPI   C2B14094  14.587  11.268   7.082  0.2576 -0.0991  0.1845
  881loPI   C3B14095  14.443  11.290   7.476 -0.2822  0.0743  0.0566
  881loPI   C4B14096  14.095  11.227   7.709  0.1047 -0.0444 -0.2636
  882loPI    C114097  17.187  12.511   5.853 -0.2448 -0.2821 -0.1237
  882loPI    C214098  17.121  12.753   5.542 -0.3340  0.0586  0.1533
  882loPI    C314099  17.437  12.508   5.542 -0.3038  0.0932 -0.1797
  882loPI   PO414100  17.235  12.577   6.035  0.0364 -0.0471  0.0045
  882loPI   GL114101  17.423  12.660   6.351  0.0246 -0.4370 -0.0004
  882loPI   GL214102  17.286  12.906   6.528  0.0644  0.1142  0.2535
  882loPI   C1A14103  17.520  12.458   6.697  0.0803  0.3113 -0.2241
  882loPI   C2A14104  17.596  12.519   7.107  0.2552 -0.0062 -0.4532
  882loPI   C3A14105  17.608  12.573   7.530  0.0317  0.1035  0.0112
  882loPI   C4A14106  17.562  12.551   7.967  0.0700  0.0019  0.0143
  882loPI   C5A14107  17.351  12.493   8.328  0.4121  0.1634 -0.1239
  882loPI   C6A14108  17.156  12.147   8.510 -0.1478 -0.0698  0.1477
  882loPI   C1B14109  17.198  12.947   6.892  0.1091  0.1578  0.0659
  882loPI   C2B14110  17.198  12.910   7.248  0.3641 -0.1532 -0.1807
  882loPI   C3B14111  17.276  12.916   7.635  0.3355 -0.3180 -0.1781
  882loPI   C4B14112  17.197  13.081   8.005 -0.0430  0.0487 -0.1791
  883loPI    C114113  14.710   6.578   5.677  0.1347 -0.1165 -0.1236
  883loPI    C214114  14.762   6.482   5.292 -0.1957  0.0398 -0.2111
  883loPI    C314115  14.419   6.648   5.412 -0.0572  0.0851  0.1352
  883loPI   PO414116  14.727   6.466   5.858  0.0756 -0.0523 -0.0187
  883loPI   GL114117  14.864   6.525   6.190 -0.2749 -0.1915  0.0754
  883loPI   GL214118  15.083   6.335   6.205  0.3337 -0.1251 -0.1570
  883loPI   C1A14119  14.648   6.843   6.465 -0.0925  0.0187  0.1736
  883loPI   C2A14120  14.624   6.895   6.838 -0.0137 -0.4438 -0.3282
  883loPI   C3A14121  14.683   6.836   7.211 -0.0169  0.0034 -0.1652
  883loPI   C4A14122  14.693   6.924   7.700 -0.2282  0.0606  0.3919
  883loPI   C5A14123  14.649   6.803   8.112 -0.1397 -0.3032  0.0721
  883loPI   C6A14124  14.536   6.426   8.319 -0.1577 -0.2636  0.0664
  883loPI   C1B14125  14.942   6.435   6.655 -0.1215  0.1607  0.1410
  883loPI   C2B14126  14.956   6.446   7.109 -0.1846  0.1621 -0.1785
  883loPI   C3B14127  14.934   6.499   7.536 -0.0010 -0.0935 -0.0818
  883loPI   C4B14128  14.957   6.473   7.936  0.0402  0.0418 -0.0964
  884loPI    C114129  16.328  12.097   5.939  0.0063 -0.1701  0.0049
  884loPI    C214130  16.043  11.861   5.788  0.0314 -0.1704 -0.0419
  884loPI    C314131  16.184  12.166   5.572  0.0447 -0.1517 -0.0067
  884loPI   PO414132  16.294  12.130   6.150  0.1710  0.2583  0.2026
  884loPI   GL114133  16.280  11.987   6.625 -0.2850 -0.0150 -0.2319
  884loPI   GL214134  16.060  12.285   6.592  0.3473  0.0796 -0.1777
  884loPI   C1A14135  16.181  11.829   6.930 -0.0181 -0.0120 -0.2748
  884loPI   C2A14136  15.816  11.747   7.115  0.1527 -0.0073 -0.0696
  884loPI   C3A14137  15.710  11.808   7.519 -0.2071 -0.1082 -0.2821
  884loPI   C4A14138  15.599  11.896   7.923  0.2192  0.0299  0.3681
  884loPI   C5A14139  15.703  11.632   8.279 -0.1514  0.1014 -0.0032
  884loPI   C6A14140  15.625  11.464   8.679  0.0860  0.0179  0.0252
  884loPI   C1B14141  15.994  12.305   6.978  0.0772  0.0781 -0.0521
  884loPI   C2B14142  16.007  12.304   7.364 -0.1434 -0.1134  0.1117
  884loPI   C3B14143  16.241  11.906   7.515  0.2941  0.0489  0.1426
  884loPI   C4B14144  16.114  11.456   7.360 -0.0088 -0.0794 -0.0558
  885loPI    C114145  13.936   1.777   5.763  0.0961 -0.1262  0.1270
  885loPI    C214146  14.059   1.452   5.565 -0.0408 -0.0801 -0.0363
  885loPI    C314147  14.124   1.815   5.412  0.2716 -0.0188  0.2311
  885loPI   PO414148  14.007   1.789   5.995  0.1120  0.1573 -0.0239
  885loPI   GL114149  13.878   1.790   6.375 -0.2031  0.0501 -0.0306
  885loPI   GL214150  13.719   1.629   6.593 -0.1230 -0.0933 -0.1312
  885loPI   C1A14151  13.965   2.000   6.814  0.1525 -0.0040  0.1031
  885loPI   C2A14152  13.871   1.973   7.181  0.0508 -0.0396  0.1062
  885loPI   C3A14153  13.780   1.965   7.565 -0.1694 -0.1216  0.2372
  885loPI   C4A14154  13.826   2.009   7.955 -0.1725 -0.3705 -0.0426
  885loPI   C5A14155  13.823   2.039   8.457  0.2749  0.1377  0.0027
  885loPI   C6A14156  14.120   2.050   8.799 -0.0659  0.2807 -0.1968
  885loPI   C1B14157  13.689   1.558   7.020 -0.0334 -0.1470 -0.1210
  885loPI   C2B14158  13.569   1.541   7.396  0.1173 -0.2523  0.0130
  885loPI   C3B14159  13.639   1.520   7.774  0.1261  0.0837 -0.2037
  885loPI   C4B14160  13.579   1.665   8.205  0.4039  0.0079  0.0764
  886loPI    C114161   7.991   4.407   5.312 -0.1392  0.0622  0.0320
  886loPI    C214162   7.670   4.387   5.075 -0.1060 -0.0539 -0.0041
  886loPI    C314163   7.986   4.605   4.965 -0.1114 -0.0651 -0.0418
  886loPI   PO414164   7.932   4.441   5.476 -0.0092 -0.0010 -0.1038
  886loPI   GL114165   7.670   4.211   5.790 -0.0001 -0.3302 -0.2855
  886loPI   GL214166   7.843   4.028   5.731 -0.0791 -0.0763  0.0728
  886loPI   C1A14167   7.540   4.417   6.152  0.2204 -0.0201  0.1439
  886loPI   C2A14168   7.611   4.517   6.562 -0.1193 -0.1032 -0.1700
  886loPI   C3A14169   7.546   4.514   7.055  0.0557  0.1066  0.1798
  886loPI   C4A14170   7.545   4.535   7.495  0.0299  0.0429  0.0322
  886loPI   C5A14171   7.565   4.560   7.972 -0.3983  0.1000 -0.0413
  886loPI   C6A14172   7.467   4.634   8.457 -0.0307 -0.1998  0.1479
  886loPI   C1B14173   7.868   4.077   6.230  0.0652 -0.0650  0.1023
  886loPI   C2B14174   7.864   4.134   6.650  0.0742  0.0288 -0.2087
  886loPI   C3B14175   7.760   4.077   7.088 -0.0305 -0.1705 -0.1604
  886loPI   C4B14176   7.851   4.079   7.508 -0.1237 -0.1150 -0.1043
  887loPI    C114177   7.473  14.339   5.382  0.1038 -0.3154  0.0304
  887loPI    C214178   7.794  14.294   5.148  0.0983  0.1929 -0.0877
  887loPI    C314179   7.428  14.295   4.988  0.0405 -0.2398  0.0288
  887loPI   PO414180   7.502  14.210   5.539 -0.0637 -0.1304  0.1288
  887loPI   GL114181   7.362  14.151   6.017 -0.1675  0.1760  0.0856
  887loPI   GL214182   7.604  14.085   6.203 -0.1487 -0.0410 -0.4324
  887loPI   C1A14183   7.139  14.061   6.502  0.1969  0.0995 -0.1892
  887loPI   C2A14184   7.087  13.995   6.868 -0.1171 -0.0630 -0.3588
  887loPI   C3A14185   7.016  13.981   7.307 -0.1315 -0.1572 -0.0401
  887loPI   C4A14186   6.966  13.900   7.752  0.1161 -0.0244  0.0868
  887loPI   C5A14187   7.214  14.105   8.032  0.0091  0.1887  0.1591
  887loPI   C6A14188   7.160  14.507   8.188 -0.0713 -0.1473  0.1440
  887loPI   C1B14189   7.616  14.065   6.702  0.2683  0.0927  0.0966
  887loPI   C2B14190   7.646  14.099   7.057 -0.0303  0.1677  0.5533
  887loPI   C3B14191   7.491  13.988   7.498 -0.2138  0.0212  0.0583
  887loPI   C4B14192   7.719  14.019   7.928 -0.1715  0.1514  0.2744
  888loPI    C114193  17.567  15.037   5.698 -0.0486 -0.0080  0.2865
  888loPI    C214194  17.904  14.826   5.653  0.0213  0.1330  0.1400
  888loPI    C314195  17.608  14.791   5.386  0.0500  0.2509  0.0924
  888loPI   PO414196  17.552  15.112   5.938  0.1313  0.1018  0.1248
  888loPI   GL114197  17.690  15.038   6.204  0.2664 -0.1352 -0.0019
  888loPI   GL214198  17.868  14.744   6.117 -0.1852  0.0208 -0.2562
  888loPI   C1A14199  17.714  15.126   6.631  0.2088 -0.0697 -0.0869
  888loPI   C2A14200  17.682  15.207   7.062  0.0225  0.0147  0.2695
  888loPI   C3A14201  17.627  15.245   7.478 -0.3269  0.2794  0.0905
  888loPI   C4A14202  17.569  15.345   7.913 -0.3742 -0.2829 -0.0540
  888loPI   C5A14203  17.546  15.202   8.323  0.1403  0.4033 -0.2231
  888loPI   C6A14204  17.187  15.005   8.556 -0.0185 -0.0362 -0.2940
  888loPI   C1B14205  17.997  14.711   6.525  0.2243 -0.1186  0.0279
  888loPI   C2B14206  17.957  14.793   6.971 -0.1854  0.2209  0.2130
  888loPI   C3B14207  17.998  14.872   7.400  0.3557 -0.1831  0.2370
  888loPI   C4B14208  17.978  14.817   7.799 -0.0228 -0.0792 -0.0488
  889loPI    C114209  14.528  16.314   5.697 -0.1346 -0.1514  0.0237
  889loPI    C214210  14.468  16.046   5.406  0.0162 -0.0549 -0.0982
  889loPI    C314211  14.553  16.425   5.313 -0.1784  0.0325  0.0736
  889loPI   PO414212  14.469  16.217   5.952 -0.1933 -0.0748  0.1316
  889loPI   GL114213  14.449  16.489   6.328 -0.0615  0.0181  0.2025
  889loPI   GL214214  14.195  16.344   6.417  0.2048 -0.0012  0.3669
  889loPI   C1A14215  14.464  16.675   6.755 -0.1521 -0.3183 -0.3774
  889loPI   C2A14216  14.469  16.605   7.212 -0.1665 -0.0103  0.1368
  889loPI   C3A14217  14.378  16.626   7.691 -0.3014  0.0508 -0.0159
  889loPI   C4A14218  14.483  16.648   8.095 -0.1076  0.0061 -0.2044
  889loPI   C5A14219  14.590  16.393   8.389  0.1176  0.1225 -0.3490
  889loPI   C6A14220  14.780  15.995   8.494  0.0655 -0.0749 -0.0302
  889loPI   C1B14221  14.313  16.209   6.844 -0.1047 -0.0701  0.0750
  889loPI   C2B14222  14.256  16.192   7.347  0.1360  0.1790  0.2639
  889loPI   C3B14223  14.225  16.173   7.716 -0.0233  0.2121 -0.0791
  889loPI   C4B14224  14.244  16.121   8.176 -0.0685 -0.0062  0.1049
  890loPI    C114225   5.477   3.595   5.217 -0.2054 -0.1191 -0.0241
  890loPI    C214226   5.548   3.624   4.825  0.0880  0.1819  0.0467
  890loPI    C314227   5.777   3.388   5.053  0.1078  0.2378  0.0848
  890loPI   PO414228   5.487   3.736   5.366  0.2133  0.0747  0.0450
  890loPI   GL114229   5.666   3.961   5.608  0.4334  0.1098  0.0428
  890loPI   GL214230   5.734   3.746   5.873 -0.1028  0.0117 -0.2081
  890loPI   C1A14231   5.429   4.106   6.015 -0.0587 -0.1920  0.4598
  890loPI   C2A14232   5.523   4.238   6.472 -0.2775 -0.1038  0.1311
  890loPI   C3A14233   5.592   4.189   6.829  0.2888 -0.2241  0.2121
  890loPI   C4A14234   5.478   4.157   7.323  0.0642  0.0569  0.0749
  890loPI   C5A14235   5.411   4.343   7.766 -0.1758 -0.0484 -0.1948
  890loPI   C6A14236   5.189   4.591   7.913 -0.0166 -0.0499  0.1019
  890loPI   C1B14237   5.812   3.813   6.291  0.1380  0.2029  0.1904
  890loPI   C2B14238   5.861   3.786   6.706 -0.0030  0.3139  0.2538
  890loPI   C3B14239   5.803   3.823   7.125  0.0424  0.1792  0.1365
  890loPI   C4B14240   5.788   3.726   7.423 -0.0204 -0.1106 -0.0719
  891loPI    C114241  13.810   9.530   5.658 -0.1291  0.0969 -0.2026
  891loPI    C214242  13.822   9.805   5.368 -0.0337 -0.0943 -0.3825
  891loPI    C314243  13.972   9.440   5.304 -0.1921 -0.2010 -0.1580
  891loPI   PO414244  13.802   9.625   5.832 -0.3994  0.0575 -0.0885
  891loPI   GL114245  14.041   9.634   6.232 -0.1301 -0.1370  0.0115
  891loPI   GL214246  14.123   9.865   6.149 -0.1342  0.2905  0.0362
  891loPI   C1A14247  13.933   9.388   6.568  0.1502 -0.0274  0.2552
  891loPI   C2A14248  13.861   9.368   6.944  0.0712 -0.2319  0.1242
  891loPI   C3A14249  13.751   9.367   7.413 -0.3835  0.1965  0.1666
  891loPI   C4A14250  13.777   9.438   7.807 -0.2316  0.2637 -0.2281
  891loPI   C5A14251  13.785   9.556   8.248  0.2122  0.0062  0.3426
  891loPI   C6A14252  13.924   9.574   8.702  0.1266 -0.0065  0.2713
  891loPI   C1B14253  14.079   9.877   6.651  0.2698 -0.2605 -0.0081
  891loPI   C2B14254  14.012   9.830   7.099 -0.1186 -0.0217 -0.2321
  891loPI   C3B14255  13.960   9.891   7.568  0.1074  0.2427 -0.0761
  891loPI   C4B14256  13.933   9.911   7.949  0.2634 -0.1628 -0.3398
  892loPI    C114257  13.935  12.495   5.579 -0.3237 -0.2106  0.0865
  892loPI    C214258  14.008  12.628   5.209 -0.2835 -0.1213  0.1263
  892loPI    C314259  13.691  12.394   5.279 -0.3341 -0.0761  0.0490
  892loPI   PO414260  13.986  12.598   5.779 -0.0384  0.0539  0.1618
  892loPI   GL114261  14.188  12.638   6.185 -0.1944  0.1402  0.1814
  892loPI   GL214262  14.524  12.647   6.346  0.0580 -0.0443 -0.1781
  892loPI   C1A14263  14.123  12.658   6.757 -0.1380  0.0437 -0.1462
  892loPI   C2A14264  14.196  12.682   7.118  0.1573  0.1077  0.0772
  892loPI   C3A14265  14.196  12.606   7.521  0.0176  0.0768 -0.0186
  892loPI   C4A14266  14.151  12.384   7.843 -0.1067  0.1795  0.0709
  892loPI   C5A14267  14.156  12.473   8.282  0.1392 -0.1516  0.5474
  892loPI   C6A14268  13.911  12.251   8.591  0.0784 -0.0469 -0.0863
  892loPI   C1B14269  14.596  12.745   6.704 -0.4711 -0.3799 -0.1916
  892loPI   C2B14270  14.696  12.648   7.144  0.0991  0.1481  0.1197
  892loPI   C3B14271  14.700  12.579   7.565 -0.1764 -0.0600  0.1826
  892loPI   C4B14272  14.705  12.455   7.852  0.0881  0.0100 -0.0120
  893loPI    C114273  -0.016  15.561   5.468 -0.1697 -0.1743  0.1652
  893loPI    C214274   0.240  15.263   5.397  0.1243  0.1221 -0.0484
  893loPI    C314275  -0.068  15.325   5.150  0.1743  0.1130 -0.1135
  893loPI   PO414276  -0.134  15.541   5.705 -0.0945  0.0501 -0.3399
  893loPI   GL114277   0.015  15.691   6.105 -0.0980  0.2556  0.3146
  893loPI   GL214278  -0.013  15.967   6.093 -0.1201 -0.2988  0.3232
  893loPI   C1A14279   0.154  15.629   6.472  0.0606 -0.0465 -0.3640
  893loPI   C2A14280   0.097  15.590   6.850  0.0648 -0.1162 -0.1698
  893loPI   C3A14281   0.138  15.662   7.277  0.5267  0.0567  0.1336
  893loPI   C4A14282   0.193  15.726   7.728 -0.1858  0.0772 -0.2270
  893loPI   C5A14283   0.015  15.848   8.168 -0.0155 -0.1200 -0.0641
  893loPI   C6A14284  -0.222  16.166   8.220 -0.0260 -0.0467 -0.1567
  893loPI   C1B14285  -0.202  16.043   6.461 -0.2583  0.1658 -0.1090
  893loPI   C2B14286  -0.078  16.014   6.823  0.3444  0.0216 -0.2082
  893loPI   C3B14287  -0.143  16.122   7.156 -0.1015 -0.2895 -0.2743
  893loPI   C4B14288  -0.082  16.101   7.573  0.2664 -0.0792 -0.2580
  894loPI    C114289   1.796   2.003   5.336 -0.1563  0.1148 -0.1353
  894loPI    C214290   1.594   1.792   5.062  0.1392 -0.0759 -0.2113
  894loPI    C314291   1.791   2.123   4.955 -0.0908  0.0851 -0.1456
  894loPI   PO414292   1.653   1.999   5.534 -0.4229  0.3470 -0.0993
  894loPI   GL114293   1.569   2.252   5.945 -0.0093 -0.3990 -0.0483
  894loPI   GL214294   1.609   1.947   6.023 -0.0742 -0.2841 -0.3379
  894loPI   C1A14295   1.324   2.369   6.305 -0.4662 -0.0198  0.1187
  894loPI   C2A14296   1.318   2.432   6.685 -0.2620 -0.0562 -0.1353
  894loPI   C3A14297   1.344   2.479   7.087 -0.0484 -0.0204 -0.3602
  894loPI   C4A14298   1.378   2.508   7.477 -0.1994  0.0885 -0.2715
  894loPI   C5A14299   1.376   2.559   7.962  0.0854  0.3280  0.0497
  894loPI   C6A14300   1.455   2.226   8.202 -0.1822 -0.1852  0.1470
  894loPI   C1B14301   1.712   2.009   6.494  0.3496 -0.4409  0.0799
  894loPI   C2B14302   1.653   2.013   6.960  0.0854 -0.1706 -0.3068
  894loPI   C3B14303   1.659   2.079   7.418 -0.0573  0.0872 -0.0641
  894loPI   C4B14304   1.588   1.947   7.825  0.3490 -0.0578  0.0849
  895loPI    C114305  15.628   6.062   5.493  0.1114 -0.1478 -0.0974
  895loPI    C214306  15.712   5.673   5.523  0.3898 -0.0825 -0.0004
  895loPI    C314307  15.798   5.870   5.186  0.0748 -0.1443 -0.1199
  895loPI   PO414308  15.712   6.221   5.686 -0.0662  0.0130  0.1181
  895loPI   GL114309  15.658   6.241   6.129 -0.2029 -0.1579 -0.1278
  895loPI   GL214310  15.525   6.588   6.099 -0.0579  0.1942 -0.0327
  895loPI   C1A14311  15.800   6.069   6.573 -0.0505 -0.0131  0.2061
  895loPI   C2A14312  15.730   6.194   7.030  0.1347  0.2349 -0.2518
  895loPI   C3A14313  15.755   6.164   7.422 -0.0446  0.0802  0.3078
  895loPI   C4A14314  15.791   6.115   7.863 -0.1771 -0.0801  0.0946
  895loPI   C5A14315  15.659   6.366   8.185  0.0759 -0.0849 -0.0085
  895loPI   C6A14316  15.740   6.423   8.578 -0.1703 -0.3388 -0.0345
  895loPI   C1B14317  15.498   6.529   6.509 -0.2947  0.1816  0.0728
  895loPI   C2B14318  15.453   6.589   6.927  0.0467 -0.0443  0.0222
  895loPI   C3B14319  15.401   6.550   7.318  0.2538  0.0337  0.1463
  895loPI   C4B14320  15.418   6.578   7.783 -0.0957  0.4457 -0.3778
  896loPI    C114321   2.882  13.488   5.274  0.1234  0.1078 -0.0777
  896loPI    C214322   3.280  13.528   5.265  0.1473 -0.1005 -0.0167
  896loPI    C314323   3.081  13.433   4.931  0.1553 -0.0587 -0.0334
  896loPI   PO414324   2.885  13.380   5.517  0.1310  0.2909  0.2470
  896loPI   GL114325   2.848  13.435   6.015 -0.2332 -0.0270 -0.0909
  896loPI   GL214326   2.582  13.293   6.215  0.3523  0.1323  0.0615
  896loPI   C1A14327   3.090  13.406   6.489 -0.3813 -0.2211 -0.0345
  896loPI   C2A14328   3.093  13.434   6.897  0.1101 -0.3540  0.1461
  896loPI   C3A14329   3.064  13.424   7.276  0.0349 -0.2383 -0.2314
  896loPI   C4A14330   3.009  13.327   7.709 -0.1022 -0.0940 -0.1342
  896loPI   C5A14331   2.951  13.279   8.139  0.0529 -0.1891  0.0757
  896loPI   C6A14332   2.600  13.048   8.371  0.0717  0.0103 -0.1015
  896loPI   C1B14333   2.521  13.311   6.620  0.1509  0.1109  0.2308
  896loPI   C2B14334   2.578  13.414   7.031 -0.0337  0.4603  0.1475
  896loPI   C3B14335   2.479  13.288   7.477 -0.1067  0.2090 -0.1853
  896loPI   C4B14336   2.484  13.354   7.956 -0.2350  0.2082  0.1019
  897loPI    C114337   9.026   6.714   5.245 -0.1595  0.0726  0.1019
  897loPI    C214338   8.683   6.604   5.072 -0.0993  0.0083  0.0227
  897loPI    C314339   9.028   6.568   4.873 -0.0242 -0.1063  0.1715
  897loPI   PO414340   8.980   6.648   5.470 -0.5022  0.1703  0.1125
  897loPI   GL114341   8.856   6.435   5.814 -0.1448 -0.0948 -0.1020
  897loPI   GL214342   9.073   6.192   5.779  0.0035  0.0089 -0.1104
  897loPI   C1A14343   8.867   6.394   6.275  0.1168  0.0808 -0.2906
  897loPI   C2A14344   8.809   6.454   6.688  0.1993  0.0903 -0.4082
  897loPI   C3A14345   8.858   6.481   7.067 -0.3347 -0.1134  0.2897
  897loPI   C4A14346   8.879   6.589   7.500 -0.0899 -0.0416 -0.1219
  897loPI   C5A14347   8.867   6.864   7.925 -0.2209 -0.0418  0.0395
  897loPI   C6A14348   8.734   6.775   8.315  0.1107 -0.0595 -0.0079
  897loPI   C1B14349   9.264   6.116   6.188  0.2471 -0.1539 -0.0048
  897loPI   C2B14350   9.116   6.043   6.527  0.2168 -0.0720 -0.2916
  897loPI   C3B14351   9.182   6.074   6.882 -0.1749 -0.1479 -0.2035
  897loPI   C4B14352   9.172   6.086   7.348 -0.0100 -0.0372 -0.1752
  898loPI    C114353   1.749  15.370   5.417 -0.1665  0.0436 -0.0028
  898loPI    C214354   1.495  15.676   5.380 -0.3284 -0.1170 -0.2489
  898loPI    C314355   1.630  15.488   5.054 -0.1105 -0.2111 -0.1064
  898loPI   PO414356   1.879  15.512   5.673  0.0303  0.0241  0.1603
  898loPI   GL114357   1.825  15.690   5.984  0.0069  0.0343  0.0731
  898loPI   GL214358   1.628  15.860   6.190  0.0493  0.1765  0.1786
  898loPI   C1A14359   1.876  15.462   6.385  0.0400 -0.1682 -0.0727
  898loPI   C2A14360   1.978  15.491   6.899 -0.2480  0.2881 -0.1679
  898loPI   C3A14361   2.031  15.480   7.397 -0.2703 -0.2154  0.0885
  898loPI   C4A14362   2.018  15.462   7.884  0.1293  0.1915  0.5002
  898loPI   C5A14363   2.021  15.537   8.282  0.1456  0.0572 -0.2365
  898loPI   C6A14364   1.914  15.584   8.660  0.0368  0.1270  0.0054
  898loPI   C1B14365   1.684  15.872   6.671 -0.1380  0.0446 -0.2693
  898loPI   C2B14366   1.746  15.852   7.132 -0.2810 -0.1240  0.2207
  898loPI   C3B14367   1.714  15.849   7.496 -0.0593 -0.4861 -0.1858
  898loPI   C4B14368   1.698  15.813   7.969 -0.0608 -0.0741  0.2037
  899loPI    C114369  10.661  13.432   5.432 -0.0770 -0.0225 -0.0095
  899loPI    C214370  10.875  13.750   5.318  0.0291 -0.0454  0.1235
  899loPI    C314371  10.764  13.478   5.048 -0.1710  0.1682 -0.0132
  899loPI   PO414372  10.800  13.317   5.623  0.2900  0.2595  0.1184
  899loPI   GL114373  10.743  13.373   6.007 -0.0383 -0.0566 -0.1422
  899loPI   GL214374  10.827  13.686   6.212  0.2147  0.0493  0.2334
  899loPI   C1A14375  10.397  13.422   6.264 -0.1264 -0.0345  0.1274
  899loPI   C2A14376  10.326  13.436   6.752  0.1211  0.2374 -0.1238
  899loPI   C3A14377  10.274  13.474   7.176 -0.0000 -0.0630 -0.1401
  899loPI   C4A14378  10.181  13.514   7.581 -0.2850  0.2034 -0.2105
  899loPI   C5A14379  10.178  13.468   8.041  0.0486  0.4388  0.0277
  899loPI   C6A14380   9.963  13.657   8.474 -0.1239  0.0325  0.2448
  899loPI   C1B14381  10.893  13.491   6.578 -0.2130  0.3661 -0.0616
  899loPI   C2B14382  10.786  13.490   7.013  0.1206 -0.0898 -0.3786
  899loPI   C3B14383  10.748  13.547   7.450  0.1062  0.2032 -0.1645
  899loPI   C4B14384  10.650  13.533   7.914 -0.1074 -0.0439 -0.0644
  900loPI    C114385   3.774  13.252   5.411 -0.2445  0.0325  0.1427
  900loPI    C214386   3.747  13.520   5.115 -0.1293  0.0460  0.1437
  900loPI    C314387   3.597  13.152   5.067  0.1670 -0.0521 -0.0505
  900loPI   PO414388   3.695  13.297   5.599  0.0624 -0.0055 -0.1679
  900loPI   GL114389   3.756  13.456   5.945  0.3022  0.3418 -0.1726
  900loPI   GL214390   4.079  13.592   6.224  0.1185  0.1429 -0.2247
  900loPI   C1A14391   3.603  13.491   6.395 -0.1766 -0.0994  0.1523
  900loPI   C2A14392   3.618  13.429   6.795  0.1067 -0.0176 -0.0599
  900loPI   C3A14393   3.574  13.409   7.162  0.0586 -0.0752  0.0336
  900loPI   C4A14394   3.538  13.403   7.626  0.0064 -0.0041 -0.2061
  900loPI   C5A14395   3.437  13.370   8.055 -0.3972  0.0638 -0.0194
  900loPI   C6A14396   3.323  13.509   8.378  0.0735  0.0301 -0.3714
  900loPI   C1B14397   4.106  13.545   6.666  0.4681 -0.2593  0.1747
  900loPI   C2B14398   4.101  13.532   7.131 -0.0298 -0.2924 -0.0048
  900loPI   C3B14399   4.027  13.539   7.601 -0.0864  0.0956  0.1430
  900loPI   C4B14400   3.988  13.369   7.997 -0.0086 -0.4031 -0.1500
  901loPI    C114401   1.119  10.242   5.380 -0.0047 -0.3554 -0.0654
  901loPI    C214402   0.869   9.984   5.204 -0.0766 -0.1107 -0.3301
  901loPI    C314403   1.036  10.278   4.990  0.0720  0.0115 -0.0517
  901loPI   PO414404   1.024  10.210   5.629  0.2597 -0.0758 -0.0621
  901loPI   GL114405   1.011  10.374   6.051  0.0545 -0.2412 -0.4419
  901loPI   GL214406   1.268  10.111   6.059 -0.1680 -0.0403  0.2141
  901loPI   C1A14407   0.942  10.457   6.528 -0.2679  0.2266  0.0607
  901loPI   C2A14408   0.860  10.517   6.904  0.1333  0.1849  0.1021
  901loPI   C3A14409   0.839  10.458   7.354 -0.0580 -0.0666 -0.0653
  901loPI   C4A14410   0.797  10.476   7.724 -0.1052 -0.1501  0.0715
  901loPI   C5A14411   0.782  10.323   8.024  0.0755  0.2809 -0.4158
  901loPI   C6A14412   0.577  10.167   8.394  0.0100  0.1653 -0.0334
  901loPI   C1B14413   1.257  10.038   6.451  0.0532 -0.0304 -0.0381
  901loPI   C2B14414   1.283  10.093   6.775  0.2609 -0.2077 -0.0210
  901loPI   C3B14415   1.223  10.059   7.235 -0.2087  0.1073 -0.0945
  901loPI   C4B14416   1.042  10.033   7.684  0.0229  0.1519  0.1991
  902loPI    C114417   3.747   5.226   5.510 -0.0236  0.0942  0.1158
  902loPI    C214418   3.526   5.122   5.193  0.0502 -0.1897  0.1553
  902loPI    C314419   3.696   5.484   5.208 -0.1974 -0.0643  0.0076
  902loPI   PO414420   3.648   5.154   5.695 -0.1594  0.0456  0.0756
  902loPI   GL114421   3.611   5.429   6.075  0.2932 -0.0731 -0.1443
  902loPI   GL214422   3.999   5.298   6.142  0.1690  0.0505 -0.1052
  902loPI   C1A14423   3.510   5.280   6.452 -0.3893  0.1636 -0.1824
  902loPI   C2A14424   3.605   5.355   6.815  0.0361  0.2300 -0.2466
  902loPI   C3A14425   3.555   5.376   7.249 -0.0745 -0.1346 -0.0322
  902loPI   C4A14426   3.577   5.333   7.748  0.0322 -0.1204 -0.1255
  902loPI   C5A14427   3.480   5.187   8.186 -0.2604  0.1537 -0.2002
  902loPI   C6A14428   3.229   5.118   8.476 -0.0755  0.2471  0.2522
  902loPI   C1B14429   4.077   5.429   6.651  0.1483  0.1025 -0.2907
  902loPI   C2B14430   4.069   5.382   7.093 -0.1135 -0.1109 -0.2345
  902loPI   C3B14431   4.009   5.387   7.517 -0.0859  0.0127 -0.1532
  902loPI   C4B14432   4.011   5.275   8.019 -0.0464 -0.2742  0.0431
  903loPI    C114433   0.482  12.534   5.652 -0.1253  0.2521  0.0293
  903loPI    C214434   0.194  12.287   5.524  0.1103  0.0665 -0.1530
  903loPI    C314435   0.567  12.249   5.385  0.2358  0.2733  0.1159
  903loPI   PO414436   0.502  12.544   5.930  0.0751 -0.0010  0.0499
  903loPI   GL114437   0.299  12.216   6.206 -0.3007 -0.1666 -0.2578
  903loPI   GL214438   0.317  12.471   6.368 -0.0799  0.1740 -0.1007
  903loPI   C1A14439   0.574  12.100   6.598 -0.0086 -0.3545  0.1740
  903loPI   C2A14440   0.594  12.164   6.961 -0.0569 -0.0703 -0.2069
  903loPI   C3A14441   0.581  12.226   7.370 -0.1900  0.1344 -0.2005
  903loPI   C4A14442   0.572  12.217   7.800 -0.0557 -0.2786 -0.1413
  903loPI   C5A14443   0.758  12.228   8.213  0.0120  0.2169  0.2722
  903loPI   C6A14444   0.983  12.383   8.440  0.0054  0.1422 -0.1015
  903loPI   C1B14445   0.326  12.523   6.877  0.0808 -0.3889  0.1753
  903loPI   C2B14446   0.356  12.667   7.292 -0.2615 -0.1491  0.2720
  903loPI   C3B14447   0.322  12.578   7.703  0.0331 -0.3101 -0.2018
  903loPI   C4B14448   0.279  12.474   8.146  0.1224 -0.0733  0.3470
  904loPI    C114449   6.991  12.608   5.404 -0.0677  0.1281 -0.1066
  904loPI    C214450   6.653  12.409   5.481  0.0941 -0.1167 -0.0165
  904loPI    C314451   6.861  12.330   5.148 -0.0224  0.1521 -0.1559
  904loPI   PO414452   6.954  12.761   5.595 -0.3094 -0.1164  0.1677
  904loPI   GL114453   6.982  12.659   5.952 -0.1794  0.0231 -0.1006
  904loPI   GL214454   6.918  12.302   6.091  0.1794 -0.0921  0.1857
  904loPI   C1A14455   7.128  12.744   6.364  0.0529  0.3233 -0.2152
  904loPI   C2A14456   7.061  12.668   6.808 -0.0329  0.0683 -0.1121
  904loPI   C3A14457   7.025  12.649   7.190 -0.0537  0.2609 -0.0104
  904loPI   C4A14458   6.886  12.555   7.625 -0.0859  0.2110  0.1687
  904loPI   C5A14459   6.648  12.441   8.044  0.4015  0.0223 -0.0056
  904loPI   C6A14460   6.429  12.296   8.420  0.0873 -0.0326  0.0734
  904loPI   C1B14461   6.931  12.051   6.479 -0.3321  0.1142 -0.1719
  904loPI   C2B14462   6.836  12.054   6.885 -0.1288  0.0098 -0.0586
  904loPI   C3B14463   6.763  12.048   7.325 -0.2721 -0.1731 -0.0784
  904loPI   C4B14464   6.718  12.031   7.786  0.1340 -0.1280  0.1407
  905loPI    C114465  11.806  10.591   5.599  0.1123 -0.3865  0.0589
  905loPI    C214466  11.955  10.356   5.312  0.1096 -0.1385 -0.1499
  905loPI    C314467  12.066  10.740   5.334 -0.0377 -0.1061  0.0642
  905loPI   PO414468  11.790  10.407   5.831  0.2123 -0.1260  0.2525
  905loPI   GL114469  11.834  10.529   6.234  0.2439  0.1009  0.0005
  905loPI   GL214470  12.243  10.472   6.229 -0.1135  0.1548  0.0957
  905loPI   C1A14471  11.994  10.512   6.667 -0.1335 -0.0126  0.0635
  905loPI   C2A14472  11.825  10.475   7.083 -0.1579 -0.1977  0.0003
  905loPI   C3A14473  11.819  10.463   7.548 -0.0838  0.2520 -0.0292
  905loPI   C4A14474  11.773  10.505   8.099 -0.2292  0.1621  0.0066
  905loPI   C5A14475  11.398  10.509   8.330  0.0933 -0.1031  0.2252
  905loPI   C6A14476  11.213  10.902   8.482 -0.3665 -0.1584 -0.0721
  905loPI   C1B14477  12.325  10.159   6.483 -0.2388 -0.0276 -0.0010
  905loPI   C2B14478  12.218  10.128   6.957 -0.1838  0.2388 -0.0367
  905loPI   C3B14479  12.216  10.127   7.401 -0.0163 -0.1559  0.1985
  905loPI   C4B14480  12.082  10.129   7.818 -0.1327 -0.1076  0.0128
  906loPI    C114481   9.689  16.020   5.803  0.0701 -0.0224  0.2444
  906loPI    C214482   9.745  16.170   5.437 -0.3240 -0.0405  0.1725
  906loPI    C314483   9.776  16.407   5.757 -0.2008  0.0248  0.1127
  906loPI   PO414484   9.866  15.737   5.830 -0.0433 -0.0446  0.0030
  906loPI   GL114485  10.050  15.350   6.155 -0.1730 -0.1464 -0.1938
  906loPI   GL214486   9.747  15.217   6.184  0.1513  0.0883 -0.2296
  906loPI   C1A14487  10.014  15.307   6.610 -0.2567  0.1878  0.2340
  906loPI   C2A14488  10.030  15.278   7.043 -0.0895 -0.2797 -0.3137
  906loPI   C3A14489  10.012  15.255   7.460  0.2892  0.1055  0.0022
  906loPI   C4A14490  10.019  15.273   7.871  0.0016  0.0027 -0.0616
  906loPI   C5A14491   9.956  15.214   8.273  0.0921  0.0388 -0.0963
  906loPI   C6A14492   9.950  14.958   8.628 -0.1854 -0.0259 -0.0289
  906loPI   C1B14493   9.482  15.206   6.461 -0.0481 -0.2678  0.0937
  906loPI   C2B14494   9.560  15.246   6.780 -0.0050 -0.1336 -0.1591
  906loPI   C3B14495   9.460  15.220   7.191  0.3525  0.1586  0.2188
  906loPI   C4B14496   9.411  15.177   7.586 -0.0910 -0.1630 -0.1554
  907loPI    C114497   4.863  11.160   5.590  0.0464 -0.0620 -0.1982
  907loPI    C214498   4.881  11.351   5.239  0.1344 -0.0800 -0.2038
  907loPI    C314499   5.107  11.027   5.302  0.1007 -0.0910 -0.1390
  907loPI   PO414500   4.636  11.185   5.658  0.1984  0.0036 -0.1863
  907loPI   GL114501   4.578  11.038   6.049  0.0677 -0.0742 -0.0820
  907loPI   GL214502   4.920  11.082   6.027 -0.1216  0.1017 -0.0177
  907loPI   C1A14503   4.495  10.914   6.473  0.3015 -0.0906 -0.1330
  907loPI   C2A14504   4.346  10.914   6.863  0.2073 -0.0566 -0.0811
  907loPI   C3A14505   4.324  10.911   7.250 -0.1178 -0.0145 -0.1030
  907loPI   C4A14506   4.370  10.829   7.623  0.2763  0.0966 -0.0971
  907loPI   C5A14507   4.422  10.936   8.027  0.1091  0.0305  0.2264
  907loPI   C6A14508   4.376  10.909   8.513  0.2323 -0.0250  0.0021
  907loPI   C1B14509   4.977  11.028   6.419  0.1799 -0.3107  0.2745
  907loPI   C2B14510   4.889  10.964   6.859  0.0510  0.0156  0.0507
  907loPI   C3B14511   4.895  10.965   7.254 -0.1382 -0.4372  0.0628
  907loPI   C4B14512   4.883  10.831   7.654  0.0246 -0.2721 -0.1771
  908loPI    C114513   4.797  15.179   5.511  0.0303  0.0251 -0.0237
  908loPI    C214514   4.817  15.550   5.361  0.1412  0.0020 -0.0672
  908loPI    C314515   4.505  15.315   5.273  0.0982  0.0653 -0.0846
  908loPI   PO414516   4.866  15.201   5.793  0.0721 -0.0089 -0.0162
  908loPI   GL114517   4.757  15.427   6.223 -0.2990 -0.1112  0.2959
  908loPI   GL214518   4.371  15.359   6.240  0.0853 -0.1565  0.0002
  908loPI   C1A14519   4.939  15.502   6.623  0.1232  0.1505  0.0838
  908loPI   C2A14520   4.873  15.391   7.100  0.2970 -0.1788  0.0568
  908loPI   C3A14521   4.845  15.426   7.521 -0.0318 -0.2403  0.2580
  908loPI   C4A14522   4.758  15.350   8.050 -0.0565 -0.1091 -0.1581
  908loPI   C5A14523   4.778  15.219   8.398 -0.0272 -0.1507 -0.0766
  908loPI   C6A14524   4.421  15.219   8.623 -0.1382  0.0147 -0.0780
  908loPI   C1B14525   4.418  15.344   6.759 -0.0984 -0.0734  0.0265
  908loPI   C2B14526   4.385  15.322   7.240 -0.0538 -0.1057  0.0184
  908loPI   C3B14527   4.356  15.339   7.703 -0.2324  0.2421  0.3378
  908loPI   C4B14528   4.285  15.205   8.140 -0.0099 -0.0832  0.2640
  909loPI    C114529   1.890   3.514   5.194 -0.0669  0.0996  0.0139
  909loPI    C214530   2.169   3.800   5.206 -0.0340  0.0706 -0.0523
  909loPI    C314531   2.177   3.526   4.916 -0.1240  0.0617 -0.0468
  909loPI   PO414532   1.940   3.397   5.544 -0.1378  0.1035 -0.1058
  909loPI   GL114533   1.896   3.466   5.985  0.0601 -0.0567  0.0206
  909loPI   GL214534   1.708   3.699   6.092 -0.0368 -0.2704  0.0803
  909loPI   C1A14535   1.818   3.321   6.402 -0.0278 -0.0360  0.2222
  909loPI   C2A14536   1.760   3.325   6.849  0.3951  0.0203 -0.0233
  909loPI   C3A14537   1.727   3.372   7.315 -0.0860  0.5216 -0.3559
  909loPI   C4A14538   1.791   3.383   7.689 -0.4129 -0.1179 -0.1985
  909loPI   C5A14539   1.978   3.460   8.165  0.0987  0.1649 -0.0008
  909loPI   C6A14540   1.953   3.620   8.614  0.1157  0.0779  0.2545
  909loPI   C1B14541   1.521   3.817   6.545 -0.1007 -0.0616 -0.2737
  909loPI   C2B14542   1.379   3.787   6.874  0.1125 -0.1624  0.1756
  909loPI   C3B14543   1.475   3.760   7.258 -0.1939 -0.0758 -0.3117
  909loPI   C4B14544   1.466   3.822   7.690 -0.0805  0.5333 -0.1044
  910loPI    C114545   2.203  11.787   5.611 -0.0629 -0.2359  0.0062
  910loPI    C214546   2.159  11.757   5.214 -0.0207 -0.0729 -0.0114
  910loPI    C314547   1.837  11.790   5.449 -0.0368  0.0740 -0.0530
  910loPI   PO414548   2.420  11.665   5.644 -0.2103  0.2792 -0.0483
  910loPI   GL114549   2.460  11.749   6.078  0.2499 -0.3988 -0.2173
  910loPI   GL214550   2.851  11.555   6.143 -0.0617 -0.0400 -0.0882
  910loPI   C1A14551   2.351  11.601   6.521  0.2026 -0.0654  0.1790
  910loPI   C2A14552   2.281  11.540   6.930  0.0604 -0.1858  0.1986
  910loPI   C3A14553   2.176  11.486   7.352  0.1101 -0.0420 -0.0644
  910loPI   C4A14554   2.193  11.568   7.693  0.3816  0.0887 -0.2215
  910loPI   C5A14555   2.170  11.413   8.145  0.2738  0.2332  0.1011
  910loPI   C6A14556   1.959  11.319   8.529  0.0689  0.0452 -0.1741
  910loPI   C1B14557   2.828  11.633   6.675 -0.2910  0.0985  0.1669
  910loPI   C2B14558   2.736  11.581   7.104  0.2128  0.1577 -0.2445
  910loPI   C3B14559   2.713  11.632   7.600  0.1241 -0.0210 -0.0931
  910loPI   C4B14560   2.730  11.452   7.947  0.1018  0.2379  0.0866
  911loPI    C114561   9.826   5.312   5.276  0.0653 -0.1651  0.0886
  911loPI    C214562  10.036   5.069   5.037  0.0835 -0.0153 -0.0495
  911loPI    C314563   9.643   5.118   4.978  0.0604 -0.0873  0.0409
  911loPI   PO414564   9.915   5.310   5.535  0.1030 -0.2319  0.0107
  911loPI   GL114565  10.006   5.608   5.858  0.2307 -0.0742 -0.2838
  911loPI   GL214566  10.226   5.343   5.983 -0.0301  0.2496  0.2514
  911loPI   C1A14567   9.990   5.753   6.221 -0.1224  0.1824 -0.0295
  911loPI   C2A14568   9.957   5.685   6.601 -0.0057  0.1828 -0.1954
  911loPI   C3A14569   9.955   5.707   7.047 -0.0006 -0.1420 -0.1069
  911loPI   C4A14570   9.909   5.768   7.539  0.0724 -0.1409  0.2772
  911loPI   C5A14571  10.021   5.857   7.984  0.0365 -0.1843 -0.0000
  911loPI   C6A14572   9.972   5.907   8.425 -0.0057 -0.1649  0.0658
  911loPI   C1B14573  10.293   5.279   6.357  0.0704  0.0379 -0.0036
  911loPI   C2B14574  10.304   5.288   6.782  0.0004  0.0400  0.0670
  911loPI   C3B14575  10.289   5.319   7.248  0.1496  0.0300  0.3280
  911loPI   C4B14576  10.298   5.342   7.730 -0.2909  0.1029 -0.2044
  912loPI    C114577  12.797  10.585   5.626  0.0365  0.2861  0.1643
  912loPI    C214578  12.867  10.815   5.306  0.2384  0.1377  0.0997
  912loPI    C314579  12.579  10.538   5.294  0.3616  0.0131 -0.0166
  912loPI   PO414580  12.789  10.745   5.849 -0.0829  0.1465 -0.1420
  912loPI   GL114581  12.687  10.718   6.220  0.0554  0.0372  0.1135
  912loPI   GL214582  12.986  10.621   6.273 -0.0988 -0.1062 -0.2004
  912loPI   C1A14583  12.494  10.591   6.669 -0.0117 -0.1086 -0.0802
  912loPI   C2A14584  12.390  10.590   7.105 -0.1374  0.2253  0.0662
  912loPI   C3A14585  12.331  10.606   7.504 -0.0955  0.1696 -0.1094
  912loPI   C4A14586  12.294  10.573   7.928 -0.3033  0.1751  0.1189
  912loPI   C5A14587  12.295  10.535   8.428  0.0637  0.2808 -0.2605
  912loPI   C6A14588  12.123  10.606   8.777 -0.1005 -0.2568 -0.1118
  912loPI   C1B14589  12.987  10.639   6.717 -0.0596 -0.3380  0.0519
  912loPI   C2B14590  12.884  10.659   7.095 -0.0278 -0.0023 -0.0039
  912loPI   C3B14591  12.818  10.638   7.556 -0.0633 -0.0998 -0.2414
  912loPI   C4B14592  12.786  10.667   7.921  0.0171 -0.1576  0.0475
  913loPI    C114593   9.600   2.795   5.659  0.0326 -0.2684 -0.0932
  913loPI    C214594   9.684   2.829   5.269  0.1237 -0.0930 -0.0592
  913loPI    C314595   9.961   2.922   5.543 -0.0173  0.0120  0.0495
  913loPI   PO414596   9.483   2.667   5.734  0.0312 -0.0181 -0.1156
  913loPI   GL114597   9.340   2.557   6.089 -0.2022 -0.0621  0.1991
  913loPI   GL214598   9.130   2.314   6.305  0.4428 -0.0797  0.2717
  913loPI   C1A14599   9.391   2.815   6.441  0.1939  0.0080  0.3411
  913loPI   C2A14600   9.323   2.902   6.919  0.0926  0.1145 -0.1118
  913loPI   C3A14601   9.292   2.955   7.307  0.0145  0.0299 -0.1103
  913loPI   C4A14602   9.349   2.924   7.777  0.0136 -0.1622 -0.2014
  913loPI   C5A14603   9.398   2.601   8.003  0.0865 -0.1049 -0.3712
  913loPI   C6A14604   9.640   2.297   8.226  0.0892  0.2896  0.2132
  913loPI   C1B14605   9.077   2.446   6.663  0.4565  0.1771 -0.0718
  913loPI   C2B14606   9.124   2.459   6.980  0.4759  0.2107  0.2627
  913loPI   C3B14607   9.141   2.363   7.398 -0.0838  0.1444  0.3224
  913loPI   C4B14608   9.025   2.346   7.853 -0.2469 -0.1443 -0.1570
  914loPI    C114609  15.214   3.595   5.523 -0.0801  0.2760  0.3364
  914loPI    C214610  14.945   3.864   5.645 -0.3289  0.0713  0.2479
  914loPI    C314611  14.895   3.675   5.295  0.1661  0.3580  0.0118
  914loPI   PO414612  15.301   3.520   5.712  0.2882  0.1194 -0.1894
  914loPI   GL114613  15.196   3.737   6.089  0.3260 -0.0037  0.0556
  914loPI   GL214614  15.147   4.083   6.050  0.3607  0.1708 -0.0715
  914loPI   C1A14615  15.257   3.809   6.494  0.0992 -0.2697 -0.0695
  914loPI   C2A14616  15.327   3.816   6.897  0.3319 -0.1119 -0.0537
  914loPI   C3A14617  15.278   3.881   7.343 -0.0634  0.1943  0.1079
  914loPI   C4A14618  15.314   3.809   7.758 -0.0712  0.2440  0.0221
  914loPI   C5A14619  15.111   3.925   8.191  0.1719 -0.0701  0.2544
  914loPI   C6A14620  15.183   3.596   8.555  0.0596  0.2885  0.1619
  914loPI   C1B14621  14.996   4.183   6.467 -0.1835  0.1526  0.0921
  914loPI   C2B14622  15.023   4.197   6.928  0.1302 -0.1102 -0.2920
  914loPI   C3B14623  15.040   4.271   7.353 -0.0594 -0.1474 -0.0024
  914loPI   C4B14624  15.055   4.236   7.738  0.1715  0.3047 -0.3147
  915loPI    C114625  15.626  10.999   5.725  0.0338 -0.0676  0.0735
  915loPI    C214626  15.666  10.680   5.487  0.0272 -0.0244  0.0142
  915loPI    C314627  15.511  11.020   5.342  0.2357  0.0740  0.0191
  915loPI   PO414628  15.469  10.972   5.928 -0.0725  0.0333 -0.0703
  915loPI   GL114629  15.474  10.966   6.382  0.0417  0.0337 -0.1644
  915loPI   GL214630  15.463  10.588   6.393  0.1980 -0.0708  0.2614
  915loPI   C1A14631  15.782  10.867   6.711  0.1701 -0.2908 -0.0926
  915loPI   C2A14632  15.577  10.562   6.993  0.1155  0.2515  0.2847
  915loPI   C3A14633  15.658  10.519   7.413  0.1764 -0.1610 -0.4221
  915loPI   C4A14634  15.747  10.488   7.787  0.2686 -0.1958  0.0900
  915loPI   C5A14635  15.749  10.429   8.231  0.3202 -0.0330 -0.0012
  915loPI   C6A14636  16.121  10.283   8.441  0.1419 -0.1794  0.0110
  915loPI   C1B14637  15.297  10.927   6.826  0.2208  0.3726 -0.0055
  915loPI   C2B14638  15.413  10.921   7.295 -0.1024 -0.2384 -0.0997
  915loPI   C3B14639  15.460  10.957   7.811 -0.0824  0.2100  0.2443
  915loPI   C4B14640  15.552  11.061   8.248  0.1893  0.1164 -0.0233
  916loPI    C114641   7.958   7.936   5.416  0.1473  0.0574  0.1391
  916loPI    C214642   7.987   7.812   5.037 -0.0986 -0.0673  0.1591
  916loPI    C314643   8.069   8.192   5.130 -0.0707 -0.0277 -0.0238
  916loPI   PO414644   8.060   7.768   5.550  0.2898 -0.1906  0.1837
  916loPI   GL114645   8.380   7.570   5.747  0.1145 -0.3756  0.0842
  916loPI   GL214646   8.474   7.758   5.863 -0.1655  0.0417  0.1186
  916loPI   C1A14647   8.286   7.315   6.104  0.2114  0.0125  0.0287
  916loPI   C2A14648   8.238   7.283   6.533  0.2432 -0.1510 -0.0284
  916loPI   C3A14649   8.295   7.336   6.988  0.1682 -0.0649 -0.4005
  916loPI   C4A14650   8.201   7.288   7.577  0.0946 -0.5225 -0.4749
  916loPI   C5A14651   8.121   7.194   8.000  0.2409  0.0607 -0.3171
  916loPI   C6A14652   8.200   6.970   8.379  0.3568  0.1403  0.1530
  916loPI   C1B14653   8.521   7.697   6.354 -0.0065 -0.1272 -0.1370
  916loPI   C2B14654   8.506   7.796   6.802 -0.0148  0.0586  0.0816
  916loPI   C3B14655   8.415   7.798   7.214  0.0099  0.1314 -0.0283
  916loPI   C4B14656   8.389   7.751   7.697  0.0550  0.3205 -0.0279
  917loPI    C114657   2.837  12.441   5.510 -0.2466 -0.2228 -0.0211
  917loPI    C214658   3.182  12.271   5.404  0.0090  0.2105  0.0885
  917loPI    C314659   2.997  12.520   5.152 -0.1184  0.1396  0.1113
  917loPI   PO414660   2.833  12.467   5.782 -0.1659 -0.0172  0.1705
  917loPI   GL114661   2.805  12.688   6.159  0.1024  0.1288 -0.0911
  917loPI   GL214662   3.040  12.976   6.207 -0.3903 -0.1290 -0.1790
  917loPI   C1A14663   2.733  12.467   6.631 -0.0012  0.0348 -0.1529
  917loPI   C2A14664   2.697  12.482   7.131  0.2131  0.0171  0.1196
  917loPI   C3A14665   2.676  12.427   7.551 -0.1882  0.1093  0.1695
  917loPI   C4A14666   2.562  12.447   7.960 -0.1914  0.2532  0.0507
  917loPI   C5A14667   2.273  12.343   8.131  0.1921  0.0665 -0.2506
  917loPI   C6A14668   1.861  12.412   8.274 -0.1870 -0.1221  0.2616
  917loPI   C1B14669   2.888  12.982   6.686 -0.2105 -0.1289  0.0081
  917loPI   C2B14670   2.859  12.956   7.121 -0.1750  0.0878  0.2935
  917loPI   C3B14671   2.840  12.879   7.479  0.0950  0.1868 -0.2271
  917loPI   C4B14672   2.792  12.882   7.932 -0.1205  0.4894 -0.0054
  918loPI    C114673  -0.154  12.977   5.706 -0.0561  0.0813  0.0680
  918loPI    C214674   0.245  12.972   5.736 -0.0411  0.1308 -0.1117
  918loPI    C314675   0.066  12.806   5.419 -0.1699  0.0072  0.0242
  918loPI   PO414676  -0.203  13.012   5.954  0.3924 -0.2135 -0.0043
  918loPI   GL114677   0.084  12.917   6.269 -0.0874  0.1159 -0.1702
  918loPI   GL214678   0.373  12.958   6.209 -0.1706 -0.1049 -0.2357
  918loPI   C1A14679   0.095  12.983   6.665  0.0260  0.2688  0.2316
  918loPI   C2A14680  -0.004  12.976   7.087  0.0514  0.1520 -0.1607
  918loPI   C3A14681   0.039  13.041   7.457  0.0850  0.0062  0.0896
  918loPI   C4A14682  -0.029  13.039   7.866  0.0341 -0.3436  0.0458
  918loPI   C5A14683   0.003  12.869   8.303  0.0273  0.0687 -0.3717
  918loPI   C6A14684   0.028  12.904   8.699 -0.0685  0.2308 -0.2913
  918loPI   C1B14685   0.553  13.043   6.603  0.1450 -0.1857  0.0321
  918loPI   C2B14686   0.485  13.150   7.033  0.3549  0.0354  0.3793
  918loPI   C3B14687   0.550  13.132   7.424 -0.1629 -0.2509  0.1505
  918loPI   C4B14688   0.500  13.042   7.760 -0.2308 -0.1333  0.0933
  919loPI    C114689   2.120  12.286   5.383  0.0266  0.0164 -0.0862
  919loPI    C214690   1.957  12.646   5.320 -0.0373 -0.0078 -0.0609
  919loPI    C314691   2.047  12.411   5.010 -0.0469  0.0073 -0.0751
  919loPI   PO414692   1.948  12.247   5.643 -0.1527 -0.2360  0.2393
  919loPI   GL114693   1.833  11.872   5.959  0.0284  0.1168 -0.0680
  919loPI   GL214694   2.024  12.015   6.158 -0.0900 -0.0652  0.0951
  919loPI   C1A14695   1.557  11.889   6.346 -0.0413 -0.1371  0.1171
  919loPI   C2A14696   1.397  11.872   6.809  0.2861  0.0158  0.0020
  919loPI   C3A14697   1.453  11.837   7.223  0.1290  0.1844 -0.0818
  919loPI   C4A14698   1.379  11.873   7.628  0.2104 -0.3961 -0.0996
  919loPI   C5A14699   1.374  11.793   8.015  0.2049 -0.1099  0.2764
  919loPI   C6A14700   1.503  11.665   8.453  0.0109  0.1072 -0.1124
  919loPI   C1B14701   2.015  11.934   6.573  0.0720  0.1452 -0.2170
  919loPI   C2B14702   1.914  11.910   6.972 -0.2255  0.3214 -0.0625
  919loPI   C3B14703   1.935  11.899   7.436 -0.0339  0.1029  0.1926
  919loPI   C4B14704   1.830  11.969   7.892 -0.0335 -0.0120 -0.1132
  920loPI    C114705  15.383   5.310   5.737 -0.2037  0.0841 -0.0419
  920loPI    C214706  15.553   5.235   5.383 -0.2652 -0.0689 -0.0398
  920loPI    C314707  15.154   5.232   5.418 -0.2646  0.1192 -0.0069
  920loPI   PO414708  15.575   5.310   5.867 -0.1006 -0.0421  0.1308
  920loPI   GL114709  15.609   5.387   6.238 -0.0591 -0.1194 -0.0736
  920loPI   GL214710  15.864   5.119   6.251 -0.0125 -0.0095  0.5190
  920loPI   C1A14711  15.580   5.571   6.595 -0.0398  0.1739 -0.1848
  920loPI   C2A14712  15.553   5.717   7.047  0.1486  0.0001  0.1466
  920loPI   C3A14713  15.551   5.684   7.618 -0.2213  0.1393 -0.1567
  920loPI   C4A14714  15.592   5.693   8.021  0.1111  0.4190 -0.0238
  920loPI   C5A14715  15.742   5.895   8.305  0.0285  0.0079 -0.4436
  920loPI   C6A14716  15.440   5.741   8.596 -0.0668  0.0769  0.3228
  920loPI   C1B14717  15.860   5.178   6.696 -0.1298 -0.3907 -0.0116
  920loPI   C2B14718  15.854   5.283   7.104 -0.1572 -0.1788 -0.0772
  920loPI   C3B14719  15.912   5.290   7.562 -0.1898 -0.1205  0.2646
  920loPI   C4B14720  15.998   5.243   8.040 -0.2358  0.0906  0.4170
  921loPI    C114721   3.118  16.491   5.459 -0.0315 -0.0834 -0.3670
  921loPI    C214722   2.937  16.190   5.269 -0.0153 -0.1610 -0.2601
  921loPI    C314723   3.138  16.466   5.060 -0.0444 -0.2142 -0.3598
  921loPI   PO414724   2.944  16.495   5.719  0.0834  0.1211  0.1069
  921loPI   GL114725   2.944  16.576   6.046 -0.0158  0.0313 -0.3192
  921loPI   GL214726   2.733  16.737   6.109 -0.2286 -0.2332 -0.3190
  921loPI   C1A14727   3.288  16.424   6.399  0.0359 -0.1051 -0.0470
  921loPI   C2A14728   3.415  16.469   6.798  0.2278  0.2468 -0.2676
  921loPI   C3A14729   3.455  16.612   7.209  0.1970 -0.0573  0.2863
  921loPI   C4A14730   3.504  16.531   7.730 -0.2853  0.0345  0.2580
  921loPI   C5A14731   3.426  16.594   8.140 -0.0121 -0.0112 -0.0631
  921loPI   C6A14732   3.517  16.419   8.560 -0.2039  0.1129  0.0066
  921loPI   C1B14733   2.700  16.843   6.603  0.1267  0.1974  0.2318
  921loPI   C2B14734   2.707  16.803   7.009 -0.1940  0.2032 -0.1497
  921loPI   C3B14735   2.650  16.837   7.409 -0.1267  0.1521 -0.0358
  921loPI   C4B14736   2.611  16.844   7.807 -0.2753  0.2100 -0.1367
  922loPI    C114737   3.796   6.147   5.551  0.4645  0.1051  0.0811
  922loPI    C214738   3.921   6.267   5.191  0.1458  0.1808 -0.0082
  922loPI    C314739   3.652   5.973   5.221 -0.0561  0.3787  0.1526
  922loPI   PO414740   3.744   6.372   5.684 -0.1447  0.2029  0.0403
  922loPI   GL114741   3.419   6.446   6.024  0.2207 -0.1507 -0.0684
  922loPI   GL214742   3.256   6.761   6.218 -0.4473  0.1659  0.0482
  922loPI   C1A14743   3.497   6.268   6.430 -0.0836  0.0506 -0.2293
  922loPI   C2A14744   3.457   6.225   6.840 -0.0024  0.3542  0.1607
  922loPI   C3A14745   3.484   6.313   7.220 -0.1485  0.0660 -0.0495
  922loPI   C4A14746   3.443   6.166   7.693 -0.0968 -0.1552  0.4758
  922loPI   C5A14747   3.304   5.808   8.050 -0.0132 -0.2009  0.1558
  922loPI   C6A14748   3.072   5.660   8.310  0.0815 -0.2581 -0.0794
  922loPI   C1B14749   3.157   6.575   6.613  0.0532  0.2470  0.1862
  922loPI   C2B14750   3.176   6.597   6.993  0.1079 -0.0764 -0.1258
  922loPI   C3B14751   3.140   6.639   7.414 -0.2930  0.0224  0.1777
  922loPI   C4B14752   3.124   6.524   7.880  0.0610  0.1944  0.1902
  923loPI    C114753   4.164  17.230   5.277  0.1465 -0.0374 -0.1584
  923loPI    C214754   3.857  17.024   5.125  0.0158 -0.0088  0.0623
  923loPI    C314755   4.203  17.044   4.925 -0.0579 -0.2150 -0.0895
  923loPI   PO414756   4.204  17.163   5.471  0.0254  0.3411  0.0677
  923loPI   GL114757   4.118  17.175   6.003  0.1708  0.0962  0.2439
  923loPI   GL214758   4.416  17.288   6.108  0.0342 -0.3307  0.0543
  923loPI   C1A14759   3.992  17.228   6.433 -0.2062 -0.0664  0.1628
  923loPI   C2A14760   4.152  17.207   6.801  0.2107 -0.2571  0.1139
  923loPI   C3A14761   4.158  17.050   7.252 -0.4223 -0.1375  0.2640
  923loPI   C4A14762   4.165  17.161   7.706 -0.1101 -0.0709  0.1682
  923loPI   C5A14763   4.097  17.103   8.073  0.1412 -0.0630  0.1094
  923loPI   C6A14764   3.970  17.342   8.328 -0.0960  0.0858  0.0571
  923loPI   C1B14765   4.589  17.232   6.589 -0.2499 -0.5178 -0.0197
  923loPI   C2B14766   4.591  17.271   6.961  0.1315  0.1358  0.0248
  923loPI   C3B14767   4.572  17.354   7.424 -0.2615  0.3469  0.1000
  923loPI   C4B14768   4.645  17.151   7.807 -0.3236 -0.5599  0.0485
  924loPI    C114769   5.792  14.837   5.461 -0.0950  0.0082  0.0991
  924loPI    C214770   5.599  15.031   5.170 -0.0334  0.0454  0.0827
  924loPI    C314771   5.682  14.641   5.130  0.3179  0.1367 -0.1212
  924loPI   PO414772   5.655  14.841   5.716 -0.0511 -0.0493 -0.2695
  924loPI   GL114773   5.627  14.707   6.146 -0.1118 -0.0958  0.4551
  924loPI   GL214774   5.501  14.455   6.044  0.1204  0.5360  0.1636
  924loPI   C1A14775   5.611  14.719   6.610 -0.1183 -0.0315  0.1886
  924loPI   C2A14776   5.558  14.658   7.033  0.1753 -0.1252  0.0965
  924loPI   C3A14777   5.521  14.655   7.481  0.0430 -0.0483 -0.0978
  924loPI   C4A14778   5.416  14.645   7.956 -0.0171  0.0571  0.0549
  924loPI   C5A14779   5.314  14.343   8.233  0.1673  0.0547  0.1139
  924loPI   C6A14780   5.257  14.030   8.132  0.0312  0.0361  0.0030
  924loPI   C1B14781   5.346  14.196   6.425 -0.1375 -0.0455  0.2754
  924loPI   C2B14782   5.360  14.195   6.910 -0.2173  0.0609  0.0830
  924loPI   C3B14783   5.316  14.165   7.319  0.1232  0.1676 -0.1134
  924loPI   C4B14784   5.300  14.175   7.681  0.4269  0.2455 -0.0613
  925loPI    C114785  15.333   4.767   5.434  0.1889 -0.2276  0.0556
  925loPI    C214786  15.021   4.799   5.187  0.0440 -0.1604  0.2449
  925loPI    C314787  15.382   4.925   5.070 -0.0503 -0.0054  0.1174
  925loPI   PO414788  15.284   4.814   5.743  0.0911 -0.2049 -0.0614
  925loPI   GL114789  15.346   4.962   6.139  0.2556  0.0232 -0.0608
  925loPI   GL214790  15.043   5.121   6.024 -0.0160  0.0714  0.2349
  925loPI   C1A14791  15.413   5.040   6.532  0.1377  0.0040  0.1131
  925loPI   C2A14792  15.379   5.169   6.947  0.2138  0.0889  0.4349
  925loPI   C3A14793  15.415   5.219   7.427  0.1302 -0.1433  0.0560
  925loPI   C4A14794  15.504   5.218   7.891  0.1705  0.0926  0.0919
  925loPI   C5A14795  15.287   5.038   8.194 -0.1012 -0.1211  0.1612
  925loPI   C6A14796  15.216   4.887   8.655  0.0292 -0.0154 -0.0099
  925loPI   C1B14797  14.899   4.985   6.458  0.2071  0.0853  0.0275
  925loPI   C2B14798  14.855   5.053   6.821 -0.1238 -0.0769  0.0251
  925loPI   C3B14799  14.897   5.139   7.208 -0.1516  0.0054  0.1524
  925loPI   C4B14800  14.891   5.063   7.642  0.1443  0.0963  0.0018
  926loPI    C114801   9.998   0.566   5.469 -0.1411 -0.0699  0.0408
  926loPI    C214802   9.671   0.788   5.408 -0.0393  0.1005  0.1074
  926loPI    C314803   9.967   0.791   5.139  0.0503  0.2052  0.2061
  926loPI   PO414804  10.054   0.631   5.748 -0.0513 -0.0941  0.0759
  926loPI   GL114805   9.950   0.569   6.132  0.0051 -0.1585  0.0664
  926loPI   GL214806  10.074   0.803   6.375  0.0251 -0.1047 -0.0057
  926loPI   C1A14807   9.802   0.337   6.571 -0.3299  0.1127 -0.0055
  926loPI   C2A14808   9.663   0.171   7.000 -0.0942  0.1953  0.2073
  926loPI   C3A14809   9.586   0.121   7.454  0.0775  0.0936 -0.0442
  926loPI   C4A14810   9.600   0.122   7.869  0.1309 -0.1257  0.1611
  926loPI   C5A14811   9.303   0.162   8.309  0.0251 -0.2146 -0.0687
  926loPI   C6A14812   8.748   0.046   8.326  0.1466 -0.1552 -0.0093
  926loPI   C1B14813  10.012   0.729   6.823  0.0242  0.3907  0.0613
  926loPI   C2B14814   9.850   0.628   7.231 -0.0467  0.1268  0.0575
  926loPI   C3B14815   9.768   0.571   7.567 -0.3675  0.1210 -0.0060
  926loPI   C4B14816   9.976   0.621   7.913  0.0714  0.2817  0.1262
  927loPI    C114817  13.473   1.710   5.949 -0.0572  0.0050  0.1037
  927loPI    C214818  13.573   2.065   6.102  0.0908 -0.0303  0.0903
  927loPI    C314819  13.403   2.044   5.741 -0.2551  0.0528  0.2446
  927loPI   PO414820  13.371   1.556   6.196 -0.0307 -0.2172 -0.2077
  927loPI   GL114821  13.371   1.158   6.405  0.1391 -0.1859  0.0653
  927loPI   GL214822  13.153   1.249   6.527  0.0956  0.0435 -0.0512
  927loPI   C1A14823  13.527   1.124   6.835 -0.0731 -0.1083  0.2590
  927loPI   C2A14824  13.569   1.085   7.173  0.1403  0.3494 -0.3044
  927loPI   C3A14825  13.461   1.059   7.569  0.0079  0.0416  0.0517
  927loPI   C4A14826  13.477   1.024   8.013  0.1288  0.1606 -0.0658
  927loPI   C5A14827  13.221   0.934   8.389  0.0713 -0.1582  0.2201
  927loPI   C6A14828  13.533   0.848   8.733 -0.1773 -0.2667  0.4713
  927loPI   C1B14829  13.244   1.493   6.833 -0.1414  0.2925 -0.0654
  927loPI   C2B14830  13.004   1.494   7.239  0.0723 -0.3182 -0.1786
  927loPI   C3B14831  13.060   1.476   7.666  0.3068  0.0714 -0.1997
  927loPI   C4B14832  13.162   1.362   8.052  0.1591 -0.3067 -0.1609
  928loPI    C114833  17.073  14.855   5.452  0.1477 -0.1988  0.0042
  928loPI    C214834  17.252  15.203   5.372  0.1575 -0.1635  0.1763
  928loPI    C314835  16.926  15.095   5.168 -0.0162  0.0811  0.3178
  928loPI   PO414836  17.090  14.886   5.726 -0.1257  0.0691 -0.0835
  928loPI   GL114837  17.096  14.929   6.157  0.0916  0.1680  0.0760
  928loPI   GL214838  17.291  14.799   6.415  0.1915  0.2857 -0.1784
  928loPI   C1A14839  16.820  15.142   6.438 -0.3432 -0.2381  0.0492
  928loPI   C2A14840  16.646  15.143   6.836  0.1415  0.0124 -0.3070
  928loPI   C3A14841  16.655  15.147   7.365  0.5436  0.3959  0.0681
  928loPI   C4A14842  16.659  15.240   7.847 -0.0744 -0.3009 -0.1367
  928loPI   C5A14843  16.637  15.053   8.285 -0.1041  0.2043  0.0309
  928loPI   C6A14844  16.704  14.976   8.747  0.0975 -0.0371 -0.0322
  928loPI   C1B14845  17.480  14.678   6.757  0.1388  0.2408  0.1029
  928loPI   C2B14846  17.530  14.768   7.240  0.2618  0.3948 -0.2303
  928loPI   C3B14847  17.400  14.878   7.731 -0.1512  0.2466 -0.0349
  928loPI   C4B14848  17.470  14.776   8.088  0.2008 -0.2307  0.3183
  929loPI    C114849   7.339  10.162   5.205 -0.0086 -0.1194  0.0822
  929loPI    C214850   7.245  10.456   4.950 -0.0528 -0.0051  0.2285
  929loPI    C314851   7.119  10.083   4.880  0.1053 -0.0143 -0.0220
  929loPI   PO414852   7.474  10.243   5.397  0.3290  0.1899  0.0839
  929loPI   GL114853   7.622   9.978   5.753 -0.2029  0.0412  0.1692
  929loPI   GL214854   7.740   9.672   5.751  0.0239 -0.3196  0.0054
  929loPI   C1A14855   7.533  10.231   6.233  0.0618 -0.0634  0.2473
  929loPI   C2A14856   7.631  10.270   6.654  0.0162  0.0008  0.0620
  929loPI   C3A14857   7.503  10.364   7.043 -0.0655 -0.0783 -0.3229
  929loPI   C4A14858   7.588  10.368   7.568 -0.0691 -0.5377 -0.0059
  929loPI   C5A14859   7.439  10.227   7.927 -0.0477  0.0267 -0.0225
  929loPI   C6A14860   7.034  10.230   8.248  0.0868 -0.2982 -0.1606
  929loPI   C1B14861   7.719   9.549   6.165  0.2278  0.0945 -0.1463
  929loPI   C2B14862   7.645   9.379   6.503 -0.1859  0.3049  0.2371
  929loPI   C3B14863   7.742   9.494   6.947 -0.1835  0.0665 -0.2296
  929loPI   C4B14864   7.669   9.478   7.316 -0.1552 -0.2861  0.0011
  930loPI    C114865  14.026   6.732   5.712 -0.1799  0.1084 -0.0404
  930loPI    C214866  13.959   6.402   5.495 -0.0938 -0.0041  0.1018
  930loPI    C314867  13.922   6.763   5.327 -0.0061 -0.0903 -0.1058
  930loPI   PO414868  13.955   6.786   5.893  0.4589  0.0565  0.0125
  930loPI   GL114869  14.159   6.808   6.287  0.3576  0.2011  0.2708
  930loPI   GL214870  14.313   6.620   6.164  0.0655  0.1395  0.0002
  930loPI   C1A14871  14.155   6.806   6.692 -0.0499  0.1708  0.2033
  930loPI   C2A14872  14.189   6.840   7.176  0.1913  0.0947 -0.2147
  930loPI   C3A14873  14.249   6.859   7.570  0.1396 -0.2234 -0.0670
  930loPI   C4A14874  14.148   6.737   8.066 -0.0212 -0.3255 -0.1535
  930loPI   C5A14875  14.169   6.773   8.478  0.3604 -0.0349  0.1436
  930loPI   C6A14876  14.426   7.017   8.601  0.2002  0.0027  0.3901
  930loPI   C1B14877  14.469   6.394   6.459 -0.0003  0.1024 -0.0863
  930loPI   C2B14878  14.448   6.433   6.968  0.0958  0.0755 -0.2892
  930loPI   C3B14879  14.425   6.441   7.372 -0.3519 -0.2340  0.1049
  930loPI   C4B14880  14.477   6.437   7.753 -0.0768  0.1085 -0.0700
  931loPI    C114881  13.705   9.040   5.616  0.1687 -0.0483 -0.2552
  931loPI    C214882  13.395   8.929   5.389 -0.0634 -0.1651  0.1106
  931loPI    C314883  13.487   9.316   5.426 -0.2853 -0.1147  0.1492
  931loPI   PO414884  13.667   8.942   5.832 -0.1577 -0.0685  0.0884
  931loPI   GL114885  13.726   9.251   6.099  0.1325  0.0457  0.2675
  931loPI   GL214886  13.535   9.393   6.314 -0.0009 -0.0238 -0.1213
  931loPI   C1A14887  13.640   8.906   6.448 -0.0832 -0.1063 -0.2343
  931loPI   C2A14888  13.573   8.918   6.911  0.2464 -0.1275 -0.0254
  931loPI   C3A14889  13.604   8.889   7.344 -0.2832 -0.1118  0.1898
  931loPI   C4A14890  13.626   8.978   7.742  0.0840  0.1303  0.0305
  931loPI   C5A14891  13.558   9.121   8.143 -0.3938  0.2990 -0.0559
  931loPI   C6A14892  13.861   9.044   8.427  0.1911  0.0835  0.0642
  931loPI   C1B14893  13.362   9.315   6.686 -0.0699  0.0358 -0.1652
  931loPI   C2B14894  13.225   9.294   7.102  0.3080  0.1555 -0.1080
  931loPI   C3B14895  13.304   9.288   7.510 -0.1207  0.2834 -0.2204
  931loPI   C4B14896  13.251   9.406   7.939  0.2133  0.2538  0.3563
  932loPI    C114897  12.192   9.470   5.704 -0.2187 -0.1106  0.0609
  932loPI    C214898  11.978   9.445   5.367  0.0128 -0.0729 -0.0911
  932loPI    C314899  12.377   9.418   5.353  0.0409  0.1816  0.1502
  932loPI   PO414900  11.908   9.429   5.913  0.0692  0.2335  0.3714
  932loPI   GL114901  11.560   9.739   6.047  0.0646  0.2128  0.1844
  932loPI   GL214902  11.422   9.519   6.110 -0.2870 -0.0886  0.0936
  932loPI   C1A14903  11.634   9.982   6.423  0.0018  0.3483 -0.2135
  932loPI   C2A14904  11.658  10.069   6.836  0.0249 -0.0177 -0.1126
  932loPI   C3A14905  11.701  10.038   7.277 -0.1381 -0.2823  0.0177
  932loPI   C4A14906  11.576   9.960   7.665 -0.0764  0.0924  0.1296
  932loPI   C5A14907  11.559  10.053   8.031  0.2548 -0.0992 -0.2157
  932loPI   C6A14908  11.514   9.978   8.514 -0.0731  0.0444  0.0645
  932loPI   C1B14909  11.540   9.500   6.508  0.2097 -0.2539  0.1644
  932loPI   C2B14910  11.482   9.591   6.983  0.1470 -0.1531 -0.1952
  932loPI   C3B14911  11.407   9.502   7.446 -0.0024  0.1668  0.0266
  932loPI   C4B14912  11.406   9.585   7.859  0.1171  0.1247 -0.1057
  933loPI    C114913   5.515  10.836   5.559 -0.3106 -0.0988 -0.0206
  933loPI    C214914   5.547  11.046   5.221 -0.2285 -0.1167 -0.0242
  933loPI    C314915   5.478  10.653   5.205  0.1900 -0.1935 -0.0301
  933loPI   PO414916   5.304  10.921   5.746 -0.1285  0.0585  0.0615
  933loPI   GL114917   5.388  10.970   6.125 -0.2341 -0.0730 -0.1311
  933loPI   GL214918   5.438  11.289   5.991  0.0959 -0.1480 -0.2878
  933loPI   C1A14919   5.426  11.041   6.529  0.0587 -0.0683 -0.0588
  933loPI   C2A14920   5.379  10.967   6.897 -0.1838 -0.0175 -0.1676
  933loPI   C3A14921   5.405  11.003   7.332  0.3796 -0.0547  0.0799
  933loPI   C4A14922   5.524  10.937   7.713  0.0844 -0.0879  0.0198
  933loPI   C5A14923   5.272  10.848   8.034  0.0575 -0.3163 -0.0186
  933loPI   C6A14924   5.210  10.863   8.405  0.2355 -0.0365  0.2934
  933loPI   C1B14925   5.183  11.470   6.286 -0.0783 -0.1254  0.1755
  933loPI   C2B14926   5.149  11.384   6.753 -0.0079  0.0047  0.2754
  933loPI   C3B14927   5.058  11.441   7.081 -0.0986 -0.0397  0.0494
  933loPI   C4B14928   5.044  11.406   7.530 -0.0611 -0.2412  0.0459
  934loPI    C114929   3.384   7.382   5.736  0.2139 -0.1435  0.1810
  934loPI    C214930   3.318   7.124   5.438 -0.0058  0.1466 -0.0277
  934loPI    C314931   3.412   7.504   5.356  0.0516  0.2005  0.2748
  934loPI   PO414932   3.195   7.331   5.946 -0.0721  0.1160  0.0466
  934loPI   GL114933   3.229   7.232   6.277 -0.3224 -0.0322 -0.2004
  934loPI   GL214934   3.075   7.563   6.416  0.0024 -0.2412  0.2003
  934loPI   C1A14935   3.340   7.062   6.716 -0.0279  0.1428  0.0578
  934loPI   C2A14936   3.319   7.116   7.226 -0.0182 -0.0894 -0.2401
  934loPI   C3A14937   3.333   7.037   7.677  0.0929 -0.2497  0.2157
  934loPI   C4A14938   3.277   7.154   8.034  0.0578  0.0163  0.1435
  934loPI   C5A14939   3.174   7.219   8.450  0.1937  0.0514 -0.0668
  934loPI   C6A14940   3.119   7.171   8.891 -0.1224  0.1112  0.3423
  934loPI   C1B14941   2.954   7.563   6.778  0.0553 -0.0272 -0.0387
  934loPI   C2B14942   2.992   7.593   7.188 -0.2143 -0.0001 -0.0270
  934loPI   C3B14943   3.036   7.455   7.635  0.1931 -0.0030 -0.0460
  934loPI   C4B14944   2.969   7.568   8.060  0.0617 -0.3306 -0.0474
  935loPI    C114945   2.418  12.788   5.385  0.0903 -0.1312 -0.0890
  935loPI    C214946   2.530  12.547   5.086 -0.0867 -0.0330 -0.2367
  935loPI    C314947   2.321  12.879   5.008  0.3586  0.2985 -0.0609
  935loPI   PO414948   2.345  12.678   5.607 -0.2696  0.0106  0.0132
  935loPI   GL114949   2.331  12.816   5.955 -0.0803  0.0496 -0.1529
  935loPI   GL214950   2.094  12.524   6.082 -0.1932  0.1612 -0.3314
  935loPI   C1A14951   2.372  12.832   6.394 -0.0349 -0.0216  0.0964
  935loPI   C2A14952   2.386  12.804   6.846 -0.1086 -0.0396  0.3529
  935loPI   C3A14953   2.384  12.870   7.259 -0.1225 -0.1801 -0.2044
  935loPI   C4A14954   2.306  12.835   7.704 -0.1163  0.1738 -0.0017
  935loPI   C5A14955   2.208  12.812   8.121 -0.1245  0.0545  0.1304
  935loPI   C6A14956   2.311  12.616   8.549 -0.2077  0.2144 -0.1619
  935loPI   C1B14957   2.246  12.358   6.465  0.3973 -0.2064  0.1571
  935loPI   C2B14958   2.178  12.364   6.871 -0.2613  0.1110 -0.0438
  935loPI   C3B14959   2.135  12.417   7.299 -0.1492  0.3188  0.1766
  935loPI   C4B14960   2.022  12.416   7.695 -0.0628  0.1884  0.1059
  936loPI    C114961   0.059   3.046   5.442  0.1748  0.1188 -0.1231
  936loPI    C214962  -0.094   3.185   5.100 -0.2318 -0.2746 -0.1099
  936loPI    C314963   0.221   2.939   5.092  0.1634  0.2164 -0.1585
  936loPI   PO414964   0.003   3.240   5.637 -0.1348 -0.0001 -0.0614
  936loPI   GL114965  -0.270   3.330   6.116 -0.1743 -0.1473 -0.0274
  936loPI   GL214966  -0.132   3.075   6.185  0.1901 -0.0909  0.0649
  936loPI   C1A14967  -0.336   3.228   6.589 -0.0904 -0.0465  0.2269
  936loPI   C2A14968  -0.271   3.163   7.081 -0.2471 -0.3069  0.2793
  936loPI   C3A14969  -0.292   3.230   7.504  0.1254  0.3061  0.2978
  936loPI   C4A14970  -0.260   3.158   7.983  0.2256  0.1292 -0.0477
  936loPI   C5A14971  -0.459   3.257   8.350  0.2692  0.1004  0.1309
  936loPI   C6A14972  -0.871   3.280   8.432  0.3115  0.0184  0.1813
  936loPI   C1B14973  -0.039   2.823   6.506 -0.0395  0.1983  0.1979
  936loPI   C2B14974   0.047   2.685   6.954  0.0432 -0.1843  0.1919
  936loPI   C3B14975   0.040   2.769   7.393  0.1695 -0.1108 -0.2583
  936loPI   C4B14976  -0.054   2.774   7.760  0.3269  0.2270 -0.0112
  937loPI    C114977   4.771   5.439   5.671  0.1104  0.0310 -0.0815
  937loPI    C214978   4.992   5.440   5.338  0.1993 -0.0069 -0.0231
  937loPI    C314979   4.624   5.596   5.334  0.2899  0.2093 -0.0789
  937loPI   PO414980   5.026   5.461   5.861 -0.3377  0.1785 -0.0077
  937loPI   GL114981   5.100   5.435   6.212 -0.1986 -0.0136  0.0238
  937loPI   GL214982   5.010   5.062   6.273  0.2599  0.1621 -0.0464
  937loPI   C1A14983   5.130   5.467   6.560 -0.1365 -0.1829  0.1523
  937loPI   C2A14984   5.036   5.524   6.945  0.0387  0.2095  0.0410
  937loPI   C3A14985   5.065   5.444   7.351  0.1982  0.1460  0.1545
  937loPI   C4A14986   5.055   5.391   7.776  0.0474  0.2056 -0.1111
  937loPI   C5A14987   5.172   5.135   8.098  0.1737 -0.2460 -0.1428
  937loPI   C6A14988   5.290   5.223   8.592  0.0879  0.1691  0.0203
  937loPI   C1B14989   4.840   5.047   6.625  0.1154 -0.0464  0.4339
  937loPI   C2B14990   4.893   5.012   7.065  0.0396 -0.1476  0.0454
  937loPI   C3B14991   4.818   5.073   7.526  0.0687  0.3407 -0.0417
  937loPI   C4B14992   4.821   4.929   7.852 -0.0595  0.1163 -0.0568
  938loPI    C114993   4.534  15.962   5.432  0.0979  0.4018  0.1284
  938loPI    C214994   4.866  16.050   5.228  0.1028 -0.0921 -0.0922
  938loPI    C314995   4.513  16.192   5.106  0.1468 -0.1246 -0.2587
  938loPI   PO414996   4.577  16.013   5.710 -0.0152 -0.2050 -0.0873
  938loPI   GL114997   4.422  15.911   6.124 -0.0955 -0.0027 -0.2611
  938loPI   GL214998   4.768  16.011   6.206 -0.0181 -0.3546 -0.2010
  938loPI   C1A14999   4.229  16.219   6.418  0.2068  0.0156  0.0231
  938loPI   C2A15000   4.256  16.206   6.788  0.0264  0.1556  0.2844
  938loPI   C3A15001   4.237  16.180   7.165  0.2432 -0.2174  0.1567
  938loPI   C4A15002   4.199  16.252   7.602  0.0893 -0.1867  0.1576
  938loPI   C5A15003   4.246  16.219   8.072 -0.1841  0.0720 -0.0534
  938loPI   C6A15004   4.162  16.209   8.458  0.0186 -0.1273 -0.2316
  938loPI   C1B15005   4.605  15.870   6.599  0.0228  0.2680  0.3629
  938loPI   C2B15006   4.628  15.823   7.128 -0.2351 -0.1632 -0.0201
  938loPI   C3B15007   4.535  15.867   7.562  0.1789  0.1341  0.0662
  938loPI   C4B15008   4.561  15.795   7.989  0.1348 -0.2320 -0.3722
  939loPI    C115009  11.043   5.873   5.579 -0.0510  0.0377 -0.0261
  939loPI    C215010  11.233   5.558   5.423  0.1183  0.0496  0.1530
  939loPI    C315011  11.085   5.841   5.183 -0.0209 -0.1574 -0.0078
  939loPI   PO415012  10.980   5.873   5.758 -0.1674 -0.1326 -0.0162
  939loPI   GL115013  10.778   6.042   6.122 -0.0970 -0.0568  0.0840
  939loPI   GL215014  10.624   5.795   6.152  0.0025 -0.1109  0.1735
  939loPI   C1A15015  10.736   6.170   6.525 -0.0698  0.1592  0.3438
  939loPI   C2A15016  10.672   6.230   6.950  0.0440 -0.0458  0.1283
  939loPI   C3A15017  10.606   6.333   7.405  0.0328 -0.1588 -0.3840
  939loPI   C4A15018  10.604   6.297   7.855  0.2743  0.3858  0.0796
  939loPI   C5A15019  10.178   6.319   8.134 -0.0728 -0.0885  0.2546
  939loPI   C6A15020  10.081   6.374   8.634  0.0283 -0.0433  0.1042
  939loPI   C1B15021  10.427   5.724   6.545  0.0733 -0.2050 -0.0685
  939loPI   C2B15022  10.489   5.761   6.991  0.3582 -0.2421  0.4359
  939loPI   C3B15023  10.426   5.790   7.411 -0.1166 -0.2351  0.3111
  939loPI   C4B15024  10.478   5.837   7.769  0.2710 -0.1324  0.1158
  940loPI    C115025   8.519   0.883   5.464 -0.1500 -0.0062  0.0019
  940loPI    C215026   8.829   0.748   5.250 -0.1511 -0.1210  0.0722
  940loPI    C315027   8.480   0.823   5.071 -0.0126  0.2457 -0.0520
  940loPI   PO415028   8.533   0.718   5.739  0.1233 -0.2629  0.0245
  940loPI   GL115029   8.526   0.662   6.202  0.0007  0.0575 -0.1902
  940loPI   GL215030   8.516   0.995   6.173 -0.1916 -0.1699 -0.0406
  940loPI   C1A15031   8.311   0.606   6.633 -0.3134  0.1875  0.0635
  940loPI   C2A15032   8.323   0.518   7.076 -0.1059 -0.0677 -0.0979
  940loPI   C3A15033   8.349   0.519   7.461 -0.0347 -0.1297  0.3862
  940loPI   C4A15034   8.320   0.456   7.965  0.1165 -0.2645 -0.0306
  940loPI   C5A15035   8.369   0.322   8.397  0.0471 -0.0979 -0.0637
  940loPI   C6A15036   8.454   0.060   8.771  0.0296  0.0819  0.2860
  940loPI   C1B15037   8.564   1.014   6.628  0.1816 -0.1452  0.0703
  940loPI   C2B15038   8.492   1.004   7.001 -0.1268  0.1296 -0.1861
  940loPI   C3B15039   8.495   1.031   7.496  0.0073 -0.2475  0.0763
  940loPI   C4B15040   8.531   1.060   7.963 -0.0022 -0.2238 -0.2762
  941loPI    C115041   4.041   6.791   5.404  0.1071 -0.0648 -0.0332
  941loPI    C215042   3.656   6.747   5.303  0.0343  0.2581  0.0893
  941loPI    C315043   3.940   6.734   5.021 -0.0541 -0.0813  0.0109
  941loPI   PO415044   4.007   6.838   5.658 -0.1007  0.1732 -0.2101
  941loPI   GL115045   4.172   6.851   6.056 -0.1144 -0.0363 -0.2109
  941loPI   GL215046   3.904   6.616   6.108  0.0099  0.3303  0.0008
  941loPI   C1A15047   4.199   6.813   6.533  0.0319  0.0361  0.1181
  941loPI   C2A15048   4.227   6.734   7.007  0.0489  0.2982 -0.0327
  941loPI   C3A15049   4.097   6.707   7.325 -0.1504 -0.0870 -0.1582
  941loPI   C4A15050   4.133   6.694   7.759  0.1180 -0.2960  0.0388
  941loPI   C5A15051   3.962   6.412   8.081 -0.1917 -0.1765 -0.0095
  941loPI   C6A15052   4.234   6.224   8.426  0.1604  0.1809  0.1504
  941loPI   C1B15053   3.625   6.712   6.523 -0.1526 -0.2074  0.0642
  941loPI   C2B15054   3.646   6.693   6.945 -0.0468  0.0838 -0.2810
  941loPI   C3B15055   3.637   6.719   7.410  0.0864 -0.4395 -0.0403
  941loPI   C4B15056   3.629   6.656   7.839 -0.4265  0.0261 -0.1325
  942loPI    C115057   7.434  11.111   5.266 -0.0890 -0.2272 -0.3930
  942loPI    C215058   7.113  11.340   5.200  0.0958  0.0611 -0.3133
  942loPI    C315059   7.163  11.001   4.994 -0.2135  0.0580 -0.3886
  942loPI   PO415060   7.352  11.068   5.596 -0.0887 -0.0511  0.2157
  942loPI   GL115061   7.322  11.169   5.980  0.1903 -0.1385 -0.0634
  942loPI   GL215062   6.995  11.205   6.140  0.0555 -0.1394  0.1236
  942loPI   C1A15063   7.418  11.132   6.418 -0.0518 -0.1508  0.1803
  942loPI   C2A15064   7.401  11.198   6.826 -0.0577 -0.1981  0.1049
  942loPI   C3A15065   7.476  11.231   7.255 -0.0184  0.0131  0.4835
  942loPI   C4A15066   7.423  11.216   7.668  0.0912  0.0564  0.0329
  942loPI   C5A15067   7.279  11.381   8.072  0.1353 -0.2366 -0.1754
  942loPI   C6A15068   7.169  11.607   8.464 -0.0364 -0.0520  0.1731
  942loPI   C1B15069   6.923  11.138   6.517 -0.2266  0.1251  0.0558
  942loPI   C2B15070   6.945  11.106   6.972 -0.0038 -0.0295  0.0193
  942loPI   C3B15071   6.916  11.124   7.401  0.1194  0.1829 -0.0386
  942loPI   C4B15072   6.925  11.255   7.745 -0.0347  0.3652  0.0758
  943loPI    C115073   6.950   4.087   5.200  0.0700 -0.1418 -0.0861
  943loPI    C215074   7.049   4.422   5.006 -0.0390  0.0137  0.1219
  943loPI    C315075   6.885   4.117   4.807  0.0291  0.0964 -0.0631
  943loPI   PO415076   6.843   4.207   5.442  0.0332 -0.0231  0.1479
  943loPI   GL115077   6.632   4.071   5.811  0.0103  0.2420  0.0050
  943loPI   GL215078   6.746   3.880   6.019 -0.0121 -0.1287  0.1153
  943loPI   C1A15079   6.581   4.353   6.157  0.0437  0.1817 -0.1027
  943loPI   C2A15080   6.599   4.431   6.614  0.0107  0.0237  0.0146
  943loPI   C3A15081   6.567   4.399   7.072 -0.0339 -0.1379 -0.4105
  943loPI   C4A15082   6.506   4.377   7.525  0.0965  0.1870 -0.0733
  943loPI   C5A15083   6.667   4.408   7.902  0.0800 -0.1458 -0.0651
  943loPI   C6A15084   6.594   4.817   8.184  0.1574  0.1631 -0.0146
  943loPI   C1B15085   6.821   3.973   6.419 -0.1504 -0.2208 -0.2025
  943loPI   C2B15086   6.814   4.012   6.814  0.2088  0.0814  0.0784
  943loPI   C3B15087   6.829   4.002   7.247 -0.1785  0.0669  0.1056
  943loPI   C4B15088   6.889   3.998   7.719 -0.2001 -0.1202 -0.2581
  944loPI    C115089   7.754  17.579   5.404 -0.0115  0.5062 -0.2129
  944loPI    C215090   7.386  17.453   5.311  0.1229 -0.0272 -0.0570
  944loPI    C315091   7.576  17.709   5.070 -0.2578  0.0749 -0.2575
  944loPI   PO415092   7.693  17.465   5.742  0.1863  0.2469 -0.3309
  944loPI   GL115093   7.960  17.411   6.123  0.2004  0.2008 -0.0707
  944loPI   GL215094   8.073  17.058   6.029 -0.2489 -0.1357  0.1565
  944loPI   C1A15095   7.940  17.271   6.552  0.1991  0.2548 -0.2591
  944loPI   C2A15096   7.964  17.386   6.995 -0.1293  0.2949  0.2357
  944loPI   C3A15097   7.918  17.284   7.422 -0.1319  0.2434  0.3361
  944loPI   C4A15098   8.011  17.221   7.859 -0.2570 -0.3941  0.1783
  944loPI   C5A15099   7.854  17.182   8.242 -0.1182 -0.1868  0.1517
  944loPI   C6A15100   7.669  17.248   8.552 -0.2331 -0.2634  0.1270
  944loPI   C1B15101   8.148  16.856   6.354 -0.0204 -0.3983 -0.1813
  944loPI   C2B15102   8.278  16.881   6.712 -0.2293 -0.2082 -0.0906
  944loPI   C3B15103   8.270  16.879   7.142  0.0017 -0.1304 -0.1843
  944loPI   C4B15104   8.170  16.864   7.462 -0.1789 -0.0040 -0.0742
  945loPI    C115105  17.223  10.887   5.359 -0.0020  0.1840  0.0246
  945loPI    C215106  16.833  10.967   5.319 -0.0002  0.0710 -0.2383
  945loPI    C315107  17.012  10.715   5.066  0.1973 -0.0462  0.0141
  945loPI   PO415108  17.322  11.104   5.551 -0.3528 -0.2181 -0.3076
  945loPI   GL115109  17.339  11.144   6.000 -0.1048  0.0332 -0.0374
  945loPI   GL215110  17.079  11.301   6.204 -0.2098  0.0220 -0.0497
  945loPI   C1A15111  17.499  11.240   6.441 -0.0150 -0.0880 -0.0221
  945loPI   C2A15112  17.492  11.150   6.893  0.0134  0.1177  0.0030
  945loPI   C3A15113  17.427  11.139   7.266  0.1488  0.1579 -0.0311
  945loPI   C4A15114  17.486  11.210   7.666  0.2653  0.0331  0.1218
  945loPI   C5A15115  17.401  11.291   8.090  0.1828  0.1950 -0.1175
  945loPI   C6A15116  17.348  11.680   8.229 -0.2678  0.2346 -0.0199
  945loPI   C1B15117  17.145  11.616   6.453  0.1274  0.0809 -0.1308
  945loPI   C2B15118  17.089  11.605   6.857  0.0265  0.5969  0.0573
  945loPI   C3B15119  17.103  11.602   7.344  0.2168  0.3089  0.1686
  945loPI   C4B15120  17.178  11.687   7.760  0.1312  0.0968  0.0895
  946loPI    C115121  13.151   2.415   6.062 -0.0529  0.0572 -0.0689
  946loPI    C215122  12.838   2.606   5.902 -0.0546  0.0744 -0.0450
  946loPI    C315123  12.972   2.269   5.735  0.1212  0.2431 -0.2503
  946loPI   PO415124  13.088   2.452   6.320 -0.2055  0.0669  0.1425
  946loPI   GL115125  13.087   2.165   6.561 -0.2258  0.1426  0.0815
  946loPI   GL215126  13.354   1.950   6.501  0.2264 -0.0492  0.1193
  946loPI   C1A15127  12.912   1.911   6.831  0.0397  0.1120  0.0393
  946loPI   C2A15128  12.754   1.909   7.309 -0.1409 -0.1703 -0.3222
  946loPI   C3A15129  12.814   1.966   7.709 -0.1182 -0.1070 -0.0086
  946loPI   C4A15130  12.861   1.806   8.073 -0.2174  0.1358 -0.2367
  946loPI   C5A15131  13.050   1.773   8.423  0.0820 -0.1017 -0.1067
  946loPI   C6A15132  13.408   1.769   8.640  0.2649  0.2449 -0.3568
  946loPI   C1B15133  13.386   1.939   6.938  0.2057  0.1575  0.1445
  946loPI   C2B15134  13.249   1.914   7.290  0.0842 -0.1431  0.0810
  946loPI   C3B15135  13.283   2.015   7.698 -0.0172 -0.0774 -0.1038
  946loPI   C4B15136  13.343   2.122   8.160 -0.2942  0.0863  0.1260
  947loPI    C115137   7.593  15.610   5.779 -0.1937  0.1693  0.0765
  947loPI    C215138   7.725  15.986   5.756 -0.2532  0.1775 -0.1539
  947loPI    C315139   7.770  15.739   5.444  0.1338 -0.1238  0.1304
  947loPI   PO415140   7.591  15.579   6.033 -0.0717  0.0454 -0.2040
  947loPI   GL115141   7.375  15.733   6.397 -0.0056  0.0909 -0.0585
  947loPI   GL215142   7.300  15.351   6.388 -0.2434  0.0258 -0.1095
  947loPI   C1A15143   7.340  15.800   6.857 -0.0276  0.2095  0.0857
  947loPI   C2A15144   7.361  15.864   7.249  0.0035 -0.2005  0.1566
  947loPI   C3A15145   7.311  15.921   7.635 -0.1709 -0.1156 -0.0818
  947loPI   C4A15146   7.345  15.863   8.112 -0.0066 -0.1870  0.2411
  947loPI   C5A15147   7.214  15.768   8.508 -0.1919  0.2750 -0.2207
  947loPI   C6A15148   7.152  15.540   8.819  0.1276  0.0067 -0.0312
  947loPI   C1B15149   7.187  15.318   6.816 -0.1003  0.2117 -0.0887
  947loPI   C2B15150   7.144  15.353   7.239 -0.1352 -0.3827 -0.1580
  947loPI   C3B15151   7.171  15.456   7.782  0.1031 -0.1624 -0.1119
  947loPI   C4B15152   7.109  15.366   8.263  0.1279 -0.2141  0.1493
  948loPI    C115153   7.005   8.655   4.913  0.2321 -0.1560 -0.1111
  948loPI    C215154   7.205   8.927   4.700 -0.0767  0.1441 -0.0271
  948loPI    C315155   6.895   8.735   4.537 -0.1285  0.1579  0.0548
  948loPI   PO415156   7.061   8.803   5.243  0.2674 -0.2157  0.0257
  948loPI   GL115157   6.892   8.701   5.722  0.0421 -0.1988 -0.0169
  948loPI   GL215158   6.463   8.778   5.754 -0.3487 -0.0653  0.1259
  948loPI   C1A15159   7.094   8.838   6.130  0.0881  0.0872 -0.1435
  948loPI   C2A15160   7.092   8.859   6.531 -0.3308  0.2138  0.3209
  948loPI   C3A15161   7.044   8.953   7.030  0.1080  0.1374 -0.1113
  948loPI   C4A15162   7.004   8.825   7.441 -0.1061  0.1707  0.2895
  948loPI   C5A15163   7.115   8.893   7.799 -0.1288 -0.2737 -0.0421
  948loPI   C6A15164   6.885   8.873   8.127  0.0543  0.3302 -0.3853
  948loPI   C1B15165   6.554   8.835   6.159 -0.0206 -0.1594  0.0852
  948loPI   C2B15166   6.514   8.795   6.595 -0.0185  0.0125  0.1458
  948loPI   C3B15167   6.545   8.841   7.028 -0.0555 -0.0353  0.1550
  948loPI   C4B15168   6.522   8.829   7.512 -0.1543  0.1576  0.2187
  949loPI    C115169   9.573   9.450   5.529  0.0288 -0.1228 -0.1428
  949loPI    C215170   9.663   9.632   5.184 -0.1436 -0.1026 -0.1782
  949loPI    C315171   9.825   9.276   5.271  0.0926  0.0056 -0.1677
  949loPI   PO415172   9.571   9.508   5.767  0.1536 -0.1292  0.2766
  949loPI   GL115173   9.335   9.663   6.111  0.2212 -0.0578  0.2390
  949loPI   GL215174   9.171   9.850   6.245  0.0726  0.1665 -0.1620
  949loPI   C1A15175   9.523   9.313   6.455 -0.0889  0.0183 -0.0493
  949loPI   C2A15176   9.520   9.282   6.864  0.0327  0.0731 -0.1493
  949loPI   C3A15177   9.524   9.327   7.298 -0.1675 -0.0530  0.1714
  949loPI   C4A15178   9.528   9.356   7.749  0.0296 -0.4096 -0.1108
  949loPI   C5A15179   9.424   9.198   8.153  0.2417  0.0992 -0.1271
  949loPI   C6A15180   9.181   9.460   8.437  0.1065 -0.1176 -0.1450
  949loPI   C1B15181   9.240   9.677   6.666  0.0439  0.0897  0.0008
  949loPI   C2B15182   9.210   9.729   7.075  0.1845  0.0487  0.0814
  949loPI   C3B15183   9.164   9.686   7.596 -0.4376 -0.0377  0.0724
  949loPI   C4B15184   9.189   9.650   8.002 -0.1107 -0.4144 -0.0577
  950loPI    C115185   7.543  13.225   5.200 -0.0008  0.1472  0.0360
  950loPI    C215186   7.583  13.018   4.859 -0.0962  0.0707  0.0708
  950loPI    C315187   7.652  13.412   4.863  0.1735  0.0256  0.0238
  950loPI   PO415188   7.503  12.990   5.377  0.2106  0.1320 -0.2530
  950loPI   GL115189   7.382  12.943   5.835 -0.0264 -0.0881 -0.2558
  950loPI   GL215190   7.557  12.787   5.923  0.1375  0.1050 -0.1940
  950loPI   C1A15191   7.379  13.118   6.351  0.0300 -0.1354 -0.0260
  950loPI   C2A15192   7.304  13.113   6.710  0.2206  0.0465  0.0786
  950loPI   C3A15193   7.254  13.083   7.104 -0.1511 -0.3172  0.1628
  950loPI   C4A15194   7.128  13.041   7.551  0.0495  0.0710  0.0279
  950loPI   C5A15195   7.172  12.883   7.895  0.2129 -0.0094  0.0233
  950loPI   C6A15196   7.118  12.661   8.234 -0.0173 -0.1661 -0.2369
  950loPI   C1B15197   7.600  12.695   6.315  0.1318  0.1320 -0.0422
  950loPI   C2B15198   7.614  12.743   6.734  0.1535  0.0971  0.0645
  950loPI   C3B15199   7.590  12.693   7.082 -0.0180 -0.0707 -0.2462
  950loPI   C4B15200   7.389  12.631   7.482  0.0302  0.1057  0.1065
  951loPI    C115201  16.377  15.453   5.611  0.1636 -0.0033 -0.0104
  951loPI    C215202  16.655  15.167   5.633  0.0449 -0.1121  0.0918
  951loPI    C315203  16.457  15.227   5.290  0.0465 -0.1745  0.0797
  951loPI   PO415204  16.270  15.461   5.770  0.2137  0.1728  0.3114
  951loPI   GL115205  16.126  15.542   6.157 -0.0474  0.4895  0.1614
  951loPI   GL215206  16.354  15.718   6.249  0.0758  0.1834  0.2669
  951loPI   C1A15207  15.921  15.454   6.550  0.0335  0.1168  0.1835
  951loPI   C2A15208  15.836  15.457   6.915  0.0776 -0.2321  0.3090
  951loPI   C3A15209  15.921  15.444   7.313 -0.2408  0.1992  0.0598
  951loPI   C4A15210  15.879  15.471   7.737 -0.1171 -0.1420  0.1238
  951loPI   C5A15211  15.866  15.581   8.145 -0.1941  0.0278 -0.1052
  951loPI   C6A15212  15.539  15.494   8.359  0.0943 -0.1581  0.2460
  951loPI   C1B15213  16.405  15.522   6.613  0.1347  0.3416 -0.1919
  951loPI   C2B15214  16.431  15.612   7.109 -0.0509  0.0265  0.2950
  951loPI   C3B15215  16.401  15.591   7.460 -0.0312 -0.3951  0.0896
  951loPI   C4B15216  16.384  15.620   7.840 -0.3349 -0.2637 -0.5021
  952loPI    C115217   4.196  14.029   5.690  0.1670 -0.0210 -0.1394
  952loPI    C215218   4.067  13.817   5.376  0.0981 -0.1725 -0.0104
  952loPI    C315219   4.310  14.130   5.320 -0.2837  0.0905 -0.2542
  952loPI   PO415220   3.941  13.970   5.879 -0.0081 -0.0006 -0.1749
  952loPI   GL115221   3.739  13.956   6.176 -0.2034  0.4107  0.1819
  952loPI   GL215222   3.576  14.215   6.181 -0.0348 -0.1678  0.2247
  952loPI   C1A15223   3.833  13.983   6.574 -0.1342  0.0353 -0.0129
  952loPI   C2A15224   3.786  13.913   6.954 -0.0111 -0.0888  0.1702
  952loPI   C3A15225   3.769  13.891   7.390 -0.0991 -0.0069  0.0228
  952loPI   C4A15226   3.699  13.806   7.888 -0.3358 -0.1768 -0.1349
  952loPI   C5A15227   3.415  14.074   8.226  0.0332 -0.2472  0.0413
  952loPI   C6A15228   3.291  14.429   8.362  0.0940  0.4883  0.0528
  952loPI   C1B15229   3.447  14.363   6.528  0.0162  0.0486 -0.1214
  952loPI   C2B15230   3.488  14.359   6.984 -0.0541  0.3793  0.1048
  952loPI   C3B15231   3.396  14.233   7.420  0.0000 -0.0402  0.1575
  952loPI   C4B15232   3.406  14.361   7.804 -0.0745  0.1788  0.0279
  953loPI    C115233  10.348   8.590   5.378 -0.0407 -0.1777  0.0720
  953loPI    C215234  10.730   8.528   5.277 -0.0575  0.0635 -0.1497
  953loPI    C315235  10.450   8.554   4.993 -0.2204  0.0150  0.0046
  953loPI   PO415236  10.323   8.859   5.593 -0.1233  0.3389 -0.0830
  953loPI   GL115237  10.266   8.930   6.058  0.3658  0.1360  0.0998
  953loPI   GL215238   9.954   8.819   6.132  0.1703  0.1253 -0.0210
  953loPI   C1A15239  10.349   9.009   6.466 -0.1223  0.0754 -0.0015
  953loPI   C2A15240  10.323   8.862   6.853 -0.3046 -0.3428 -0.1043
  953loPI   C3A15241  10.359   9.038   7.253 -0.1327  0.0020  0.0132
  953loPI   C4A15242  10.293   8.997   7.695 -0.1119  0.1917 -0.0263
  953loPI   C5A15243  10.147   8.735   8.115  0.1671 -0.0571 -0.1328
  953loPI   C6A15244  10.361   8.573   8.418 -0.1218 -0.3612  0.1310
  953loPI   C1B15245   9.856   8.891   6.527 -0.2766  0.2493 -0.2711
  953loPI   C2B15246   9.849   8.948   6.985 -0.0695  0.0461 -0.0264
  953loPI   C3B15247   9.801   8.932   7.315  0.0340 -0.3620 -0.1759
  953loPI   C4B15248   9.752   8.880   7.669  0.0680  0.3163  0.1912
  954loPI    C115249  -0.029   4.903   5.478 -0.1571 -0.0684 -0.1606
  954loPI    C215250   0.166   4.630   5.695 -0.2269  0.1481  0.1831
  954loPI    C315251   0.046   4.542   5.324 -0.0584 -0.2106  0.2091
  954loPI   PO415252  -0.153   5.055   5.647  0.3922  0.2663  0.0387
  954loPI   GL115253  -0.171   5.133   5.995  0.0802 -0.1204  0.2986
  954loPI   GL215254   0.022   4.891   6.119  0.0614 -0.0957 -0.1422
  954loPI   C1A15255  -0.284   5.349   6.361 -0.0258  0.2248 -0.2736
  954loPI   C2A15256  -0.346   5.420   6.818 -0.0828  0.0173 -0.4044
  954loPI   C3A15257  -0.348   5.455   7.265 -0.3412  0.4774  0.1124
  954loPI   C4A15258  -0.333   5.455   7.771 -0.0265 -0.0487  0.1149
  954loPI   C5A15259  -0.239   5.704   8.180  0.2964  0.2409 -0.2515
  954loPI   C6A15260   0.145   5.838   8.489  0.1752  0.0399 -0.0186
  954loPI   C1B15261  -0.042   4.935   6.537  0.0220  0.1287  0.1214
  954loPI   C2B15262  -0.084   5.058   6.987 -0.1108  0.0157 -0.1089
  954loPI   C3B15263  -0.107   4.997   7.381  0.0975  0.0533 -0.0099
  954loPI   C4B15264  -0.025   5.045   7.879 -0.3315 -0.0231 -0.0317
  955loPI    C115265   3.784   2.968   5.295 -0.2386 -0.3460  0.0883
  955loPI    C215266   3.527   3.149   5.048 -0.2121 -0.2255  0.1484
  955loPI    C315267   3.884   3.030   4.913 -0.1538 -0.0605  0.1543
  955loPI   PO415268   3.844   3.058   5.517  0.0886  0.2548 -0.1593
  955loPI   GL115269   3.720   3.136   5.926 -0.0883 -0.4208 -0.1537
  955loPI   GL215270   3.867   2.809   6.174 -0.0509  0.1538 -0.0478
  955loPI   C1A15271   3.560   3.210   6.367 -0.1125  0.3196  0.2360
  955loPI   C2A15272   3.657   3.125   6.812 -0.1358  0.4116  0.2732
  955loPI   C3A15273   3.670   3.057   7.235 -0.1395  0.0883 -0.0071
  955loPI   C4A15274   3.661   3.112   7.646 -0.0044  0.2051  0.1748
  955loPI   C5A15275   3.513   3.090   8.137 -0.0768 -0.0069 -0.3004
  955loPI   C6A15276   3.232   2.910   8.468  0.1171 -0.0096  0.2834
  955loPI   C1B15277   3.925   2.749   6.614 -0.0861 -0.0408  0.0514
  955loPI   C2B15278   3.916   2.641   6.985  0.0762 -0.1737  0.1112
  955loPI   C3B15279   3.895   2.675   7.481 -0.1465 -0.1219  0.0791
  955loPI   C4B15280   3.898   2.593   7.895 -0.0665  0.1950 -0.0960
  956loPI    C115281  11.416  11.031   5.703 -0.1724 -0.1417  0.0781
  956loPI    C215282  11.023  11.035   5.781 -0.2035  0.0566 -0.0814
  956loPI    C315283  11.154  11.092   5.407 -0.0198  0.0625 -0.0172
  956loPI   PO415284  11.531  10.964   5.855 -0.1254 -0.1366 -0.0013
  956loPI   GL115285  11.516  10.911   6.288 -0.1656 -0.2635  0.2126
  956loPI   GL215286  11.774  11.102   6.260  0.3120 -0.2306  0.0908
  956loPI   C1A15287  11.561  10.921   6.692  0.3000 -0.1615  0.1755
  956loPI   C2A15288  11.503  10.879   7.109 -0.0276  0.0951  0.0114
  956loPI   C3A15289  11.566  10.891   7.483  0.1021 -0.3861 -0.1093
  956loPI   C4A15290  11.504  10.943   7.949  0.2632 -0.0276  0.2539
  956loPI   C5A15291  11.515  11.211   8.245  0.1125 -0.0048 -0.1549
  956loPI   C6A15292  11.792  11.384   8.368  0.1886 -0.0328  0.2781
  956loPI   C1B15293  11.745  11.419   6.559  0.0550  0.1261  0.2726
  956loPI   C2B15294  11.802  11.401   6.889  0.0657  0.2310 -0.0212
  956loPI   C3B15295  11.824  11.421   7.345  0.2588  0.0283  0.2024
  956loPI   C4B15296  11.661  11.441   7.747 -0.1391 -0.2346  0.0384
  957loPI    C115297  16.379   7.342   5.672 -0.1225  0.0098  0.1168
  957loPI    C215298  16.319   6.972   5.532  0.0908  0.0372 -0.0521
  957loPI    C315299  16.172   7.288   5.334 -0.0569  0.0464  0.0706
  957loPI   PO415300  16.568   7.356   5.714  0.1641  0.2396  0.2442
  957loPI   GL115301  16.777   7.397   6.063 -0.0261 -0.1337 -0.0346
  957loPI   GL215302  16.430   7.415   6.183  0.1398  0.0757  0.1468
  957loPI   C1A15303  16.914   7.568   6.467 -0.3589  0.0926 -0.4662
  957loPI   C2A15304  16.904   7.568   6.997 -0.1502  0.4014 -0.0693
  957loPI   C3A15305  16.848   7.552   7.420 -0.1830  0.0756  0.4077
  957loPI   C4A15306  16.856   7.613   7.894  0.0941 -0.0115 -0.0059
  957loPI   C5A15307  16.865   7.501   8.264  0.0314 -0.1248 -0.0353
  957loPI   C6A15308  16.852   7.148   8.658  0.6475  0.2661 -0.2067
  957loPI   C1B15309  16.466   7.477   6.677 -0.1569 -0.1825  0.4366
  957loPI   C2B15310  16.414   7.429   7.089 -0.0188  0.2670 -0.0980
  957loPI   C3B15311  16.327   7.542   7.537 -0.1072 -0.0285  0.0437
  957loPI   C4B15312  16.333   7.569   7.937 -0.0874 -0.1816  0.0188
  958loPI    C115313  11.035   9.086   5.449  0.0959  0.3053 -0.1444
  958loPI    C215314  10.828   9.382   5.277  0.0236  0.1980 -0.2437
  958loPI    C315315  10.704   9.003   5.240  0.1677  0.1456 -0.1969
  958loPI   PO415316  11.072   9.180   5.683 -0.0101 -0.0195  0.1138
  958loPI   GL115317  11.018   9.011   6.065 -0.1218  0.1293 -0.1188
  958loPI   GL215318  11.323   9.036   6.304 -0.2935  0.1607 -0.0926
  958loPI   C1A15319  10.838   9.043   6.511 -0.2539  0.1146 -0.3257
  958loPI   C2A15320  10.795   9.035   6.925 -0.2163 -0.3381  0.0168
  958loPI   C3A15321  10.794   9.048   7.356  0.2428  0.2945 -0.2308
  958loPI   C4A15322  10.747   9.007   7.773  0.0632 -0.2343  0.4573
  958loPI   C5A15323  10.733   8.986   8.200  0.1319 -0.0191  0.0737
  958loPI   C6A15324  10.756   8.939   8.600  0.0022  0.1789  0.3607
  958loPI   C1B15325  11.287   9.086   6.730  0.1310  0.2496  0.0891
  958loPI   C2B15326  11.237   9.093   7.137  0.2712 -0.1770 -0.2332
  958loPI   C3B15327  11.270   9.049   7.583 -0.1729 -0.0686  0.3583
  958loPI   C4B15328  11.191   9.118   8.007  0.3595 -0.1319  0.2536
  959loPI    C115329   5.089  16.404   5.625  0.1799 -0.0413  0.1777
  959loPI    C215330   5.272  16.637   5.894  0.0207  0.0794  0.1830
  959loPI    C315331   5.325  16.703   5.503  0.0001  0.1053  0.1846
  959loPI   PO415332   5.104  16.162   5.674 -0.0930  0.1572 -0.0612
  959loPI   GL115333   5.293  16.009   6.070 -0.2805  0.2303  0.1280
  959loPI   GL215334   5.555  16.051   6.179  0.2969 -0.0033 -0.1160
  959loPI   C1A15335   5.162  16.026   6.541 -0.0991 -0.2272  0.0196
  959loPI   C2A15336   5.173  16.005   6.956 -0.2506  0.0637  0.1325
  959loPI   C3A15337   5.051  15.879   7.352 -0.2542  0.0494  0.2444
  959loPI   C4A15338   5.100  15.837   7.805  0.3172 -0.0919  0.1061
  959loPI   C5A15339   5.018  15.713   8.234  0.2849 -0.1907  0.1387
  959loPI   C6A15340   5.013  15.574   8.744 -0.3402  0.2530 -0.2792
  959loPI   C1B15341   5.626  16.035   6.683 -0.0845 -0.1094  0.0483
  959loPI   C2B15342   5.637  16.007   7.187 -0.0976 -0.2673  0.1365
  959loPI   C3B15343   5.561  15.976   7.508 -0.0742 -0.1596  0.0737
  959loPI   C4B15344   5.479  16.089   7.999  0.0680  0.1244 -0.0539
  960loPI    C115345  10.540  15.374   5.688  0.0125 -0.1757  0.0153
  960loPI    C215346  10.636  15.004   5.573 -0.2223 -0.2068 -0.0870
  960loPI    C315347  10.368  15.215   5.364  0.2377  0.1916 -0.2927
  960loPI   PO415348  10.507  15.292   5.973  0.1224 -0.0603  0.2429
  960loPI   GL115349  10.777  15.424   6.267  0.0166  0.1823 -0.0219
  960loPI   GL215350  10.522  15.399   6.485 -0.0303 -0.0744 -0.1086
  960loPI   C1A15351  11.070  15.591   6.547 -0.0187 -0.1056 -0.0594
  960loPI   C2A15352  11.075  15.478   7.019  0.0801 -0.0770 -0.1204
  960loPI   C3A15353  11.047  15.389   7.415  0.1870 -0.0568  0.0493
  960loPI   C4A15354  10.988  15.417   7.805  0.0032  0.0570  0.1283
  960loPI   C5A15355  10.896  15.440   8.223  0.0115 -0.0809  0.0218
  960loPI   C6A15356  10.911  15.256   8.611  0.2421 -0.2144  0.1117
  960loPI   C1B15357  10.566  15.364   6.837  0.2956 -0.2199  0.2909
  960loPI   C2B15358  10.523  15.263   7.159 -0.0814 -0.1102 -0.0425
  960loPI   C3B15359  10.471  15.340   7.597 -0.1471 -0.0652  0.0062
  960loPI   C4B15360  10.499  15.302   7.967  0.1192 -0.2259  0.3401
  961loPI    C115361   1.394  12.701   5.498 -0.2498 -0.0038 -0.0469
  961loPI    C215362   1.396  12.687   5.098 -0.0609  0.0451 -0.0489
  961loPI    C315363   1.544  13.006   5.287 -0.1291  0.0122  0.0611
  961loPI   PO415364   1.546  12.518   5.601  0.4028  0.2904  0.1053
  961loPI   GL115365   1.587  12.386   5.976 -0.1296 -0.1007 -0.1694
  961loPI   GL215366   1.337  12.255   6.076  0.0834 -0.1660  0.3837
  961loPI   C1A15367   1.734  12.366   6.428  0.1668 -0.0190 -0.2497
  961loPI   C2A15368   1.679  12.340   6.861 -0.2687  0.0075  0.0584
  961loPI   C3A15369   1.600  12.329   7.286  0.2971  0.0102 -0.1370
  961loPI   C4A15370   1.569  12.330   7.758  0.0861  0.0052 -0.0280
  961loPI   C5A15371   1.414  12.576   8.129  0.1106  0.2725 -0.1160
  961loPI   C6A15372   1.399  12.628   8.631 -0.0209 -0.2079  0.0392
  961loPI   C1B15373   1.176  12.231   6.529 -0.1442  0.0917  0.3334
  961loPI   C2B15374   1.164  12.274   6.915 -0.1104 -0.0787  0.0880
  961loPI   C3B15375   1.087  12.272   7.407  0.0049 -0.0544  0.1498
  961loPI   C4B15376   1.103  12.254   7.896  0.0362 -0.0862 -0.2268
  962loPI    C115377   9.535   7.460   5.022  0.0407 -0.0528 -0.0114
  962loPI    C215378   9.136   7.445   5.043  0.0401 -0.0537 -0.0238
  962loPI    C315379   9.314   7.725   4.819  0.0504  0.0834  0.1531
  962loPI   PO415380   9.636   7.383   5.305 -0.0326 -0.1151  0.0339
  962loPI   GL115381   9.667   7.457   5.722 -0.0743 -0.0919 -0.0560
  962loPI   GL215382   9.590   7.168   5.802 -0.2864  0.0292  0.0389
  962loPI   C1A15383   9.744   7.504   6.121 -0.1466 -0.1236 -0.0193
  962loPI   C2A15384   9.743   7.439   6.619 -0.0024  0.2452 -0.1237
  962loPI   C3A15385   9.638   7.572   7.066  0.1037  0.0272 -0.0721
  962loPI   C4A15386   9.694   7.512   7.562 -0.0252 -0.1871  0.0705
  962loPI   C5A15387   9.580   7.249   8.029 -0.0732 -0.0845  0.1911
  962loPI   C6A15388   9.725   7.020   8.459 -0.3494  0.0707 -0.2287
  962loPI   C1B15389   9.669   7.024   6.168  0.0246  0.1092 -0.1239
  962loPI   C2B15390   9.543   6.966   6.559 -0.1104  0.3452 -0.0591
  962loPI   C3B15391   9.556   7.051   7.069 -0.0844 -0.1747 -0.0060
  962loPI   C4B15392   9.514   7.067   7.541 -0.1464  0.0885  0.1891
  963loPI    C115393   6.178  16.627   5.330 -0.0148 -0.1771  0.0492
  963loPI    C215394   6.150  16.398   5.003 -0.1975 -0.3163  0.1601
  963loPI    C315395   6.078  16.791   4.979 -0.0197 -0.2923 -0.0038
  963loPI   PO415396   6.124  16.410   5.541  0.0755  0.0198 -0.0044
  963loPI   GL115397   6.135  16.433   5.982 -0.1389  0.0362 -0.0019
  963loPI   GL215398   6.074  16.145   6.141  0.0134 -0.0317  0.0533
  963loPI   C1A15399   6.220  16.616   6.372 -0.4390 -0.0689 -0.0018
  963loPI   C2A15400   6.239  16.596   6.734 -0.0989  0.0698 -0.2505
  963loPI   C3A15401   6.190  16.642   7.227 -0.0169 -0.0669 -0.0915
  963loPI   C4A15402   6.174  16.528   7.634  0.1909  0.0854 -0.1304
  963loPI   C5A15403   6.187  16.652   8.041 -0.0781  0.2584  0.1761
  963loPI   C6A15404   6.008  16.875   8.320  0.1898  0.0818 -0.0413
  963loPI   C1B15405   6.081  16.146   6.646  0.1755  0.0432  0.0740
  963loPI   C2B15406   6.146  16.136   7.026  0.2665  0.1187  0.0815
  963loPI   C3B15407   6.056  16.097   7.413  0.2404 -0.3134  0.2413
  963loPI   C4B15408   5.940  16.132   7.866 -0.0158 -0.1390  0.1988
  964loPI    C115409   7.554   1.948   5.139 -0.1457  0.0775 -0.1086
  964loPI    C215410   7.917   2.031   4.994  0.0125 -0.2224  0.1057
  964loPI    C315411   7.674   1.785   4.794 -0.1494  0.1227 -0.1313
  964loPI   PO415412   7.489   2.269   5.270  0.4560  0.1900  0.0178
  964loPI   GL115413   7.328   2.387   5.674 -0.0669 -0.2001  0.1217
  964loPI   GL215414   7.345   2.722   5.817  0.1198  0.3352  0.2102
  964loPI   C1A15415   7.207   2.172   6.153  0.3060  0.3642  0.4005
  964loPI   C2A15416   7.120   2.194   6.625  0.0052 -0.1121  0.1804
  964loPI   C3A15417   7.097   2.237   7.066 -0.1945  0.1010 -0.2370
  964loPI   C4A15418   7.055   2.235   7.465 -0.1566 -0.3610 -0.1691
  964loPI   C5A15419   7.029   2.276   7.817 -0.3629  0.0148  0.2837
  964loPI   C6A15420   6.828   2.502   8.171 -0.2435  0.0329  0.0134
  964loPI   C1B15421   7.241   2.643   6.210 -0.1346  0.3347  0.1720
  964loPI   C2B15422   7.260   2.715   6.616 -0.0708 -0.1345 -0.0150
  964loPI   C3B15423   7.315   2.676   7.124  0.0857 -0.0050  0.2540
  964loPI   C4B15424   7.298   2.727   7.600  0.1079 -0.0729  0.1879
  965loPI    C115425  15.690   7.128   5.338 -0.0219 -0.0536 -0.0266
  965loPI    C215426  15.766   7.451   5.115 -0.0226  0.0022  0.0535
  965loPI    C315427  15.392   7.314   5.146 -0.0227 -0.0050  0.0213
  965loPI   PO415428  15.756   7.186   5.585 -0.0345 -0.5061 -0.0586
  965loPI   GL115429  15.837   7.017   5.889 -0.0334 -0.1004 -0.1800
  965loPI   GL215430  16.137   6.977   5.988 -0.1948 -0.0516  0.1618
  965loPI   C1A15431  15.739   6.938   6.348  0.3314 -0.0440 -0.0637
  965loPI   C2A15432  15.732   7.000   6.774  0.4262  0.2494 -0.4552
  965loPI   C3A15433  15.614   7.021   7.204 -0.0004  0.0077  0.0684
  965loPI   C4A15434  15.645   6.981   7.677 -0.1360 -0.3421 -0.0563
  965loPI   C5A15435  15.725   6.851   8.038  0.0422  0.0743 -0.0778
  965loPI   C6A15436  15.922   6.856   8.429 -0.2851 -0.2601 -0.1808
  965loPI   C1B15437  16.247   7.020   6.523 -0.0601 -0.0627  0.0735
  965loPI   C2B15438  16.216   7.037   6.910  0.0652  0.1798  0.3911
  965loPI   C3B15439  16.119   7.082   7.310 -0.1004  0.2274  0.0745
  965loPI   C4B15440  16.136   7.022   7.862 -0.0292  0.0476 -0.0443
  966loPI    C115441   0.982  12.349   5.701  0.0630 -0.2059 -0.0269
  966loPI    C215442   0.942  12.591   5.385  0.1477 -0.1273  0.0224
  966loPI    C315443   1.152  12.252   5.352  0.2546 -0.0618  0.0248
  966loPI   PO415444   1.022  12.577   5.882  0.1666 -0.1011 -0.1040
  966loPI   GL115445   0.807  12.713   6.336 -0.0456  0.1857  0.0099
  966loPI   GL215446   0.934  12.997   6.251  0.0598 -0.0272 -0.0013
  966loPI   C1A15447   0.798  12.520   6.663 -0.0182 -0.0338  0.3440
  966loPI   C2A15448   0.847  12.618   7.123  0.2373  0.0327  0.0381
  966loPI   C3A15449   0.796  12.690   7.545  0.0565 -0.0495 -0.0421
  966loPI   C4A15450   0.788  12.668   8.069 -0.2916  0.1159 -0.0366
  966loPI   C5A15451   1.023  12.924   8.327  0.0843  0.2253  0.0494
  966loPI   C6A15452   0.886  13.093   8.758  0.3403 -0.1382 -0.0827
  966loPI   C1B15453   1.040  13.086   6.675 -0.1727  0.0860  0.1295
  966loPI   C2B15454   0.928  13.185   7.156 -0.1895  0.2666 -0.0806
  966loPI   C3B15455   0.998  13.203   7.593 -0.5198  0.0280  0.0579
  966loPI   C4B15456   1.053  13.157   7.922  0.0053 -0.0182  0.3349
  967loPI    C115457   1.032   3.211   5.472  0.1572  0.1248  0.0527
  967loPI    C215458   1.221   2.957   5.227  0.1740  0.1362  0.0538
  967loPI    C315459   1.309   3.347   5.218  0.1676  0.1381  0.0711
  967loPI   PO415460   1.028   3.020   5.716 -0.0416  0.1842  0.2551
  967loPI   GL115461   1.032   3.003   6.060 -0.3243 -0.1709  0.0864
  967loPI   GL215462   0.822   3.195   6.184  0.1321 -0.0050  0.0145
  967loPI   C1A15463   1.048   2.738   6.400 -0.2085  0.0783 -0.0411
  967loPI   C2A15464   1.035   2.851   6.850 -0.1554  0.0876  0.1896
  967loPI   C3A15465   1.043   2.904   7.280  0.1823  0.0355 -0.2209
  967loPI   C4A15466   0.969   2.966   7.712  0.0359  0.0707 -0.1355
  967loPI   C5A15467   1.160   3.014   8.197 -0.1890  0.2911 -0.0121
  967loPI   C6A15468   1.009   2.980   8.705 -0.1868 -0.1931 -0.2880
  967loPI   C1B15469   0.701   3.191   6.616 -0.0350 -0.0021 -0.0234
  967loPI   C2B15470   0.710   3.265   7.055  0.2347 -0.1156 -0.1734
  967loPI   C3B15471   0.721   3.345   7.538 -0.0921 -0.2657 -0.1206
  967loPI   C4B15472   0.722   3.317   7.988 -0.1617  0.2427  0.1168
  968loPI    C115473  13.422   6.589   5.412  0.3380 -0.2338 -0.2010
  968loPI    C215474  13.397   6.943   5.228  0.1303 -0.1056  0.0688
  968loPI    C315475  13.210   6.624   5.075  0.0181 -0.0162  0.0181
  968loPI   PO415476  13.464   6.631   5.628  0.0036  0.1324  0.0304
  968loPI   GL115477  13.430   6.770   6.033  0.2106  0.0752 -0.0982
  968loPI   GL215478  13.615   6.655   6.282  0.1362  0.0716  0.2167
  968loPI   C1A15479  13.351   7.053   6.412  0.3464  0.1131 -0.0485
  968loPI   C2A15480  13.304   7.176   6.883 -0.2609 -0.0644  0.2651
  968loPI   C3A15481  13.262   7.169   7.297 -0.3295 -0.2685  0.2556
  968loPI   C4A15482  13.325   7.216   7.770  0.0713 -0.0288  0.3491
  968loPI   C5A15483  13.385   7.204   8.161 -0.0328  0.0132  0.0504
  968loPI   C6A15484  13.066   7.259   8.499  0.1672 -0.0370  0.1579
  968loPI   C1B15485  13.664   6.713   6.785 -0.1081  0.2459 -0.1115
  968loPI   C2B15486  13.632   6.740   7.232  0.1089  0.0532  0.1620
  968loPI   C3B15487  13.689   6.770   7.687  0.2696 -0.3152 -0.0199
  968loPI   C4B15488  13.713   6.907   8.124  0.2246  0.2756  0.1334
  969loPI    C115489  17.366   7.592   5.645  0.2659 -0.0924  0.1379
  969loPI    C215490  17.607   7.496   5.340 -0.0706 -0.0130 -0.1592
  969loPI    C315491  17.210   7.484   5.293 -0.1276  0.0269  0.2709
  969loPI   PO415492  17.638   7.738   5.765  0.0128  0.0646  0.0114
  969loPI   GL115493  17.704   7.862   6.107  0.2486  0.3112 -0.0864
  969loPI   GL215494  17.657   8.177   6.202 -0.1376 -0.2475 -0.1979
  969loPI   C1A15495  17.899   7.708   6.477  0.2952 -0.0230 -0.1672
  969loPI   C2A15496  17.955   7.780   6.913  0.1486 -0.4301  0.2340
  969loPI   C3A15497  17.906   7.633   7.364  0.0414 -0.1075  0.0441
  969loPI   C4A15498  17.814   7.712   7.790 -0.4828  0.2537  0.1913
  969loPI   C5A15499  17.437   7.544   8.092 -0.1597  0.3459 -0.1804
  969loPI   C6A15500  17.432   7.720   8.524 -0.0103 -0.0961  0.0284
  969loPI   C1B15501  17.637   8.087   6.646 -0.0225  0.2000  0.1433
  969loPI   C2B15502  17.624   8.117   7.076  0.0005 -0.3042 -0.3982
  969loPI   C3B15503  17.585   8.095   7.530 -0.1060  0.0698 -0.2930
  969loPI   C4B15504  17.530   8.045   8.000 -0.2186 -0.0235  0.2741
  970loPI    C115505  15.043   0.507   5.478 -0.0791  0.1434  0.3736
  970loPI    C215506  14.716   0.316   5.606 -0.0796  0.0706  0.2652
  970loPI    C315507  14.728   0.466   5.235  0.0469 -0.0152  0.2339
  970loPI   PO415508  15.092   0.654   5.767  0.1431  0.2851 -0.0259
  970loPI   GL115509  14.962   0.658   6.199  0.0235  0.0060  0.0905
  970loPI   GL215510  14.820   0.735   6.364 -0.2756  0.3279 -0.0756
  970loPI   C1A15511  15.102   0.322   6.556 -0.0207 -0.1144  0.2438
  970loPI   C2A15512  15.121   0.360   6.969  0.0462  0.2102  0.1438
  970loPI   C3A15513  15.098   0.313   7.434  0.0573  0.2352 -0.2349
  970loPI   C4A15514  14.987   0.339   7.890  0.0871 -0.0261 -0.2091
  970loPI   C5A15515  15.200   0.396   8.307 -0.2294 -0.2003  0.2242
  970loPI   C6A15516  15.005   0.411   8.731  0.1590  0.1509  0.2093
  970loPI   C1B15517  14.841   0.781   6.776  0.2172 -0.0470 -0.2424
  970loPI   C2B15518  14.786   0.726   7.225  0.2022  0.0137  0.0136
  970loPI   C3B15519  14.748   0.764   7.611 -0.2026  0.2063 -0.0304
  970loPI   C4B15520  14.738   0.766   8.022 -0.1790 -0.0091 -0.0061
  971loPI    C115521  12.261   9.913   5.421 -0.0173  0.0869 -0.0188
  971loPI    C215522  12.349  10.133   5.099 -0.1143  0.1511 -0.0016
  971loPI    C315523  12.186   9.771   5.055 -0.0241  0.1133 -0.0276
  971loPI   PO415524  12.367  10.054   5.602 -0.0092  0.0958  0.1621
  971loPI   GL115525  12.321   9.913   6.015  0.1317  0.0509 -0.1642
  971loPI   GL215526  12.070  10.011   6.117  0.1029 -0.1742 -0.0695
  971loPI   C1A15527  12.560   9.747   6.431 -0.2565 -0.1773 -0.0626
  971loPI   C2A15528  12.463   9.698   6.831 -0.1404  0.0054  0.1223
  971loPI   C3A15529  12.432   9.651   7.229 -0.1379  0.0772  0.0493
  971loPI   C4A15530  12.409   9.754   7.660 -0.0317 -0.0454 -0.2443
  971loPI   C5A15531  12.365   9.768   8.172 -0.2453  0.2352 -0.2072
  971loPI   C6A15532  12.358   9.923   8.567  0.0038  0.0457 -0.0711
  971loPI   C1B15533  12.036   9.728   6.401  0.0550 -0.0919  0.4153
  971loPI   C2B15534  11.988   9.642   6.730  0.1235 -0.1643 -0.1764
  971loPI   C3B15535  11.950   9.632   7.174 -0.1334 -0.3724 -0.0287
  971loPI   C4B15536  11.955   9.581   7.602  0.0721 -0.3455 -0.2306
  972loPI    C115537  13.110   5.893   5.638  0.1810  0.0868  0.1372
  972loPI    C215538  13.419   6.147   5.628  0.0271  0.2686 -0.1263
  972loPI    C315539  13.127   6.177   5.357 -0.1277 -0.0232  0.0035
  972loPI   PO415540  13.007   5.906   5.921 -0.0544  0.1337 -0.3554
  972loPI   GL115541  13.353   6.151   6.259 -0.0428 -0.0057  0.0213
  972loPI   GL215542  13.030   6.072   6.396 -0.0806 -0.1767  0.1219
  972loPI   C1A15543  13.492   6.311   6.618 -0.1841 -0.1936 -0.5115
  972loPI   C2A15544  13.497   6.274   7.021  0.0491 -0.2751  0.0905
  972loPI   C3A15545  13.480   6.250   7.451  0.0106 -0.2437 -0.1744
  972loPI   C4A15546  13.474   6.402   7.820  0.1154 -0.0568  0.0956
  972loPI   C5A15547  13.640   6.438   8.202  0.0452 -0.0063  0.1216
  972loPI   C6A15548  13.916   6.336   8.354 -0.0966  0.0469  0.0094
  972loPI   C1B15549  13.044   6.142   6.823  0.0233 -0.1138 -0.0913
  972loPI   C2B15550  13.003   6.111   7.283  0.1641 -0.0182 -0.0753
  972loPI   C3B15551  12.983   6.216   7.700  0.0011 -0.0577  0.2363
  972loPI   C4B15552  12.949   6.284   8.130  0.0128 -0.0630  0.2550
  973loPI    C115553   8.728   9.127   5.162  0.0438  0.1320  0.1918
  973loPI    C215554   8.804   9.480   4.988 -0.0471  0.0159 -0.0898
  973loPI    C315555   8.879   9.140   4.791 -0.1065 -0.1208  0.1195
  973loPI   PO415556   8.813   9.155   5.371 -0.0217 -0.2861  0.1409
  973loPI   GL115557   8.786   9.065   5.778  0.0252 -0.0812 -0.0476
  973loPI   GL215558   8.964   8.787   5.952 -0.0573 -0.3233 -0.1132
  973loPI   C1A15559   8.585   9.068   6.129 -0.0350 -0.1889 -0.0255
  973loPI   C2A15560   8.587   9.085   6.564  0.0802 -0.2722  0.0520
  973loPI   C3A15561   8.491   9.144   7.066  0.2030 -0.0127 -0.1193
  973loPI   C4A15562   8.490   9.256   7.438  0.0404  0.1228  0.2038
  973loPI   C5A15563   8.171   9.541   7.777 -0.2065  0.0433 -0.1940
  973loPI   C6A15564   7.754   9.534   7.786  0.0311  0.0569 -0.0568
  973loPI   C1B15565   8.743   8.607   6.336  0.0094 -0.1329  0.1458
  973loPI   C2B15566   8.913   8.708   6.737 -0.3767  0.2211  0.2489
  973loPI   C3B15567   8.849   8.780   7.194  0.1494  0.0939  0.1077
  973loPI   C4B15568   8.709   8.758   7.669 -0.1450 -0.2089  0.1584
  974loPI    C115569  14.740  12.110   5.863 -0.2198  0.1728 -0.1499
  974loPI    C215570  14.496  12.107   5.546 -0.1172  0.0732 -0.2288
  974loPI    C315571  14.892  12.120   5.493 -0.0936 -0.1125 -0.1087
  974loPI   PO415572  14.563  12.261   6.024 -0.2400 -0.2673  0.0730
  974loPI   GL115573  14.440  12.168   6.457 -0.1640 -0.0023  0.2095
  974loPI   GL215574  14.137  12.234   6.495 -0.1213  0.2445  0.0308
  974loPI   C1A15575  14.385  12.228   6.920  0.2892  0.2857  0.0772
  974loPI   C2A15576  14.455  12.215   7.291  0.1856  0.0991  0.4538
  974loPI   C3A15577  14.415  11.928   7.697  0.2299  0.0338  0.3060
  974loPI   C4A15578  14.149  11.723   7.910 -0.0023  0.1515  0.0125
  974loPI   C5A15579  13.724  11.602   7.908  0.1692  0.0784  0.0669
  974loPI   C6A15580  13.310  11.583   7.649  0.2236  0.3365  0.0254
  974loPI   C1B15581  13.988  11.983   6.902  0.0815 -0.0019  0.1159
  974loPI   C2B15582  13.917  12.123   7.269 -0.2843 -0.1423  0.2392
  974loPI   C3B15583  13.850  12.052   7.653  0.0512  0.1756 -0.2220
  974loPI   C4B15584  13.799  12.063   8.119  0.3198 -0.1722  0.1754
  975loPI    C115585   4.626   1.958   5.463 -0.1016 -0.1539  0.0956
  975loPI    C215586   4.541   2.259   5.214 -0.0530 -0.0695  0.1804
  975loPI    C315587   4.428   1.886   5.123 -0.1981 -0.0119  0.1209
  975loPI   PO415588   4.730   2.172   5.668 -0.1988  0.1261 -0.1875
  975loPI   GL115589   4.981   2.265   5.868  0.0147  0.0762 -0.3833
  975loPI   GL215590   5.135   2.077   6.064  0.0366  0.0804  0.0853
  975loPI   C1A15591   4.787   2.395   6.330 -0.0037  0.1595  0.0715
  975loPI   C2A15592   4.754   2.338   6.825  0.1972  0.1018  0.0861
  975loPI   C3A15593   4.731   2.297   7.316 -0.0084  0.2387  0.2399
  975loPI   C4A15594   4.895   2.315   7.737 -0.0519  0.0689 -0.0409
  975loPI   C5A15595   4.923   2.287   8.133  0.0594  0.0975  0.0297
  975loPI   C6A15596   4.815   1.954   8.498 -0.1110 -0.2150 -0.0375
  975loPI   C1B15597   5.056   1.886   6.444 -0.2345 -0.1230  0.2521
  975loPI   C2B15598   5.050   2.008   6.899  0.0559  0.0246  0.1087
  975loPI   C3B15599   5.065   1.884   7.341  0.2769 -0.1048  0.1868
  975loPI   C4B15600   5.164   1.874   7.770 -0.0787 -0.2417 -0.0193
  976loPI    C115601  14.476   5.314   5.509 -0.1657  0.0544  0.0190
  976loPI    C215602  14.777   5.467   5.724 -0.0551 -0.0686 -0.0471
  976loPI    C315603  14.751   5.545   5.332 -0.0656 -0.1211 -0.0569
  976loPI   PO415604  14.352   5.201   5.767 -0.0476 -0.0528  0.0002
  976loPI   GL115605  14.504   5.129   6.068 -0.0444 -0.0754  0.1555
  976loPI   GL215606  14.606   5.478   6.176  0.0812 -0.0008 -0.0497
  976loPI   C1A15607  14.477   5.110   6.526 -0.2323  0.0925 -0.0258
  976loPI   C2A15608  14.406   4.974   6.942 -0.0513  0.1087  0.1398
  976loPI   C3A15609  14.357   5.044   7.385  0.0470 -0.2097 -0.2027
  976loPI   C4A15610  14.333   5.098   7.780  0.0493  0.0272 -0.0536
  976loPI   C5A15611  14.500   5.066   8.109 -0.0327 -0.0561 -0.0287
  976loPI   C6A15612  14.803   5.068   8.331  0.1805  0.1355  0.1123
  976loPI   C1B15613  14.611   5.568   6.656 -0.0781  0.1725 -0.1962
  976loPI   C2B15614  14.621   5.525   7.108  0.2543  0.0311 -0.0937
  976loPI   C3B15615  14.615   5.540   7.594  0.1282  0.2068 -0.1470
  976loPI   C4B15616  14.600   5.616   7.995 -0.4318 -0.0042 -0.2440
  977loPI    C115617  13.815  -0.098   5.797 -0.1335  0.1393 -0.0733
  977loPI    C215618  13.731   0.213   5.561 -0.2157  0.1224 -0.0666
  977loPI    C315619  13.478   0.109   5.852 -0.1277  0.1263  0.0119
  977loPI   PO415620  13.962  -0.080   5.973 -0.1266 -0.0820  0.1592
  977loPI   GL115621  14.236   0.011   6.246 -0.2246  0.0438  0.1117
  977loPI   GL215622  14.025   0.223   6.437  0.3015 -0.0820 -0.3023
  977loPI   C1A15623  14.371  -0.201   6.557 -0.1852  0.0651 -0.4199
  977loPI   C2A15624  14.402  -0.314   6.978  0.0679 -0.1707 -0.0373
  977loPI   C3A15625  14.435  -0.177   7.498 -0.3936  0.0235  0.0532
  977loPI   C4A15626  14.381  -0.208   7.914 -0.2277 -0.2665  0.0753
  977loPI   C5A15627  14.386  -0.174   8.395 -0.0343 -0.0271 -0.1559
  977loPI   C6A15628  14.494  -0.026   8.888 -0.0993 -0.2392  0.0038
  977loPI   C1B15629  14.097   0.297   6.888 -0.1504  0.1468 -0.0611
  977loPI   C2B15630  14.068   0.249   7.360  0.0588 -0.3125 -0.0488
  977loPI   C3B15631  13.989   0.201   7.836 -0.1663 -0.0271  0.1082
  977loPI   C4B15632  14.134   0.209   8.186  0.0383  0.2335  0.1215
  978loPI    C115633   0.125  10.817   5.724  0.0292 -0.1372 -0.0501
  978loPI    C215634   0.487  10.978   5.775 -0.0700  0.0179  0.1844
  978loPI    C315635   0.403  10.775   5.441  0.0928  0.3595 -0.0697
  978loPI   PO415636   0.074  10.829   5.960 -0.0038 -0.2864 -0.2315
  978loPI   GL115637  -0.188  10.758   6.231  0.2916 -0.2430 -0.0813
  978loPI   GL215638   0.075  10.813   6.444  0.0534  0.0619  0.1623
  978loPI   C1A15639  -0.134  10.333   6.565  0.2180 -0.1437 -0.1496
  978loPI   C2A15640  -0.137  10.251   6.952 -0.0927  0.0157  0.0817
  978loPI   C3A15641  -0.194  10.332   7.454  0.4436 -0.2254  0.0156
  978loPI   C4A15642  -0.276  10.302   7.836 -0.2920 -0.3462 -0.0073
  978loPI   C5A15643  -0.281  10.326   8.216 -0.3156  0.1307  0.0108
  978loPI   C6A15644  -0.213  10.537   8.592 -0.0364  0.1177  0.2338
  978loPI   C1B15645   0.042  10.735   6.794 -0.2476  0.3052  0.1272
  978loPI   C2B15646  -0.024  10.759   7.263 -0.2987  0.3509 -0.0387
  978loPI   C3B15647   0.037  10.788   7.610 -0.1946  0.0451  0.0316
  978loPI   C4B15648  -0.040  10.751   8.025  0.1543 -0.0940  0.1006
  979loPI    C115649  15.887  16.250   5.554  0.3689 -0.3233 -0.4669
  979loPI    C215650  15.731  16.483   5.270  0.0746 -0.1193 -0.1462
  979loPI    C315651  15.579  16.119   5.336 -0.1954  0.0307  0.0826
  979loPI   PO415652  15.875  16.380   5.741  0.1907  0.0143  0.0478
  979loPI   GL115653  15.878  16.613   6.124  0.3045 -0.0159  0.0835
  979loPI   GL215654  16.142  16.544   6.223 -0.0109 -0.0404 -0.1115
  979loPI   C1A15655  15.785  16.481   6.512 -0.0555 -0.0947  0.3334
  979loPI   C2A15656  15.933  16.300   6.948  0.3112  0.2029  0.1929
  979loPI   C3A15657  15.772  16.277   7.385 -0.2171  0.1224 -0.2571
  979loPI   C4A15658  15.774  16.379   7.832 -0.1930 -0.0809  0.0142
  979loPI   C5A15659  15.773  16.468   8.266 -0.0007  0.0222 -0.3575
  979loPI   C6A15660  15.950  16.581   8.700  0.1491 -0.3286 -0.0376
  979loPI   C1B15661  16.276  16.535   6.618  0.0489  0.2104  0.0238
  979loPI   C2B15662  16.436  16.431   7.127  0.1163  0.0484  0.1344
  979loPI   C3B15663  16.230  16.402   7.600  0.1567  0.0995 -0.3210
  979loPI   C4B15664  16.308  16.452   8.085 -0.0122 -0.1935 -0.2004
  980loPI    C115665  10.813  12.958   5.275  0.2361 -0.0605  0.1024
  980loPI    C215666  10.909  12.648   5.041 -0.0644 -0.0433 -0.0471
  980loPI    C315667  11.016  13.019   4.936 -0.0533 -0.0537 -0.0725
  980loPI   PO415668  10.645  12.872   5.456 -0.0558  0.1485  0.2030
  980loPI   GL115669  10.667  12.872   5.963  0.0473 -0.1510  0.3885
  980loPI   GL215670  10.524  12.593   6.175 -0.0141 -0.0370  0.2667
  980loPI   C1A15671  10.611  12.991   6.409 -0.0376 -0.3799  0.0007
  980loPI   C2A15672  10.690  13.086   6.776  0.2030 -0.0942 -0.1465
  980loPI   C3A15673  10.490  13.020   7.236  0.0959 -0.1096  0.1101
  980loPI   C4A15674  10.506  13.146   7.630  0.1677  0.0400 -0.4433
  980loPI   C5A15675  10.518  13.004   8.090 -0.1942 -0.2668  0.1848
  980loPI   C6A15676  10.660  12.691   8.372  0.1350  0.0497  0.1195
  980loPI   C1B15677  10.337  12.543   6.526  0.1319 -0.2216  0.0523
  980loPI   C2B15678  10.317  12.635   6.904 -0.1475 -0.1564 -0.2717
  980loPI   C3B15679  10.261  12.555   7.365 -0.4573 -0.2447  0.0779
  980loPI   C4B15680  10.278  12.639   7.709 -0.1169 -0.0590 -0.1063
  981loPI    C115681  14.023  13.170   5.704 -0.0185 -0.1252 -0.1530
  981loPI    C215682  14.310  12.988   5.493  0.2123  0.2414 -0.1625
  981loPI    C315683  13.966  13.091   5.316  0.0532 -0.2315 -0.1422
  981loPI   PO415684  14.027  13.079   5.936  0.1461 -0.0320  0.0536
  981loPI   GL115685  13.959  13.216   6.265  0.1867 -0.1132  0.0039
  981loPI   GL215686  13.942  12.973   6.416 -0.1970  0.1720  0.1536
  981loPI   C1A15687  14.047  13.499   6.624  0.1655  0.0665 -0.1448
  981loPI   C2A15688  14.112  13.560   7.033 -0.0547 -0.0393 -0.0434
  981loPI   C3A15689  14.045  13.457   7.495 -0.0056  0.1746 -0.4142
  981loPI   C4A15690  14.069  13.404   7.937 -0.0134  0.2937  0.0781
  981loPI   C5A15691  13.974  13.471   8.379 -0.0105 -0.2695 -0.1182
  981loPI   C6A15692  13.986  13.500   8.756 -0.1102  0.1926  0.3018
  981loPI   C1B15693  13.825  13.055   6.901 -0.2365 -0.0438  0.2942
  981loPI   C2B15694  13.831  13.014   7.318  0.1275 -0.1197 -0.2598
  981loPI   C3B15695  13.900  12.968   7.794 -0.0957  0.3992 -0.0770
  981loPI   C4B15696  13.904  12.947   8.191  0.1314  0.1755 -0.1090
  982loPI    C115697  12.596   2.169   6.097 -0.1066  0.0135 -0.1113
  982loPI    C215698  12.239   2.071   5.946 -0.1372 -0.0689  0.0122
  982loPI    C315699  12.494   1.784   6.057 -0.0037 -0.0111 -0.1401
  982loPI   PO415700  12.566   2.398   6.337  0.1830 -0.2677  0.0672
  982loPI   GL115701  12.757   2.504   6.719  0.2849  0.0619 -0.0522
  982loPI   GL215702  12.562   2.260   6.829  0.0388 -0.1282 -0.2042
  982loPI   C1A15703  13.087   2.409   7.015 -0.2384 -0.0798  0.1733
  982loPI   C2A15704  12.981   2.367   7.487 -0.0355 -0.2393  0.1517
  982loPI   C3A15705  13.045   2.564   7.887 -0.0558  0.0183 -0.2462
  982loPI   C4A15706  13.287   2.825   8.175 -0.1958  0.2151  0.2527
  982loPI   C5A15707  13.457   3.245   8.219  0.0509  0.2650 -0.0208
  982loPI   C6A15708  13.520   3.624   7.973 -0.0153  0.2287 -0.0795
  982loPI   C1B15709  12.543   2.472   7.229  0.0588  0.0618  0.0435
  982loPI   C2B15710  12.442   2.432   7.639  0.1674 -0.0748  0.0090
  982loPI   C3B15711  12.328   2.636   8.007  0.0354 -0.0271  0.1111
  982loPI   C4B15712  12.142   2.981   8.045  0.0387  0.0431 -0.0117
  983loPI    C115713   7.999   2.272   5.440 -0.0348  0.1339  0.1027
  983loPI    C215714   7.908   2.518   5.138  0.1397 -0.0100 -0.0701
  983loPI    C315715   8.285   2.395   5.189  0.0571 -0.2308  0.0219
  983loPI   PO415716   7.914   2.354   5.617 -0.1160 -0.1847 -0.0623
  983loPI   GL115717   7.776   2.288   6.044  0.0133 -0.1879  0.0843
  983loPI   GL215718   8.183   2.352   6.114 -0.0470 -0.0497  0.1775
  983loPI   C1A15719   7.598   2.247   6.469  0.1801  0.0033  0.3228
  983loPI   C2A15720   7.589   2.310   6.954  0.0912 -0.0567  0.2098
  983loPI   C3A15721   7.615   2.282   7.360 -0.2609 -0.2026 -0.2565
  983loPI   C4A15722   7.542   2.285   7.789  0.2983  0.2444 -0.2577
  983loPI   C5A15723   7.523   2.247   8.254 -0.0028 -0.0783 -0.1918
  983loPI   C6A15724   7.685   2.139   8.569  0.1321  0.1305  0.2173
  983loPI   C1B15725   8.102   2.271   6.532 -0.1367  0.1504 -0.3805
  983loPI   C2B15726   8.158   2.251   6.958  0.0319 -0.1707  0.0248
  983loPI   C3B15727   8.129   2.332   7.370  0.1517 -0.0689  0.1590
  983loPI   C4B15728   8.016   2.309   7.825  0.1381 -0.3263  0.0080
  984loPI    C115729   2.708  10.773   5.266 -0.0494  0.2441 -0.0328
  984loPI    C215730   2.988  10.491   5.311 -0.2098  0.0881 -0.0024
  984loPI    C315731   3.013  10.752   5.009 -0.1340 -0.0458 -0.1128
  984loPI   PO415732   2.725  10.892   5.584  0.0933  0.1541 -0.2977
  984loPI   GL115733   2.929  11.004   5.924 -0.0880  0.2184 -0.0942
  984loPI   GL215734   3.215  11.139   6.072 -0.0422  0.4110 -0.0530
  984loPI   C1A15735   2.655  11.096   6.329  0.0512  0.1150 -0.0126
  984loPI   C2A15736   2.639  11.197   6.699  0.1108 -0.1948  0.1703
  984loPI   C3A15737   2.551  11.103   7.078  0.2639 -0.0445 -0.1843
  984loPI   C4A15738   2.537  11.139   7.533  0.1352 -0.2775 -0.3394
  984loPI   C5A15739   2.557  10.850   7.960 -0.0502  0.2957 -0.2330
  984loPI   C6A15740   2.395  10.493   8.218 -0.2635 -0.0635  0.1045
  984loPI   C1B15741   3.118  11.233   6.547 -0.1525 -0.2210  0.0812
  984loPI   C2B15742   3.097  11.267   6.911  0.0795  0.0477 -0.2752
  984loPI   C3B15743   3.022  11.111   7.363 -0.1698 -0.0770 -0.0828
  984loPI   C4B15744   3.052  11.070   7.810  0.0366  0.0025 -0.0250
  985loPI    C115745   9.513  14.217   5.315 -0.2973 -0.0533 -0.0581
  985loPI    C215746   9.364  13.887   5.144 -0.2684 -0.1210  0.0464
  985loPI    C315747   9.661  14.087   4.966  0.1167 -0.4826  0.2635
  985loPI   PO415748   9.407  14.073   5.641  0.0356 -0.0094  0.0714
  985loPI   GL115749   9.376  13.671   5.970 -0.1849  0.2650 -0.1513
  985loPI   GL215750   9.013  13.786   6.050 -0.1105  0.1486 -0.0120
  985loPI   C1A15751   9.523  13.819   6.453  0.0990  0.1312 -0.0402
  985loPI   C2A15752   9.475  13.840   6.880 -0.1890  0.0881  0.3863
  985loPI   C3A15753   9.444  13.896   7.380 -0.1382 -0.0410  0.0077
  985loPI   C4A15754   9.376  13.905   7.723 -0.0821  0.0451 -0.2407
  985loPI   C5A15755   9.087  13.923   8.034  0.4039  0.1110  0.1877
  985loPI   C6A15756   8.885  14.118   8.411 -0.0514  0.0340  0.3829
  985loPI   C1B15757   8.938  13.779   6.429  0.1864 -0.0291 -0.2278
  985loPI   C2B15758   8.953  13.733   6.890 -0.0963 -0.0586  0.1320
  985loPI   C3B15759   8.906  13.846   7.290  0.2236 -0.1174  0.0001
  985loPI   C4B15760   8.840  13.747   7.632  0.1070  0.0704  0.0203
  986loPI    C115761   6.065  14.400   5.462  0.1713  0.2279  0.1930
  986loPI    C215762   6.214  14.045   5.355  0.0791  0.2254  0.0703
  986loPI    C315763   5.867  14.171   5.200 -0.0593  0.2211  0.3696
  986loPI   PO415764   6.110  14.433   5.729  0.0371  0.2809  0.1329
  986loPI   GL115765   6.314  14.386   6.291 -0.0051 -0.2093 -0.1476
  986loPI   GL215766   6.019  14.387   6.165 -0.0636  0.0235  0.1258
  986loPI   C1A15767   6.307  14.319   6.734 -0.2163  0.0346 -0.0201
  986loPI   C2A15768   6.270  14.296   7.273  0.2411  0.0094  0.1811
  986loPI   C3A15769   6.190  14.290   7.650  0.1792  0.1263  0.2956
  986loPI   C4A15770   6.244  14.176   8.014  0.1570 -0.0356 -0.0428
  986loPI   C5A15771   6.341  14.153   8.444 -0.0240  0.0755 -0.0633
  986loPI   C6A15772   6.320  13.895   8.890  0.0514  0.0339 -0.2157
  986loPI   C1B15773   5.831  14.277   6.506 -0.1083 -0.0034  0.2505
  986loPI   C2B15774   5.874  14.216   6.956  0.0135 -0.1396 -0.1271
  986loPI   C3B15775   5.778  14.211   7.388  0.3144 -0.0008  0.1252
  986loPI   C4B15776   5.703  14.180   7.868  0.0583  0.1019  0.0039
  987loPI    C115777   6.250   3.935   5.418  0.0477  0.2277 -0.0854
  987loPI    C215778   6.061   3.841   5.078  0.0684 -0.1829  0.0111
  987loPI    C315779   6.437   3.978   5.067 -0.0698  0.1991 -0.1521
  987loPI   PO415780   6.283   3.739   5.587 -0.0754 -0.4011 -0.2041
  987loPI   GL115781   6.274   3.547   5.929  0.2823  0.0050  0.1965
  987loPI   GL215782   6.140   3.328   6.114  0.0018  0.1344  0.1908
  987loPI   C1A15783   6.330   3.807   6.278 -0.2003  0.0016 -0.1662
  987loPI   C2A15784   6.376   3.813   6.751  0.0091 -0.0176 -0.1621
  987loPI   C3A15785   6.291   3.927   7.234 -0.3826  0.3430 -0.0267
  987loPI   C4A15786   6.280   3.894   7.682 -0.2673 -0.1961 -0.2444
  987loPI   C5A15787   6.487   4.006   8.017 -0.1735  0.0983  0.2874
  987loPI   C6A15788   6.611   3.858   8.352  0.1227  0.2819  0.2838
  987loPI   C1B15789   6.178   3.392   6.542 -0.0376  0.1306  0.0408
  987loPI   C2B15790   6.113   3.430   6.940 -0.1266  0.0607 -0.0692
  987loPI   C3B15791   6.155   3.456   7.331 -0.0679 -0.0126 -0.0009
  987loPI   C4B15792   6.237   3.402   7.822  0.0982 -0.2475 -0.1723
  988loPI    C115793   8.130   3.673   5.335 -0.2740 -0.1097 -0.0034
  988loPI    C215794   7.856   3.955   5.265 -0.1917 -0.0409 -0.0495
  988loPI    C315795   8.215   3.977   5.090 -0.0538  0.0262  0.2356
  988loPI   PO415796   8.163   3.699   5.594  0.0273 -0.0106 -0.2174
  988loPI   GL115797   8.132   3.724   6.012 -0.3315 -0.1452  0.0585
  988loPI   GL215798   7.803   3.623   6.039  0.0601  0.2443 -0.0923
  988loPI   C1A15799   8.234   3.571   6.406 -0.1730 -0.0024  0.1861
  988loPI   C2A15800   8.177   3.739   6.846  0.0583 -0.2907 -0.0807
  988loPI   C3A15801   8.154   3.757   7.266  0.1024  0.0565 -0.0475
  988loPI   C4A15802   8.157   3.678   7.635 -0.2078  0.3782 -0.0204
  988loPI   C5A15803   8.277   3.618   8.067  0.1054 -0.4240 -0.0213
  988loPI   C6A15804   8.305   3.547   8.518  0.3624  0.1125  0.1232
  988loPI   C1B15805   7.713   3.623   6.484  0.3533  0.0956 -0.0457
  988loPI   C2B15806   7.627   3.660   6.919  0.3885 -0.0546 -0.0657
  988loPI   C3B15807   7.639   3.641   7.367  0.0903 -0.2070  0.1419
  988loPI   C4B15808   7.663   3.630   7.864 -0.1670 -0.0708 -0.0673
  989loPI    C115809  12.264   7.507   5.679  0.2542  0.1643  0.0624
  989loPI    C215810  12.245   7.350   5.312 -0.1025 -0.3723  0.2975
  989loPI    C315811  12.168   7.738   5.367  0.3338 -0.1965 -0.2372
  989loPI   PO415812  12.209   7.333   5.844  0.1974 -0.0316 -0.3385
  989loPI   GL115813  12.086   7.427   6.176  0.0956 -0.2394  0.3102
  989loPI   GL215814  12.148   7.761   6.118 -0.0103  0.1073  0.0026
  989loPI   C1A15815  12.127   7.339   6.571  0.0275  0.4157 -0.0769
  989loPI   C2A15816  12.102   7.323   7.014 -0.1852 -0.1145  0.4016
  989loPI   C3A15817  12.009   7.273   7.414 -0.1819 -0.1246 -0.1955
  989loPI   C4A15818  12.045   7.413   7.822 -0.1146 -0.1767  0.0008
  989loPI   C5A15819  11.963   7.509   8.217  0.0444 -0.2086  0.3636
  989loPI   C6A15820  11.942   7.963   8.403  0.0933  0.0858 -0.1595
  989loPI   C1B15821  12.317   7.818   6.566 -0.1912 -0.1940  0.2804
  989loPI   C2B15822  12.246   7.816   7.048 -0.1295 -0.2277 -0.0019
  989loPI   C3B15823  12.230   7.905   7.436 -0.1004  0.0713 -0.0492
  989loPI   C4B15824  12.181   7.904   7.900 -0.2123  0.1433 -0.1790
  990loPI    C115825   6.556  14.624   5.545 -0.2664 -0.1530  0.0866
  990loPI    C215826   6.627  15.005   5.445 -0.1456 -0.2297 -0.1266
  990loPI    C315827   6.311  14.813   5.292 -0.1794 -0.2301 -0.0566
  990loPI   PO415828   6.580  14.679   5.864  0.1770  0.1123  0.4484
  990loPI   GL115829   6.408  14.930   6.160 -0.0182  0.1729 -0.1611
  990loPI   GL215830   6.645  14.985   6.341  0.3917  0.2793 -0.1295
  990loPI   C1A15831   6.093  14.777   6.511 -0.0281  0.1247  0.0025
  990loPI   C2A15832   6.047  14.747   6.913 -0.0740  0.0677 -0.0011
  990loPI   C3A15833   6.013  14.706   7.327 -0.1798  0.3036 -0.0955
  990loPI   C4A15834   5.982  14.681   7.746 -0.1233  0.1003 -0.4923
  990loPI   C5A15835   5.959  14.601   8.196  0.5970 -0.0373  0.1843
  990loPI   C6A15836   6.110  14.612   8.638  0.0401  0.0531  0.1705
  990loPI   C1B15837   6.521  14.846   6.733 -0.0381 -0.2774 -0.1062
  990loPI   C2B15838   6.529  14.773   7.242  0.1376 -0.0164  0.1026
  990loPI   C3B15839   6.501  14.805   7.649 -0.0553 -0.1798 -0.0358
  990loPI   C4B15840   6.407  14.702   8.016 -0.0398  0.1651 -0.0173
  991loPI    C115841   0.378   8.439   5.495  0.0641 -0.5495  0.1548
  991loPI    C215842   0.702   8.512   5.273 -0.1198 -0.1614  0.0046
  991loPI    C315843   0.375   8.354   5.105 -0.2111  0.0021  0.0268
  991loPI   PO415844   0.562   8.346   5.737  0.0762 -0.0400 -0.1208
  991loPI   GL115845   0.770   8.277   6.097  0.4091  0.1444 -0.1846
  991loPI   GL215846   0.426   8.234   6.259 -0.2022 -0.1918  0.2680
  991loPI   C1A15847   0.970   8.167   6.492 -0.1541 -0.2946  0.1169
  991loPI   C2A15848   0.987   8.191   6.884  0.0455  0.0522 -0.2368
  991loPI   C3A15849   0.871   8.179   7.301 -0.1427 -0.1000  0.2574
  991loPI   C4A15850   0.896   8.159   7.753  0.2531  0.1623 -0.2802
  991loPI   C5A15851   0.769   8.192   8.168 -0.1482  0.0388  0.0647
  991loPI   C6A15852   0.927   8.429   8.409 -0.0387  0.2615  0.0504
  991loPI   C1B15853   0.443   8.237   6.658  0.2304 -0.1131  0.0032
  991loPI   C2B15854   0.449   8.208   7.069  0.1895 -0.1219 -0.1026
  991loPI   C3B15855   0.358   8.124   7.488 -0.0846 -0.1252  0.2756
  991loPI   C4B15856   0.382   8.171   7.900  0.2036  0.0576 -0.1681
  992loPI    C115857  13.591  12.193   6.045  0.2327  0.1563 -0.0573
  992loPI    C215858  13.494  12.371   5.700  0.1207  0.0185 -0.0978
  992loPI    C315859  13.595  11.984   5.703 -0.0282 -0.0204  0.0445
  992loPI   PO415860  13.747  12.327   6.156  0.0193  0.1330  0.3553
  992loPI   GL115861  13.634  12.539   6.531 -0.2184 -0.0804  0.0134
  992loPI   GL215862  13.323  12.502   6.334  0.0726  0.0034 -0.1186
  992loPI   C1A15863  13.717  12.540   7.047  0.1884 -0.0190 -0.0663
  992loPI   C2A15864  13.667  12.566   7.490 -0.0444 -0.0252 -0.2106
  992loPI   C3A15865  13.591  12.427   7.865  0.0745  0.1012  0.0888
  992loPI   C4A15866  13.592  12.535   8.264  0.3917 -0.2302 -0.0769
  992loPI   C5A15867  13.534  12.621   8.752 -0.0442  0.1356  0.1761
  992loPI   C6A15868  13.748  12.516   9.087  0.1179 -0.1253  0.0353
  992loPI   C1B15869  13.232  12.435   6.750  0.2686 -0.0698 -0.1085
  992loPI   C2B15870  13.188  12.471   7.249  0.1466  0.0920  0.0381
  992loPI   C3B15871  13.098  12.478   7.728  0.2213 -0.0702 -0.2415
  992loPI   C4B15872  13.092  12.429   8.132  0.0764 -0.4289 -0.2144
  993loPI    C115873  14.186   8.219   5.509  0.1141  0.1739 -0.1612
  993loPI    C215874  14.228   7.960   5.207 -0.0489  0.1147 -0.1340
  993loPI    C315875  14.148   8.345   5.131 -0.0969  0.0985 -0.1664
  993loPI   PO415876  14.027   8.140   5.671  0.0177  0.0901 -0.0136
  993loPI   GL115877  13.939   8.069   6.080  0.0437 -0.1121 -0.3057
  993loPI   GL215878  14.207   8.042   6.163 -0.0702  0.2302  0.0205
  993loPI   C1A15879  13.752   8.010   6.474  0.2013 -0.1426 -0.0660
  993loPI   C2A15880  13.783   8.187   6.876 -0.2888 -0.0097  0.1630
  993loPI   C3A15881  13.724   8.076   7.327  0.0620 -0.1291 -0.0101
  993loPI   C4A15882  13.763   8.082   7.747 -0.0751  0.1270  0.1470
  993loPI   C5A15883  13.630   8.138   8.107 -0.2069  0.1497 -0.0439
  993loPI   C6A15884  13.686   8.164   8.499 -0.0548 -0.1848 -0.2994
  993loPI   C1B15885  14.242   8.172   6.588  0.0808  0.0086  0.1730
  993loPI   C2B15886  14.239   8.184   7.010 -0.0472  0.0854 -0.0287
  993loPI   C3B15887  14.264   8.183   7.471  0.0145  0.2187  0.0937
  993loPI   C4B15888  14.255   8.219   7.936 -0.2980 -0.1102  0.1289
  994loPI    C115889   0.820  16.658   5.815  0.1045 -0.0486 -0.1662
  994loPI    C215890   1.135  16.411   5.809  0.0655 -0.1025 -0.0386
  994loPI    C315891   0.993  16.563   5.467  0.1772 -0.1447 -0.1045
  994loPI   PO415892   0.878  16.829   5.951 -0.1982 -0.2110 -0.1449
  994loPI   GL115893   1.047  16.812   6.237 -0.2692 -0.1238  0.0335
  994loPI   GL215894   0.806  16.989   6.450  0.2858 -0.0925  0.1866
  994loPI   C1A15895   1.064  16.685   6.706 -0.0012 -0.2213  0.1748
  994loPI   C2A15896   1.112  16.623   7.061 -0.0227 -0.5054 -0.3098
  994loPI   C3A15897   1.152  16.651   7.504  0.0166 -0.0622  0.1049
  994loPI   C4A15898   1.124  16.763   8.002  0.0368 -0.2309 -0.1661
  994loPI   C5A15899   1.169  16.874   8.487 -0.1114  0.5120  0.1513
  994loPI   C6A15900   1.063  16.634   8.878  0.0838 -0.0009 -0.1699
  994loPI   C1B15901   0.765  17.099   6.845 -0.2045  0.0631  0.0263
  994loPI   C2B15902   0.883  17.040   7.260  0.0898 -0.3318  0.1024
  994loPI   C3B15903   0.837  17.100   7.656 -0.1152  0.2637 -0.1141
  994loPI   C4B15904   0.682  17.203   8.107 -0.2676  0.1984 -0.0198
  995loPI    C115905   1.707  16.026   5.616 -0.1055  0.2216 -0.0179
  995loPI    C215906   1.704  16.182   5.247  0.1337  0.1281 -0.0612
  995loPI    C315907   1.996  16.278   5.503 -0.1659  0.3887  0.1924
  995loPI   PO415908   1.477  16.067   5.768  0.2166  0.1665 -0.0365
  995loPI   GL115909   1.194  16.106   6.193  0.1580 -0.2025 -0.2785
  995loPI   GL215910   1.025  15.839   6.135  0.0517  0.0740  0.2860
  995loPI   C1A15911   1.296  16.276   6.463 -0.1588  0.3798 -0.0880
  995loPI   C2A15912   1.399  16.197   6.924  0.2436 -0.0293 -0.1697
  995loPI   C3A15913   1.388  16.213   7.341  0.3426  0.0087 -0.1549
  995loPI   C4A15914   1.449  16.253   7.689  0.1389  0.0613  0.2585
  995loPI   C5A15915   1.408  16.322   8.067  0.2844 -0.0278  0.2775
  995loPI   C6A15916   1.606  16.021   8.372  0.1683  0.2558  0.0391
  995loPI   C1B15917   1.152  15.832   6.613 -0.0069  0.1398 -0.1115
  995loPI   C2B15918   1.193  15.804   7.060  0.1560  0.2954  0.0039
  995loPI   C3B15919   1.199  15.790   7.428 -0.1510  0.0155 -0.2206
  995loPI   C4B15920   1.178  15.810   7.828  0.2937  0.3270 -0.1472
  996loPI    C115921   9.980   8.286   5.170 -0.1493  0.2786 -0.2424
  996loPI    C215922  10.285   8.032   5.116 -0.1055  0.2233  0.2226
  996loPI    C315923  10.047   8.129   4.809  0.0874 -0.1076 -0.0369
  996loPI   PO415924  10.001   8.264   5.475 -0.2425  0.2004 -0.0911
  996loPI   GL115925   9.985   8.449   5.755  0.1279 -0.2154  0.0403
  996loPI   GL215926  10.199   8.426   5.946 -0.1674  0.0149 -0.0693
  996loPI   C1A15927   9.670   8.401   6.139  0.2589  0.0227 -0.1426
  996loPI   C2A15928   9.668   8.356   6.558  0.2803 -0.0663  0.0857
  996loPI   C3A15929   9.695   8.492   7.009 -0.1607 -0.3367 -0.1205
  996loPI   C4A15930   9.566   8.489   7.430  0.0512  0.2003  0.0895
  996loPI   C5A15931   9.549   8.342   7.813  0.1560 -0.0457  0.2017
  996loPI   C6A15932   9.658   8.695   8.124  0.0820 -0.0784 -0.1257
  996loPI   C1B15933  10.191   8.411   6.391  0.0085  0.2377  0.1662
  996loPI   C2B15934  10.144   8.424   6.823 -0.0810  0.0025  0.0036
  996loPI   C3B15935  10.131   8.486   7.193 -0.1796  0.0283 -0.2928
  996loPI   C4B15936  10.141   8.534   7.630  0.1280  0.0175 -0.0865
  997loPI    C115937   0.428  15.745   5.501 -0.1677 -0.2783  0.1579
  997loPI    C215938   0.183  15.929   5.244 -0.0241 -0.0480  0.1834
  997loPI    C315939   0.478  15.695   5.108  0.0333  0.0500  0.1376
  997loPI   PO415940   0.350  15.876   5.689 -0.0425  0.2091  0.0807
  997loPI   GL115941   0.495  15.712   6.099 -0.6733  0.4376 -0.0209
  997loPI   GL215942   0.480  16.000   6.169  0.5145 -0.0285  0.1360
  997loPI   C1A15943   0.669  15.647   6.540  0.1185 -0.2361  0.1294
  997loPI   C2A15944   0.651  15.681   6.972 -0.1450  0.0517 -0.0504
  997loPI   C3A15945   0.667  15.744   7.458  0.1014  0.0157 -0.0108
  997loPI   C4A15946   0.659  15.784   7.915  0.2628 -0.1782 -0.2145
  997loPI   C5A15947   0.465  15.748   8.349 -0.0966 -0.3579  0.2438
  997loPI   C6A15948   0.386  15.739   8.824 -0.0240  0.1080 -0.3153
  997loPI   C1B15949   0.363  16.057   6.620  0.2128 -0.1502  0.0347
  997loPI   C2B15950   0.419  16.101   7.131  0.1966 -0.2308 -0.0458
  997loPI   C3B15951   0.462  16.178   7.579 -0.0902  0.3888  0.0702
  997loPI   C4B15952   0.353  16.197   7.999 -0.1893 -0.0906  0.0389
  998loPI    C115953   4.826   8.608   5.369  0.2115  0.2982 -0.1193
  998loPI    C215954   4.568   8.867   5.206 -0.2272 -0.1245 -0.1216
  998loPI    C315955   4.789   8.630   4.972 -0.0211  0.0562 -0.1139
  998loPI   PO415956   4.731   8.514   5.543 -0.1471  0.0923 -0.1983
  998loPI   GL115957   4.806   8.574   5.970  0.1447  0.0774 -0.1973
  998loPI   GL215958   4.711   8.230   5.930 -0.2534  0.1023 -0.3637
  998loPI   C1A15959   4.979   8.629   6.312  0.3065  0.3497 -0.2860
  998loPI   C2A15960   5.005   8.675   6.775 -0.2590  0.3009 -0.1679
  998loPI   C3A15961   5.000   8.580   7.218 -0.1844  0.1170  0.1627
  998loPI   C4A15962   4.943   8.618   7.636 -0.0892  0.2131 -0.2667
  998loPI   C5A15963   5.047   8.557   8.052  0.2516  0.1714  0.3249
  998loPI   C6A15964   5.100   8.470   8.492 -0.0831 -0.1882  0.0134
  998loPI   C1B15965   4.748   8.152   6.436 -0.0567 -0.2439 -0.0769
  998loPI   C2B15966   4.792   8.180   6.909  0.1489 -0.2360 -0.1461
  998loPI   C3B15967   4.634   8.212   7.333 -0.0691  0.0566 -0.3847
  998loPI   C4B15968   4.798   8.161   7.664  0.0201 -0.1303  0.2747
  999loPI    C115969   0.460  13.483   5.454  0.1532 -0.0588 -0.1151
  999loPI    C215970   0.104  13.314   5.381  0.0668 -0.0290  0.2207
  999loPI    C315971   0.175  13.691   5.265  0.0413 -0.0838  0.0241
  999loPI   PO415972   0.541  13.420   5.669  0.1218  0.0954  0.3212
  999loPI   GL115973   0.590  13.437   6.108  0.0215  0.3849  0.0296
  999loPI   GL215974   0.262  13.397   6.361 -0.1026 -0.1533 -0.3400
  999loPI   C1A15975   0.719  13.602   6.430 -0.1130  0.1096  0.1886
  999loPI   C2A15976   0.730  13.615   6.818  0.0480  0.0079  0.0478
  999loPI   C3A15977   0.753  13.633   7.276  0.0439 -0.2301  0.0647
  999loPI   C4A15978   0.671  13.561   7.746 -0.3999  0.1109  0.3260
  999loPI   C5A15979   0.683  13.629   8.077 -0.0919 -0.2230 -0.3831
  999loPI   C6A15980   0.980  13.441   8.440  0.1054 -0.0129 -0.2237
  999loPI   C1B15981   0.244  13.532   6.805  0.2381 -0.1047 -0.0096
  999loPI   C2B15982   0.216  13.508   7.292  0.0599 -0.2204  0.0419
  999loPI   C3B15983   0.220  13.427   7.746 -0.2372 -0.2249 -0.1874
  999loPI   C4B15984   0.244  13.371   8.147  0.0448  0.1111  0.0966
 1000loPI    C115985   5.556   8.861   5.277 -0.0306 -0.0898 -0.1964
 1000loPI    C215986   5.291   8.572   5.199  0.0479 -0.2365  0.0697
 1000loPI    C315987   5.608   8.621   4.961 -0.1721 -0.1118 -0.2040
 1000loPI   PO415988   5.538   8.883   5.511 -0.2748  0.0368  0.0673
 1000loPI   GL115989   5.702   9.060   5.836  0.1808 -0.0956  0.3492
 1000loPI   GL215990   5.576   8.721   6.025  0.2906 -0.0497 -0.1859
 1000loPI   C1A15991   5.778   9.192   6.210 -0.2082  0.0599  0.1017
 1000loPI   C2A15992   5.711   9.151   6.642 -0.4531  0.1542  0.0603
 1000loPI   C3A15993   5.662   9.155   7.057 -0.0660 -0.1578 -0.2097
 1000loPI   C4A15994   5.718   9.165   7.561  0.0871 -0.0240  0.1836
 1000loPI   C5A15995   5.804   9.035   7.884 -0.0553  0.0618 -0.0994
 1000loPI   C6A15996   5.900   8.683   8.153 -0.3227 -0.0379  0.0779
 1000loPI   C1B15997   5.490   8.612   6.553  0.0679  0.0658  0.1350
 1000loPI   C2B15998   5.513   8.708   6.967  0.0216 -0.0140 -0.0478
 1000loPI   C3B15999   5.514   8.672   7.415  0.3090  0.2769  0.1864
 1000loPI   C4B16000   5.459   8.572   7.832  0.2802 -0.0387 -0.1201
 1001loPI    C116001  12.950   4.879   6.140  0.2302 -0.0582  0.1253
 1001loPI    C216002  12.883   4.977   5.758 -0.1043  0.1347  0.2294
 1001loPI    C316003  13.036   4.619   5.848 -0.0565  0.0733 -0.0824
 1001loPI   PO416004  12.754   4.919   6.282 -0.0807 -0.2002  0.1023
 1001loPI   GL116005  12.585   5.250   6.456 -0.1299 -0.0406  0.0367
 1001loPI   GL216006  12.697   5.614   6.392 -0.0838  0.1360  0.1684
 1001loPI   C1A16007  12.698   5.201   6.843  0.0770 -0.1274 -0.3331
 1001loPI   C2A16008  12.600   5.076   7.276  0.0351  0.1059  0.0152
 1001loPI   C3A16009  12.672   5.181   7.812  0.0652  0.5931 -0.1736
 1001loPI   C4A16010  12.704   5.296   8.192 -0.0486 -0.0764 -0.0986
 1001loPI   C5A16011  12.480   5.482   8.519 -0.3079 -0.0162  0.2077
 1001loPI   C6A16012  12.142   5.370   8.527  0.2442 -0.0008  0.0881
 1001loPI   C1B16013  12.838   5.647   6.746 -0.1503  0.0804  0.2052
 1001loPI   C2B16014  12.777   5.724   7.128 -0.0855  0.0753 -0.0135
 1001loPI   C3B16015  12.847   5.724   7.525  0.1146 -0.0970 -0.0366
 1001loPI   C4B16016  12.764   5.756   7.933 -0.0954 -0.0073 -0.1005
 1002loPI    C116017   7.904   8.675   5.139 -0.1018  0.0280  0.0848
 1002loPI    C216018   7.539   8.785   5.017 -0.0683 -0.0259 -0.0650
 1002loPI    C316019   7.729   8.483   4.835  0.1643  0.1791 -0.1674
 1002loPI   PO416020   7.917   8.794   5.368  0.2841 -0.1499 -0.1565
 1002loPI   GL116021   7.859   8.699   5.818  0.3191  0.0447 -0.1473
 1002loPI   GL216022   7.503   8.575   5.924  0.3297  0.1486 -0.0044
 1002loPI   C1A16023   7.844   8.436   6.301 -0.0438  0.0046 -0.2350
 1002loPI   C2A16024   7.835   8.497   6.797  0.0355 -0.0576  0.0811
 1002loPI   C3A16025   7.816   8.586   7.113 -0.2984  0.1033 -0.3298
 1002loPI   C4A16026   7.775   8.547   7.573  0.0265  0.1334  0.2377
 1002loPI   C5A16027   7.658   8.622   7.977  0.0888 -0.0825  0.0529
 1002loPI   C6A16028   7.808   8.837   8.274  0.1054 -0.0008 -0.0062
 1002loPI   C1B16029   7.349   8.446   6.286  0.4991  0.2542 -0.3267
 1002loPI   C2B16030   7.330   8.469   6.778 -0.0402  0.3202 -0.0226
 1002loPI   C3B16031   7.325   8.507   7.207 -0.1771 -0.0898 -0.1696
 1002loPI   C4B16032   7.281   8.460   7.670  0.0257 -0.1613 -0.2483
 1003loPI    C116033   5.720   7.615   5.119 -0.0022 -0.0590 -0.0367
 1003loPI    C216034   5.370   7.772   5.005 -0.0566 -0.1247  0.0380
 1003loPI    C316035   5.684   7.780   4.757 -0.0943 -0.0124 -0.0066
 1003loPI   PO416036   5.706   7.647   5.414  0.2037  0.1859  0.1517
 1003loPI   GL116037   5.955   7.623   5.937  0.2684 -0.0901  0.1310
 1003loPI   GL216038   6.065   7.905   6.087  0.0145  0.0113 -0.1957
 1003loPI   C1A16039   5.962   7.429   6.352 -0.0466  0.1812  0.1142
 1003loPI   C2A16040   5.946   7.434   6.828  0.1240 -0.0421  0.1079
 1003loPI   C3A16041   5.873   7.374   7.282 -0.2142 -0.3123  0.0555
 1003loPI   C4A16042   5.788   7.382   7.805  0.2051 -0.1700  0.2927
 1003loPI   C5A16043   5.781   7.246   8.181 -0.1248  0.3505  0.1542
 1003loPI   C6A16044   5.772   7.033   8.543  0.4121 -0.1753 -0.0945
 1003loPI   C1B16045   6.094   7.873   6.540  0.1087  0.0616 -0.1292
 1003loPI   C2B16046   6.092   7.893   7.037  0.0978 -0.1007 -0.1141
 1003loPI   C3B16047   6.116   7.824   7.423  0.0163 -0.2022  0.1531
 1003loPI   C4B16048   6.128   7.773   7.875  0.0844 -0.0398 -0.0895
 1004loPI    C116049   8.886   8.265   5.299  0.0242 -0.0972 -0.0379
 1004loPI    C216050   9.052   8.062   4.996  0.1290 -0.1931  0.0828
 1004loPI    C316051   8.995   8.457   4.965  0.3286 -0.1682  0.0173
 1004loPI   PO416052   8.957   8.085   5.567  0.2340 -0.0388  0.0952
 1004loPI   GL116053   9.022   8.267   5.853  0.0060 -0.2854  0.1550
 1004loPI   GL216054   8.627   8.371   5.801 -0.1235  0.5161 -0.3873
 1004loPI   C1A16055   9.159   8.280   6.279  0.0765  0.3095 -0.1410
 1004loPI   C2A16056   9.155   8.286   6.667  0.0722 -0.0986  0.0132
 1004loPI   C3A16057   9.171   8.427   7.114 -0.0617 -0.1982  0.2241
 1004loPI   C4A16058   9.086   8.348   7.547  0.0214  0.0816 -0.4440
 1004loPI   C5A16059   9.071   8.219   7.951  0.2799  0.1028 -0.0319
 1004loPI   C6A16060   8.952   8.205   8.368  0.0925 -0.0634  0.0762
 1004loPI   C1B16061   8.600   8.144   6.123  0.2932 -0.1786 -0.0624
 1004loPI   C2B16062   8.664   8.179   6.553  0.0595 -0.1009  0.0293
 1004loPI   C3B16063   8.684   8.288   6.965 -0.4148  0.0713  0.0441
 1004loPI   C4B16064   8.612   8.314   7.381  0.0788 -0.2523  0.0635
 1005loPI    C116065   3.604   2.462   5.258  0.0116  0.1266 -0.1249
 1005loPI    C216066   3.619   2.236   4.929  0.0835 -0.0267 -0.0177
 1005loPI    C316067   3.560   2.630   4.898 -0.1745 -0.0764 -0.1991
 1005loPI   PO416068   3.419   2.351   5.460  0.1641  0.1708 -0.0419
 1005loPI   GL116069   3.356   2.378   5.948  0.4635 -0.2749  0.0935
 1005loPI   GL216070   3.245   2.115   6.153 -0.0957 -0.1380 -0.4382
 1005loPI   C1A16071   3.718   2.320   6.359 -0.1985  0.0738 -0.1452
 1005loPI   C2A16072   3.773   2.218   6.801 -0.0571  0.5545 -0.2782
 1005loPI   C3A16073   3.742   2.214   7.204  0.0015 -0.0075 -0.1470
 1005loPI   C4A16074   3.703   2.148   7.613 -0.3045  0.1737 -0.1229
 1005loPI   C5A16075   3.640   2.102   8.058  0.0705  0.1896 -0.0816
 1005loPI   C6A16076   3.457   2.074   8.538 -0.3801  0.1668  0.0348
 1005loPI   C1B16077   3.237   2.177   6.629 -0.2941 -0.2903 -0.0009
 1005loPI   C2B16078   3.123   2.190   7.019  0.0187  0.1500 -0.2645
 1005loPI   C3B16079   3.176   2.072   7.456  0.0226 -0.0926  0.0255
 1005loPI   C4B16080   3.187   2.101   7.886  0.1884 -0.0932  0.0292
 1006loPI    C116081  11.868   1.440   5.506 -0.1041  0.1323 -0.1955
 1006loPI    C216082  12.208   1.641   5.570  0.0038 -0.1457  0.1402
 1006loPI    C316083  12.197   1.351   5.296  0.0555 -0.1787  0.1729
 1006loPI   PO416084  11.864   1.314   5.740 -0.0310  0.0750  0.0503
 1006loPI   GL116085  11.774   1.195   6.186  0.0847 -0.2019  0.3301
 1006loPI   GL216086  12.052   1.089   6.211  0.1313 -0.1162  0.1387
 1006loPI   C1A16087  11.582   1.027   6.546  0.3614  0.3644 -0.2684
 1006loPI   C2A16088  11.426   0.910   6.929  0.2553  0.0749 -0.3141
 1006loPI   C3A16089  11.408   0.885   7.266  0.0263  0.0694 -0.0620
 1006loPI   C4A16090  11.281   0.890   7.623 -0.2152 -0.1215  0.1601
 1006loPI   C5A16091  11.014   0.935   7.995 -0.0899  0.3621 -0.1880
 1006loPI   C6A16092  10.762   0.778   8.280  0.0205 -0.0933  0.3521
 1006loPI   C1B16093  12.087   1.119   6.757  0.0288 -0.0414  0.2251
 1006loPI   C2B16094  11.990   0.926   7.158  0.2843  0.0055 -0.2459
 1006loPI   C3B16095  11.830   0.832   7.569  0.0391 -0.0723 -0.3023
 1006loPI   C4B16096  11.916   1.073   7.942  0.0182 -0.0720 -0.1510
 1007loPI    C116097   1.581  16.801   5.354 -0.2027 -0.3034 -0.1166
 1007loPI    C216098   1.770  16.646   5.038 -0.0350 -0.1234 -0.1059
 1007loPI    C316099   1.426  16.844   4.988 -0.0810 -0.2162 -0.1585
 1007loPI   PO416100   1.536  16.568   5.491 -0.0608 -0.2180 -0.2047
 1007loPI   GL116101   1.573  16.490   6.030  0.1342  0.4167 -0.1902
 1007loPI   GL216102   1.585  16.634   6.267  0.1443  0.0162  0.1478
 1007loPI   C1A16103   1.801  16.327   6.523  0.0523 -0.0752 -0.3629
 1007loPI   C2A16104   1.914  16.292   6.921 -0.3434  0.3113 -0.1461
 1007loPI   C3A16105   1.897  16.335   7.378  0.1535 -0.0287 -0.0048
 1007loPI   C4A16106   1.955  16.310   7.717  0.0374 -0.1853  0.1494
 1007loPI   C5A16107   1.929  16.348   8.133  0.3224 -0.0536 -0.1010
 1007loPI   C6A16108   2.114  16.608   8.527  0.3613 -0.1646 -0.0129
 1007loPI   C1B16109   1.626  16.719   6.808  0.2135 -0.0486  0.2459
 1007loPI   C2B16110   1.609  16.692   7.274 -0.0378 -0.1524 -0.1783
 1007loPI   C3B16111   1.692  16.724   7.719 -0.0057  0.0553 -0.2356
 1007loPI   C4B16112   1.632  16.727   8.220  0.1474 -0.0244 -0.2807
 1008loPI    C116113  16.226   0.280   5.539  0.0261  0.2525  0.1710
 1008loPI    C216114  15.993   0.456   5.267  0.0589  0.2252  0.1251
 1008loPI    C316115  16.391   0.486   5.239  0.0665  0.0857  0.0773
 1008loPI   PO416116  16.040   0.285   5.780 -0.1911  0.1126 -0.0348
 1008loPI   GL116117  16.043   0.110   6.171  0.1884  0.1070  0.1843
 1008loPI   GL216118  15.805  -0.118   6.196 -0.0928 -0.1454 -0.1389
 1008loPI   C1A16119  16.142   0.352   6.515  0.2576  0.2210 -0.1282
 1008loPI   C2A16120  16.085   0.368   6.995 -0.0827  0.0457  0.0052
 1008loPI   C3A16121  16.108   0.418   7.402 -0.0293 -0.0529  0.1926
 1008loPI   C4A16122  16.129   0.439   7.830  0.3366  0.0017 -0.0802
 1008loPI   C5A16123  16.118   0.498   8.226 -0.0769 -0.0233 -0.0134
 1008loPI   C6A16124  16.118   0.558   8.722 -0.1373  0.0694 -0.1794
 1008loPI   C1B16125  15.900  -0.105   6.657  0.0077  0.1747 -0.0663
 1008loPI   C2B16126  15.859  -0.102   7.074 -0.0246 -0.0075 -0.2085
 1008loPI   C3B16127  15.946  -0.033   7.516  0.1825  0.0852  0.0106
 1008loPI   C4B16128  15.858   0.030   7.993 -0.1494 -0.2623 -0.0179
 1009loPI    C116129  12.506  15.158   5.645 -0.0288 -0.1393 -0.1362
 1009loPI    C216130  12.368  15.487   5.464  0.3021  0.1579  0.1360
 1009loPI    C316131  12.672  15.284   5.302  0.0263 -0.0837 -0.0895
 1009loPI   PO416132  12.522  15.241   5.927  0.0963  0.0797  0.1010
 1009loPI   GL116133  12.330  15.244   6.296  0.0363 -0.0791  0.1115
 1009loPI   GL216134  12.628  15.536   6.300 -0.1172 -0.0471  0.1342
 1009loPI   C1A16135  12.357  15.208   6.793 -0.1545  0.2678 -0.1689
 1009loPI   C2A16136  12.348  15.074   7.135 -0.0995  0.3510  0.1899
 1009loPI   C3A16137  12.280  15.091   7.606  0.2418  0.1202  0.1706
 1009loPI   C4A16138  12.369  15.003   8.001 -0.2710  0.2266 -0.1717
 1009loPI   C5A16139  12.158  15.130   8.280 -0.2070 -0.0442  0.1914
 1009loPI   C6A16140  12.359  15.433   8.540 -0.0682  0.0606  0.0528
 1009loPI   C1B16141  12.590  15.624   6.652  0.2594  0.0618 -0.1169
 1009loPI   C2B16142  12.495  15.537   7.155  0.0750  0.0396  0.0278
 1009loPI   C3B16143  12.453  15.544   7.571 -0.1578 -0.0023  0.1289
 1009loPI   C4B16144  12.539  15.444   8.037  0.0621  0.0092  0.1031
 1010loPI    C116145  15.750  17.199   5.788 -0.1180  0.0276  0.0082
 1010loPI    C216146  15.717  16.842   5.611  0.1556  0.0020  0.0037
 1010loPI    C316147  15.696  17.176   5.392 -0.0210 -0.0126 -0.0032
 1010loPI   PO416148  15.693  17.141   5.981  0.0170 -0.1532  0.1465
 1010loPI   GL116149  15.650  17.220   6.432 -0.2801 -0.1654  0.2383
 1010loPI   GL216150  15.895  17.027   6.496  0.2885  0.1123  0.0207
 1010loPI   C1A16151  15.608  17.293   6.846  0.0323  0.0380  0.0043
 1010loPI   C2A16152  15.627  17.226   7.250  0.1429  0.1997 -0.1694
 1010loPI   C3A16153  15.743  17.223   7.668 -0.0880 -0.0345  0.4116
 1010loPI   C4A16154  15.620  17.353   8.037 -0.4943 -0.0284 -0.2576
 1010loPI   C5A16155  15.443  17.643   8.392 -0.2775 -0.0047  0.0356
 1010loPI   C6A16156  15.445  17.804   8.790 -0.0724  0.2426 -0.2049
 1010loPI   C1B16157  15.944  16.850   6.897  0.4755  0.1614  0.0262
 1010loPI   C2B16158  15.955  16.765   7.346 -0.1678 -0.0274 -0.1238
 1010loPI   C3B16159  15.947  16.836   7.872  0.0451 -0.0360 -0.0670
 1010loPI   C4B16160  15.977  16.929   8.330 -0.2831  0.0584  0.3079
 1011loPI    C116161  15.050  14.203   5.691 -0.0282 -0.0589 -0.0070
 1011loPI    C216162  15.383  14.343   5.518 -0.0026 -0.0940  0.0140
 1011loPI    C316163  15.203  14.016   5.372 -0.1626  0.0622 -0.1443
 1011loPI   PO416164  15.165  14.141   5.915  0.0473 -0.1195  0.1672
 1011loPI   GL116165  15.167  13.968   6.309  0.2722 -0.1109 -0.0205
 1011loPI   GL216166  15.397  14.208   6.340 -0.1172  0.0371 -0.0992
 1011loPI   C1A16167  15.163  14.129   6.776  0.0051  0.1709 -0.1687
 1011loPI   C2A16168  15.247  14.007   7.214 -0.1448 -0.2210  0.0404
 1011loPI   C3A16169  15.256  14.060   7.633  0.4088 -0.3684 -0.2002
 1011loPI   C4A16170  15.170  14.062   8.044  0.3484 -0.0906 -0.0525
 1011loPI   C5A16171  15.206  14.023   8.445 -0.0003  0.2843 -0.0870
 1011loPI   C6A16172  15.294  13.914   8.889  0.0487  0.1407  0.3230
 1011loPI   C1B16173  15.415  14.509   6.610  0.0503  0.1547 -0.0472
 1011loPI   C2B16174  15.451  14.511   7.087  0.0388 -0.2174  0.0293
 1011loPI   C3B16175  15.473  14.519   7.453 -0.4025 -0.0554  0.0328
 1011loPI   C4B16176  15.437  14.603   7.858  0.4191 -0.0095 -0.0279
 1012loPI    C116177   0.728   7.100   5.375  0.0254 -0.1346  0.0134
 1012loPI    C216178   0.392   7.198   5.181 -0.0194 -0.0863  0.1148
 1012loPI    C316179   0.711   7.069   4.976  0.0008  0.1573 -0.0102
 1012loPI   PO416180   0.631   7.013   5.600  0.1069 -0.0116 -0.1144
 1012loPI   GL116181   0.718   7.058   6.050  0.1543  0.0392  0.1391
 1012loPI   GL216182   0.695   6.753   6.032 -0.0600 -0.0782  0.2405
 1012loPI   C1A16183   0.550   7.261   6.453  0.3448  0.3503  0.0743
 1012loPI   C2A16184   0.491   7.275   6.744  0.0382 -0.0723  0.0792
 1012loPI   C3A16185   0.476   7.282   7.219 -0.2215 -0.3001  0.2170
 1012loPI   C4A16186   0.424   7.277   7.637  0.0487 -0.1521  0.0498
 1012loPI   C5A16187   0.573   7.113   8.007 -0.0264  0.2498 -0.0349
 1012loPI   C6A16188   0.813   6.882   8.296 -0.0842 -0.0027 -0.0471
 1012loPI   C1B16189   0.777   6.820   6.509  0.0391  0.2368 -0.1696
 1012loPI   C2B16190   0.762   6.867   6.901 -0.1845  0.3079 -0.0411
 1012loPI   C3B16191   0.821   6.869   7.301  0.1840 -0.0414  0.3398
 1012loPI   C4B16192   0.885   6.848   7.745 -0.0876  0.0077 -0.0757
 1013loPI    C116193  13.470  15.596   5.386 -0.0361  0.0707  0.0786
 1013loPI    C216194  13.086  15.623   5.277 -0.0056  0.0645 -0.0317
 1013loPI    C316195  13.373  15.749   5.029  0.0672  0.0092  0.0238
 1013loPI   PO416196  13.409  15.666   5.649 -0.1042  0.2012 -0.2510
 1013loPI   GL116197  13.536  15.461   5.959 -0.0994  0.3250  0.0642
 1013loPI   GL216198  13.747  15.740   6.096  0.2472 -0.0949 -0.0534
 1013loPI   C1A16199  13.441  15.243   6.340 -0.1520 -0.0176  0.2489
 1013loPI   C2A16200  13.319  15.233   6.784 -0.0769 -0.1028 -0.1260
 1013loPI   C3A16201  13.373  15.236   7.248 -0.1746  0.2212 -0.3370
 1013loPI   C4A16202  13.359  15.161   7.711 -0.3667  0.0256  0.0617
 1013loPI   C5A16203  13.380  15.146   8.121 -0.0126  0.0198 -0.0366
 1013loPI   C6A16204  13.512  14.885   8.415  0.1639  0.0107 -0.1043
 1013loPI   C1B16205  13.573  15.810   6.477 -0.1384  0.3508 -0.0816
 1013loPI   C2B16206  13.596  15.737   6.889  0.0077  0.0087  0.1123
 1013loPI   C3B16207  13.581  15.670   7.305  0.1724  0.1411 -0.0355
 1013loPI   C4B16208  13.509  15.675   7.723 -0.2167 -0.1275  0.0775
 1014loPI    C116209  16.717  15.876   5.523 -0.1225 -0.0883  0.1390
 1014loPI    C216210  16.844  15.536   5.353 -0.0610 -0.1079  0.2232
 1014loPI    C316211  16.519  15.722   5.212 -0.0085 -0.1216  0.0820
 1014loPI   PO416212  16.700  15.809   5.781  0.0621  0.2376 -0.1604
 1014loPI   GL116213  16.819  15.843   6.184 -0.0288  0.1046  0.1297
 1014loPI   GL216214  17.107  16.049   6.273  0.0844  0.0183 -0.0533
 1014loPI   C1A16215  16.899  15.668   6.510  0.2863  0.5142 -0.3371
 1014loPI   C2A16216  16.886  15.585   6.921  0.2088  0.1960  0.0318
 1014loPI   C3A16217  16.897  15.533   7.368 -0.0261  0.1894  0.1242
 1014loPI   C4A16218  16.918  15.649   7.692  0.1156  0.2986 -0.1994
 1014loPI   C5A16219  16.826  15.633   8.125  0.2681 -0.0963  0.0078
 1014loPI   C6A16220  16.783  15.597   8.641  0.0633 -0.1740  0.1681
 1014loPI   C1B16221  17.156  16.057   6.800 -0.1551 -0.0668  0.0695
 1014loPI   C2B16222  17.107  15.980   7.260  0.0597 -0.1276  0.0029
 1014loPI   C3B16223  17.129  16.099   7.634  0.0963 -0.0192 -0.1825
 1014loPI   C4B16224  17.070  16.148   8.017 -0.2364  0.1821  0.1630
 1015loPI    C116225   6.628  17.156   5.514 -0.2445  0.0811 -0.0987
 1015loPI    C216226   6.994  17.124   5.355 -0.1826  0.0866  0.0413
 1015loPI    C316227   6.694  17.276   5.138 -0.1406 -0.0721 -0.1301
 1015loPI   PO416228   6.730  17.201   5.761  0.2135 -0.4390 -0.0231
 1015loPI   GL116229   6.791  17.407   6.038 -0.2339 -0.2190 -0.2266
 1015loPI   GL216230   7.002  17.173   6.180 -0.0310 -0.0601  0.1154
 1015loPI   C1A16231   6.658  17.576   6.390 -0.2124 -0.2471  0.0973
 1015loPI   C2A16232   6.645  17.571   6.782  0.2098  0.1600  0.2134
 1015loPI   C3A16233   6.610  17.546   7.175  0.1096 -0.1340 -0.0149
 1015loPI   C4A16234   6.610  17.577   7.681 -0.1887 -0.0590  0.1363
 1015loPI   C5A16235   6.691  17.544   8.145  0.2583  0.1802 -0.4295
 1015loPI   C6A16236   6.813  17.284   8.552 -0.1046 -0.0989 -0.0007
 1015loPI   C1B16237   6.942  17.182   6.572 -0.0152  0.1705 -0.0806
 1015loPI   C2B16238   6.858  17.120   7.002  0.1229 -0.1046  0.1429
 1015loPI   C3B16239   6.917  17.139   7.443 -0.0388 -0.1535 -0.0531
 1015loPI   C4B16240   6.884  17.098   7.953 -0.0875 -0.2576 -0.2376
 1016loPI    C116241   4.392   4.977   5.469 -0.0135  0.2515 -0.1811
 1016loPI    C216242   4.607   5.146   5.177 -0.1301 -0.0308 -0.4347
 1016loPI    C316243   4.219   5.235   5.216 -0.1266 -0.0319 -0.3979
 1016loPI   PO416244   4.564   5.012   5.725  0.0876 -0.1379  0.0108
 1016loPI   GL116245   4.558   5.264   6.112 -0.1021  0.2012 -0.0904
 1016loPI   GL216246   4.393   4.939   6.150 -0.0777  0.1428 -0.0370
 1016loPI   C1A16247   4.621   5.488   6.511 -0.1126 -0.0312  0.0989
 1016loPI   C2A16248   4.581   5.422   6.869  0.1924  0.0715 -0.1644
 1016loPI   C3A16249   4.546   5.422   7.320 -0.0861 -0.3899  0.1198
 1016loPI   C4A16250   4.515   5.368   7.754  0.1453  0.0523 -0.0528
 1016loPI   C5A16251   4.706   5.346   8.151  0.1939  0.2937 -0.1057
 1016loPI   C6A16252   4.879   5.580   8.468  0.1571  0.1423  0.1831
 1016loPI   C1B16253   4.346   5.033   6.516 -0.1196 -0.0511  0.1187
 1016loPI   C2B16254   4.354   4.985   6.945 -0.3251  0.1056  0.1063
 1016loPI   C3B16255   4.306   4.947   7.382  0.2724  0.1950 -0.1542
 1016loPI   C4B16256   4.251   4.902   7.810  0.2855 -0.0315 -0.1269
 1017loPI    C116257  17.423   7.952   5.201  0.1179  0.1093  0.0211
 1017loPI    C216258  17.261   8.144   4.889  0.2648  0.0984 -0.0626
 1017loPI    C316259  17.331   7.750   4.869  0.2862  0.1000 -0.0204
 1017loPI   PO416260  17.293   8.038   5.413 -0.1775 -0.1411  0.1443
 1017loPI   GL116261  17.192   7.986   5.871 -0.3264  0.1959 -0.0716
 1017loPI   GL216262  17.185   7.618   6.080 -0.1830 -0.1096 -0.1414
 1017loPI   C1A16263  17.185   8.071   6.314  0.1188 -0.0503 -0.0636
 1017loPI   C2A16264  17.119   8.016   6.816  0.1671 -0.3261  0.0048
 1017loPI   C3A16265  17.121   8.023   7.276  0.0525  0.1116 -0.1743
 1017loPI   C4A16266  17.090   8.043   7.776  0.3258  0.0865  0.0889
 1017loPI   C5A16267  17.096   7.918   8.200 -0.1140 -0.1175  0.3200
 1017loPI   C6A16268  16.917   7.840   8.605 -0.1666  0.0918 -0.0749
 1017loPI   C1B16269  17.380   7.576   6.359 -0.3806 -0.0952 -0.1963
 1017loPI   C2B16270  17.387   7.615   6.704  0.0973 -0.2353  0.1507
 1017loPI   C3B16271  17.355   7.618   7.128  0.0497 -0.0078  0.2413
 1017loPI   C4B16272  17.325   7.642   7.586  0.0246  0.2611 -0.1814
 1018loPI    C116273  15.462   7.771   5.343 -0.1358 -0.0823  0.1163
 1018loPI    C216274  15.208   8.079   5.337 -0.1000 -0.0529  0.1063
 1018loPI    C316275  15.174   7.788   5.066 -0.0176  0.0364 -0.0006
 1018loPI   PO416276  15.464   7.666   5.577 -0.0786  0.0448  0.1737
 1018loPI   GL116277  15.622   7.451   5.979  0.1624  0.2373  0.3399
 1018loPI   GL216278  15.903   7.426   6.136 -0.2378  0.0156  0.0465
 1018loPI   C1A16279  15.429   7.426   6.421 -0.0567  0.1610  0.0176
 1018loPI   C2A16280  15.369   7.428   6.925 -0.1067 -0.0499  0.1251
 1018loPI   C3A16281  15.330   7.401   7.352 -0.1812 -0.0226  0.0939
 1018loPI   C4A16282  15.346   7.414   7.772  0.0094  0.2056  0.1606
 1018loPI   C5A16283  15.441   7.445   8.167 -0.0557 -0.1738  0.0625
 1018loPI   C6A16284  15.259   7.582   8.568  0.1082  0.0723  0.3436
 1018loPI   C1B16285  15.974   7.397   6.592  0.0386 -0.2208  0.2183
 1018loPI   C2B16286  15.907   7.476   6.953 -0.0758  0.4218  0.2311
 1018loPI   C3B16287  15.839   7.446   7.359 -0.0895  0.4219 -0.5517
 1018loPI   C4B16288  15.861   7.493   7.757 -0.0767 -0.0548  0.0639
 1019loPI    C116289   8.144   0.538   5.381 -0.0371  0.0575  0.0788
 1019loPI    C216290   7.808   0.366   5.248  0.1567 -0.2366 -0.0407
 1019loPI    C316291   8.068   0.524   4.989 -0.0070  0.2243  0.0665
 1019loPI   PO416292   8.016   0.698   5.574  0.0421 -0.2582 -0.1594
 1019loPI   GL116293   7.847   0.717   5.949 -0.1207  0.0992 -0.1287
 1019loPI   GL216294   8.063   0.571   6.062  0.1514 -0.1923 -0.2490
 1019loPI   C1A16295   8.023   0.950   6.372  0.2269  0.1185 -0.1276
 1019loPI   C2A16296   7.967   0.955   6.834 -0.2693 -0.2593 -0.0242
 1019loPI   C3A16297   7.977   0.941   7.226  0.2028  0.2585 -0.3926
 1019loPI   C4A16298   7.982   1.022   7.606  0.1934 -0.0470  0.1604
 1019loPI   C5A16299   8.078   0.874   7.938  0.2826 -0.1562  0.0535
 1019loPI   C6A16300   8.238   0.903   8.326  0.4490 -0.1025 -0.0052
 1019loPI   C1B16301   7.804   0.533   6.494  0.0486 -0.0326  0.2595
 1019loPI   C2B16302   7.790   0.482   6.991  0.0188  0.0395  0.1649
 1019loPI   C3B16303   7.860   0.462   7.427 -0.0191 -0.2551 -0.1672
 1019loPI   C4B16304   7.820   0.505   7.804 -0.0983 -0.0828  0.1919
 1020loPI    C116305   2.044  13.716   5.293  0.1848  0.0702  0.2241
 1020loPI    C216306   2.352  13.951   5.196  0.0395  0.2602  0.2164
 1020loPI    C316307   1.978  14.073   5.125 -0.0333 -0.0512  0.0448
 1020loPI   PO416308   2.018  13.616   5.496 -0.0673 -0.2163 -0.0512
 1020loPI   GL116309   1.976  13.793   6.034 -0.2456 -0.0969  0.1793
 1020loPI   GL216310   2.302  13.819   6.041  0.0831  0.1618  0.1842
 1020loPI   C1A16311   2.173  13.702   6.475 -0.0950  0.0436 -0.0366
 1020loPI   C2A16312   2.260  13.735   6.809  0.1211  0.2875  0.0758
 1020loPI   C3A16313   2.215  13.745   7.243  0.2894  0.0166  0.0023
 1020loPI   C4A16314   2.185  13.689   7.645 -0.1115 -0.1581  0.0323
 1020loPI   C5A16315   2.170  13.725   8.092 -0.1171 -0.0225  0.1277
 1020loPI   C6A16316   1.957  13.882   8.412  0.1525 -0.1426 -0.0882
 1020loPI   C1B16317   2.663  13.733   6.405 -0.2354  0.2720 -0.1951
 1020loPI   C2B16318   2.793  13.785   6.704 -0.1350 -0.0367 -0.3258
 1020loPI   C3B16319   2.709  13.857   7.101  0.1232 -0.0868 -0.3972
 1020loPI   C4B16320   2.641  13.765   7.437 -0.1490 -0.1659  0.1799
 1021loPI    C116321  14.388   4.680   5.757  0.0513 -0.1781 -0.0687
 1021loPI    C216322  14.160   4.445   5.526  0.1167  0.0101 -0.3297
 1021loPI    C316323  14.229   4.825   5.419  0.0178  0.1499  0.0839
 1021loPI   PO416324  14.250   4.562   6.080 -0.1624  0.0684 -0.1366
 1021loPI   GL116325  14.262   4.701   6.435  0.1856  0.0480  0.0654
 1021loPI   GL216326  14.031   4.907   6.351 -0.0950  0.0543 -0.3158
 1021loPI   C1A16327  14.252   4.557   6.765  0.2583 -0.1790 -0.0549
 1021loPI   C2A16328  14.205   4.594   7.176  0.0723 -0.1938 -0.2575
 1021loPI   C3A16329  13.946   4.446   7.528 -0.0843  0.0827 -0.0148
 1021loPI   C4A16330  13.895   4.620   7.973 -0.0841 -0.0592  0.1152
 1021loPI   C5A16331  14.036   4.911   8.333  0.0131 -0.2345 -0.1477
 1021loPI   C6A16332  14.202   5.116   8.661  0.1333  0.0824 -0.0646
 1021loPI   C1B16333  13.943   4.969   6.790 -0.0812 -0.2739 -0.0128
 1021loPI   C2B16334  13.885   5.005   7.210 -0.1125  0.1048  0.2050
 1021loPI   C3B16335  13.587   4.899   7.509 -0.2310  0.3858 -0.2735
 1021loPI   C4B16336  13.417   4.844   7.874 -0.0764 -0.2420  0.1617
 1022loPI    C116337  12.188   3.723   6.114  0.2057  0.0119 -0.1812
 1022loPI    C216338  12.409   3.681   6.445  0.1348  0.3120 -0.0930
 1022loPI    C316339  12.300   4.046   6.322 -0.2966  0.1716 -0.1447
 1022loPI   PO416340  11.985   3.607   6.157  0.2180  0.0271 -0.3479
 1022loPI   GL116341  11.708   3.392   6.385 -0.1535  0.1733  0.0764
 1022loPI   GL216342  11.890   3.020   6.351  0.3484  0.4534  0.0341
 1022loPI   C1A16343  11.637   3.516   6.817  0.3047 -0.3808 -0.0179
 1022loPI   C2A16344  11.531   3.667   7.129 -0.1140 -0.4261  0.0373
 1022loPI   C3A16345  11.563   3.721   7.608  0.1215  0.1620  0.0362
 1022loPI   C4A16346  11.699   3.700   8.034  0.2299 -0.2801  0.3116
 1022loPI   C5A16347  11.710   3.750   8.469  0.1112 -0.0531  0.1615
 1022loPI   C6A16348  11.260   3.707   8.654  0.0213  0.3299  0.0938
 1022loPI   C1B16349  11.903   3.055   6.823  0.2890 -0.2826 -0.0132
 1022loPI   C2B16350  11.819   3.324   7.262  0.2411  0.1209  0.2100
 1022loPI   C3B16351  12.000   3.740   7.352 -0.1611 -0.0593  0.1858
 1022loPI   C4B16352  12.210   4.182   7.408  0.1584  0.1159 -0.0856
 1023loPI    C116353   0.230   1.711   5.400 -0.0192  0.1459  0.0053
 1023loPI    C216354   0.061   1.350   5.364  0.3305 -0.0315  0.0996
 1023loPI    C316355   0.338   1.469   5.100  0.2250  0.1649  0.0755
 1023loPI   PO416356   0.190   1.788   5.628  0.1124  0.0003 -0.1576
 1023loPI   GL116357   0.139   1.799   6.111  0.0145 -0.0976 -0.2188
 1023loPI   GL216358   0.382   1.889   6.109  0.0529  0.0145 -0.0334
 1023loPI   C1A16359   0.140   1.855   6.539  0.2352 -0.2901 -0.1484
 1023loPI   C2A16360   0.039   1.784   6.977  0.1905 -0.2456 -0.0796
 1023loPI   C3A16361   0.051   1.960   7.327  0.4681  0.2977  0.3714
 1023loPI   C4A16362   0.097   2.011   7.807 -0.2677  0.0554  0.0675
 1023loPI   C5A16363   0.135   2.069   8.230 -0.0985  0.1565 -0.2190
 1023loPI   C6A16364   0.323   1.898   8.557 -0.1791  0.0659 -0.0306
 1023loPI   C1B16365   0.670   1.900   6.572  0.1794  0.1291  0.1301
 1023loPI   C2B16366   0.628   1.989   7.099  0.0726  0.0409  0.2037
 1023loPI   C3B16367   0.541   2.010   7.502 -0.4365  0.3329  0.0247
 1023loPI   C4B16368   0.600   2.118   7.946 -0.4035 -0.0156  0.1249
 1024loPI    C116369   9.726   4.280   5.139 -0.0163  0.0389  0.0250
 1024loPI    C216370   9.678   4.632   4.956 -0.0806 -0.0340 -0.0996
 1024loPI    C316371  10.046   4.487   5.016 -0.0566  0.0224 -0.1097
 1024loPI   PO416372   9.505   4.357   5.361 -0.1372 -0.0918 -0.0957
 1024loPI   GL116373   9.379   4.260   5.742 -0.0038 -0.2698  0.1934
 1024loPI   GL216374   9.720   4.078   5.792 -0.1387 -0.1347  0.1233
 1024loPI   C1A16375   9.210   4.518   6.101  0.0289  0.2476 -0.1093
 1024loPI   C2A16376   9.115   4.574   6.564 -0.1800  0.0727 -0.1464
 1024loPI   C3A16377   9.110   4.711   6.960  0.1202 -0.4099  0.1609
 1024loPI   C4A16378   9.051   4.705   7.432 -0.2029 -0.0939  0.2354
 1024loPI   C5A16379   9.254   4.842   7.758  0.2189  0.0637  0.1017
 1024loPI   C6A16380   9.326   5.099   7.974 -0.0257 -0.1945 -0.0831
 1024loPI   C1B16381   9.581   4.144   6.180 -0.1018  0.2020  0.0361
 1024loPI   C2B16382   9.515   4.283   6.584 -0.0761 -0.2240 -0.2573
 1024loPI   C3B16383   9.443   4.300   6.964 -0.0277  0.4106 -0.0541
 1024loPI   C4B16384   9.394   4.311   7.506 -0.0933  0.4635  0.0178
 1025loPI    C116385   3.616  15.836   5.499 -0.1560 -0.0597  0.2768
 1025loPI    C216386   3.728  16.218   5.542  0.0003 -0.0534 -0.1407
 1025loPI    C316387   3.431  16.123   5.290 -0.1975 -0.1868  0.1370
 1025loPI   PO416388   3.568  15.749   5.791 -0.1016 -0.2310 -0.5401
 1025loPI   GL116389   3.634  15.983   6.143 -0.0179 -0.3347 -0.1255
 1025loPI   GL216390   3.530  15.696   6.264 -0.0372  0.2548  0.0238
 1025loPI   C1A16391   3.708  16.124   6.417  0.2399  0.0932  0.0069
 1025loPI   C2A16392   3.747  16.105   6.780 -0.1194 -0.2282  0.0885
 1025loPI   C3A16393   3.741  16.112   7.227  0.1001 -0.0098  0.1567
 1025loPI   C4A16394   3.744  16.132   7.712  0.0218 -0.0050 -0.0050
 1025loPI   C5A16395   3.776  16.148   8.143 -0.2557 -0.1575 -0.0556
 1025loPI   C6A16396   3.726  15.963   8.504  0.0790  0.2351 -0.0600
 1025loPI   C1B16397   3.614  15.594   6.702 -0.0426 -0.2459 -0.0431
 1025loPI   C2B16398   3.523  15.662   7.100  0.0395  0.1609  0.5151
 1025loPI   C3B16399   3.599  15.682   7.504  0.0233 -0.1692 -0.1425
 1025loPI   C4B16400   3.558  15.702   7.999  0.1562 -0.0947  0.3962
 1026loPI    C116401  13.016   3.359   6.191  0.1804  0.0038 -0.3600
 1026loPI    C216402  12.618   3.337   6.155  0.1662 -0.2234 -0.1003
 1026loPI    C316403  12.853   3.124   5.912  0.1256 -0.2040 -0.1566
 1026loPI   PO416404  12.986   3.329   6.513 -0.0996 -0.0693 -0.2468
 1026loPI   GL116405  12.720   3.433   6.836  0.0031 -0.1954  0.0793
 1026loPI   GL216406  12.786   3.008   6.865  0.0044  0.1121 -0.0644
 1026loPI   C1A16407  12.582   3.436   7.236 -0.0625 -0.1202 -0.0311
 1026loPI   C2A16408  12.358   3.305   7.539  0.0617  0.3903 -0.0260
 1026loPI   C3A16409  12.015   3.384   7.770  0.0997  0.0331  0.1782
 1026loPI   C4A16410  11.620   3.200   7.895  0.0354  0.0693 -0.1911
 1026loPI   C5A16411  11.418   2.901   8.103  0.1723 -0.0229 -0.0658
 1026loPI   C6A16412  11.358   2.562   8.420 -0.1269  0.0503 -0.1662
 1026loPI   C1B16413  12.363   3.030   7.059 -0.2675  0.2797  0.0527
 1026loPI   C2B16414  12.193   2.819   7.402  0.2196 -0.1301  0.0262
 1026loPI   C3B16415  11.935   2.831   7.656 -0.1841 -0.0454  0.2551
 1026loPI   C4B16416  11.848   2.581   7.961 -0.1969  0.0126 -0.0598
 1027loPI    C116417   2.851   9.345   5.311 -0.2219 -0.1692  0.0493
 1027loPI    C216418   3.179   9.402   5.090 -0.1989 -0.0853  0.1050
 1027loPI    C316419   2.842   9.598   5.002 -0.2968 -0.3344 -0.0855
 1027loPI   PO416420   2.929   9.424   5.525 -0.1351 -0.2874 -0.0979
 1027loPI   GL116421   2.938   9.332   5.977  0.4163 -0.2785  0.0490
 1027loPI   GL216422   3.186   9.395   5.951  0.2131  0.1158  0.0343
 1027loPI   C1A16423   2.884   9.377   6.420 -0.0225  0.1705  0.0562
 1027loPI   C2A16424   2.866   9.377   6.859  0.2446  0.0034  0.3412
 1027loPI   C3A16425   2.780   9.429   7.281  0.0398  0.6045 -0.2848
 1027loPI   C4A16426   2.800   9.360   7.650 -0.1583 -0.3713 -0.2247
 1027loPI   C5A16427   2.662   9.345   8.030 -0.3502 -0.2556  0.1411
 1027loPI   C6A16428   2.663   9.437   8.482  0.1900  0.2233  0.1195
 1027loPI   C1B16429   3.394   9.442   6.367 -0.1945 -0.1036 -0.0583
 1027loPI   C2B16430   3.392   9.483   6.843  0.1962  0.1797 -0.1856
 1027loPI   C3B16431   3.322   9.413   7.313  0.0894 -0.3729 -0.1281
 1027loPI   C4B16432   3.268   9.353   7.823 -0.0591  0.0287  0.5247
 1028loPI    C116433  16.406   4.651   5.390 -0.2442  0.3027  0.0469
 1028loPI    C216434  16.718   4.881   5.293 -0.1233  0.1271  0.0139
 1028loPI    C316435  16.505   4.702   5.006 -0.0082 -0.0743  0.0530
 1028loPI   PO416436  16.310   4.765   5.605 -0.1101 -0.1024 -0.2804
 1028loPI   GL116437  16.061   4.528   6.020 -0.0604  0.0399 -0.3414
 1028loPI   GL216438  16.159   4.735   6.098  0.0484  0.3871 -0.0803
 1028loPI   C1A16439  16.075   4.335   6.474  0.1595 -0.0694 -0.0031
 1028loPI   C2A16440  16.025   4.391   6.878  0.0892  0.1652 -0.1800
 1028loPI   C3A16441  15.966   4.354   7.377  0.1305  0.3812  0.5313
 1028loPI   C4A16442  16.031   4.338   7.806  0.1748 -0.0404 -0.2306
 1028loPI   C5A16443  15.949   4.364   8.265 -0.0847 -0.1360 -0.1040
 1028loPI   C6A16444  16.170   4.426   8.575  0.1373  0.2712  0.0105
 1028loPI   C1B16445  16.188   4.839   6.579  0.0104  0.0386 -0.0301
 1028loPI   C2B16446  16.185   4.832   7.065 -0.0428  0.0901 -0.0877
 1028loPI   C3B16447  16.243   4.915   7.393  0.0107 -0.1167 -0.1934
 1028loPI   C4B16448  16.198   4.879   7.849  0.0141  0.0199  0.0792
 1029loPI    C116449   0.177   6.013   5.360  0.1417 -0.1143 -0.0534
 1029loPI    C216450   0.484   5.808   5.205  0.2325  0.1475 -0.2273
 1029loPI    C316451   0.172   5.906   4.975  0.1304  0.0948 -0.1127
 1029loPI   PO416452   0.292   6.146   5.549 -0.1474 -0.0485  0.2172
 1029loPI   GL116453   0.439   6.162   5.966  0.2870  0.0900  0.2176
 1029loPI   GL216454   0.475   5.880   6.189  0.1118 -0.1567 -0.0858
 1029loPI   C1A16455   0.545   6.344   6.345  0.2995 -0.0806  0.1467
 1029loPI   C2A16456   0.577   6.431   6.737 -0.0870  0.0310 -0.1678
 1029loPI   C3A16457   0.576   6.434   7.204 -0.0283 -0.0638 -0.2475
 1029loPI   C4A16458   0.550   6.521   7.620 -0.0378  0.1007 -0.2319
 1029loPI   C5A16459   0.549   6.532   8.019  0.2346  0.0996  0.0284
 1029loPI   C6A16460   0.410   6.272   8.472  0.0591  0.1434  0.2681
 1029loPI   C1B16461   0.404   5.870   6.632 -0.1407 -0.1876 -0.0807
 1029loPI   C2B16462   0.387   5.920   7.146  0.2032 -0.0021 -0.1200
 1029loPI   C3B16463   0.400   5.963   7.546 -0.1223 -0.1670 -0.2038
 1029loPI   C4B16464   0.389   6.022   7.962  0.0431 -0.3045  0.0099
 1030loPI    C116465   1.761   5.407   5.368 -0.0694 -0.2060 -0.1511
 1030loPI    C216466   2.044   5.340   5.093  0.2414  0.2785  0.0370
 1030loPI    C316467   1.762   5.617   5.027  0.1492  0.1982  0.0908
 1030loPI   PO416468   1.802   5.503   5.542  0.3163 -0.3877 -0.2588
 1030loPI   GL116469   1.953   5.599   5.963 -0.0053  0.0809 -0.0162
 1030loPI   GL216470   2.257   5.587   5.866  0.1793 -0.2098 -0.0192
 1030loPI   C1A16471   1.794   5.645   6.374 -0.0942 -0.1195  0.1586
 1030loPI   C2A16472   1.639   5.615   6.824  0.3499  0.0575 -0.4369
 1030loPI   C3A16473   1.693   5.695   7.252  0.0750  0.0790 -0.1225
 1030loPI   C4A16474   1.607   5.718   7.777 -0.1572  0.1462 -0.0194
 1030loPI   C5A16475   1.666   5.757   8.174  0.3129 -0.0308 -0.0136
 1030loPI   C6A16476   1.331   5.981   8.453  0.1272 -0.1069 -0.1567
 1030loPI   C1B16477   2.334   5.685   6.313  0.0106 -0.1836 -0.1249
 1030loPI   C2B16478   2.204   5.645   6.710  0.3588  0.0893  0.0621
 1030loPI   C3B16479   2.188   5.655   7.165 -0.1547 -0.0869 -0.3786
 1030loPI   C4B16480   2.202   5.710   7.538  0.3603 -0.2934 -0.1010
 1031loPI    C116481   1.866  14.572   5.457 -0.0647  0.1712  0.1231
 1031loPI    C216482   1.563  14.796   5.323 -0.1026 -0.0438 -0.1616
 1031loPI    C316483   1.707  14.499   5.097  0.0496 -0.2078  0.1444
 1031loPI   PO416484   1.851  14.494   5.678  0.0385 -0.0396 -0.1985
 1031loPI   GL116485   1.699  14.183   5.976 -0.2064 -0.1465 -0.0399
 1031loPI   GL216486   1.574  14.521   6.187  0.3825  0.3602 -0.1550
 1031loPI   C1A16487   1.938  14.216   6.336  0.2308  0.1966 -0.2500
 1031loPI   C2A16488   1.963  14.193   6.800  0.2266 -0.3702  0.1479
 1031loPI   C3A16489   1.890  14.163   7.174 -0.0037  0.1447  0.1794
 1031loPI   C4A16490   1.971  14.115   7.530 -0.0485 -0.1143 -0.1987
 1031loPI   C5A16491   1.851  14.181   8.050  0.1269 -0.0343 -0.2001
 1031loPI   C6A16492   1.471  14.077   8.241  0.0334 -0.3428 -0.4918
 1031loPI   C1B16493   1.591  14.484   6.617  0.3014 -0.0735 -0.0113
 1031loPI   C2B16494   1.524  14.568   7.083  0.0054 -0.0832 -0.1065
 1031loPI   C3B16495   1.610  14.560   7.484 -0.0801  0.0915 -0.1650
 1031loPI   C4B16496   1.578  14.550   7.925  0.2044 -0.0236 -0.4545
 1032loPI    C116497  13.435  10.058   5.585  0.0972 -0.2167 -0.1073
 1032loPI    C216498  13.255   9.746   5.412 -0.0374 -0.2176  0.0323
 1032loPI    C316499  13.403  10.042   5.187 -0.1203 -0.2676 -0.0889
 1032loPI   PO416500  13.493   9.993   5.780  0.0777 -0.1480  0.1021
 1032loPI   GL116501  13.642   9.984   6.190 -0.2907  0.2926 -0.2146
 1032loPI   GL216502  13.419  10.219   6.326 -0.2107  0.2578  0.1289
 1032loPI   C1A16503  13.558   9.844   6.553  0.0322 -0.1881 -0.1598
 1032loPI   C2A16504  13.495   9.703   6.923 -0.0009 -0.2609 -0.1151
 1032loPI   C3A16505  13.397   9.780   7.320  0.1043 -0.1649 -0.1761
 1032loPI   C4A16506  13.456   9.867   7.813 -0.0939 -0.1117 -0.1733
 1032loPI   C5A16507  13.380   9.851   8.215  0.0885  0.1234 -0.2787
 1032loPI   C6A16508  13.445   9.797   8.584 -0.0938 -0.0495  0.3713
 1032loPI   C1B16509  13.257  10.179   6.779 -0.0498 -0.1389  0.2128
 1032loPI   C2B16510  13.192  10.218   7.232  0.2416  0.3525  0.1655
 1032loPI   C3B16511  13.186  10.257   7.700 -0.3831 -0.1398 -0.3115
 1032loPI   C4B16512  13.133  10.280   8.226 -0.1709  0.0371 -0.0684
 1033loPI    C116513   8.566   9.608   5.455 -0.0198 -0.1199  0.1640
 1033loPI    C216514   8.191   9.741   5.412  0.0429  0.0049 -0.0084
 1033loPI    C316515   8.346   9.490   5.142 -0.0257 -0.3093  0.2383
 1033loPI   PO416516   8.695   9.786   5.519 -0.2040 -0.0872  0.1534
 1033loPI   GL116517   8.781   9.868   5.934 -0.3322  0.2565 -0.1562
 1033loPI   GL216518   8.550   9.968   6.145 -0.0398 -0.0020 -0.1070
 1033loPI   C1A16519   8.704   9.582   6.439  0.3179 -0.0025  0.2600
 1033loPI   C2A16520   8.729   9.517   6.874  0.0591 -0.1082  0.1486
 1033loPI   C3A16521   8.658   9.682   7.213 -0.5604 -0.2842 -0.5120
 1033loPI   C4A16522   8.598   9.702   7.598  0.0394  0.0574  0.0431
 1033loPI   C5A16523   8.630   9.624   8.042 -0.2950 -0.2843 -0.1167
 1033loPI   C6A16524   8.533   9.890   8.400  0.0441 -0.1866  0.0101
 1033loPI   C1B16525   8.314  10.111   6.512 -0.0090 -0.0065  0.1194
 1033loPI   C2B16526   8.384  10.041   6.997 -0.3426 -0.2817  0.3116
 1033loPI   C3B16527   8.367  10.077   7.428  0.5048 -0.0809 -0.0654
 1033loPI   C4B16528   8.400  10.072   7.953  0.0077 -0.0571  0.1399
 1034loPI    C116529  15.782  12.428   6.224 -0.0899  0.0971 -0.0369
 1034loPI    C216530  15.731  12.258   5.865  0.1462 -0.0880  0.0144
 1034loPI    C316531  16.012  12.539   5.916  0.1197 -0.0693  0.0565
 1034loPI   PO416532  15.487  12.331   6.381  0.3109 -0.1033  0.0059
 1034loPI   GL116533  15.308  12.165   6.720  0.0274  0.1267 -0.0452
 1034loPI   GL216534  15.604  12.003   6.738  0.0903  0.1419 -0.2520
 1034loPI   C1A16535  15.562  12.247   7.202  0.1231 -0.3599  0.0817
 1034loPI   C2A16536  15.593  12.315   7.634 -0.0989  0.2897 -0.1404
 1034loPI   C3A16537  15.944  12.381   7.855  0.0550  0.0008 -0.1449
 1034loPI   C4A16538  16.355  12.382   7.730  0.2148 -0.2566 -0.0017
 1034loPI   C5A16539  16.514  12.424   7.345 -0.2771 -0.0986 -0.1843
 1034loPI   C6A16540  16.527  12.391   6.916  0.0243  0.1934 -0.2654
 1034loPI   C1B16541  15.326  11.851   7.195  0.0254 -0.0342 -0.0666
 1034loPI   C2B16542  15.264  11.650   7.578 -0.1747 -0.2840  0.1394
 1034loPI   C3B16543  15.246  11.424   8.011  0.0717  0.0635  0.1952
 1034loPI   C4B16544  15.028  11.064   8.132 -0.1230  0.0058 -0.1407
 1035loPI    C116545  11.511  11.412   5.367 -0.1226 -0.0491  0.2728
 1035loPI    C216546  11.880  11.566   5.357 -0.1549  0.0186  0.0773
 1035loPI    C316547  11.829  11.171   5.394 -0.0630  0.0098  0.1120
 1035loPI   PO416548  11.396  11.523   5.554 -0.0906 -0.0412  0.0990
 1035loPI   GL116549  11.324  11.520   5.923  0.0219  0.0324  0.1516
 1035loPI   GL216550  11.294  11.322   6.090  0.0823 -0.3589 -0.0790
 1035loPI   C1A16551  11.434  11.744   6.318  0.0373 -0.1057  0.0747
 1035loPI   C2A16552  11.500  11.831   6.753  0.2100  0.0944 -0.1290
 1035loPI   C3A16553  11.469  11.798   7.223 -0.0711 -0.0815 -0.1244
 1035loPI   C4A16554  11.429  11.906   7.636 -0.0264  0.0597 -0.0013
 1035loPI   C5A16555  11.434  11.732   8.106  0.1922 -0.0144 -0.0059
 1035loPI   C6A16556  11.384  11.659   8.482  0.1679  0.0056 -0.0383
 1035loPI   C1B16557  11.277  11.305   6.508 -0.0170 -0.2067  0.0592
 1035loPI   C2B16558  11.283  11.348   6.845 -0.2803  0.4353  0.0747
 1035loPI   C3B16559  11.278  11.378   7.385 -0.2712 -0.0833  0.1682
 1035loPI   C4B16560  11.230  11.314   7.775  0.0681  0.2646 -0.0218
 1036loPI    C116561   9.003   0.674   5.762 -0.2373  0.0030 -0.1684
 1036loPI    C216562   9.087   0.286   5.713 -0.1152 -0.0285  0.2537
 1036loPI    C316563   9.248   0.558   5.468  0.1286 -0.2089  0.2099
 1036loPI   PO416564   9.014   0.689   6.027 -0.0186  0.2528  0.0220
 1036loPI   GL116565   9.025   0.943   6.406  0.1725 -0.1638 -0.0073
 1036loPI   GL216566   8.931   0.614   6.493  0.4015  0.3179  0.1587
 1036loPI   C1A16567   9.068   1.013   6.793 -0.1657 -0.0626  0.2775
 1036loPI   C2A16568   8.952   1.095   7.192  0.0749 -0.0021 -0.1289
 1036loPI   C3A16569   9.143   0.994   7.629 -0.0820  0.0922 -0.1948
 1036loPI   C4A16570   9.070   1.008   8.027  0.1381  0.1672  0.1822
 1036loPI   C5A16571   8.754   0.959   8.384 -0.2509 -0.2560  0.0487
 1036loPI   C6A16572   8.577   0.763   8.661 -0.0508  0.2698  0.0469
 1036loPI   C1B16573   8.863   0.661   6.965 -0.3775 -0.2863  0.2811
 1036loPI   C2B16574   8.808   0.575   7.340  0.3082 -0.1183  0.0502
 1036loPI   C3B16575   8.755   0.624   7.744  0.0373 -0.0628 -0.1922
 1036loPI   C4B16576   8.954   0.510   8.162 -0.2068 -0.4003  0.3329
 1037loPI    C116577   8.436  13.007   5.128 -0.0799 -0.1429  0.1848
 1037loPI    C216578   8.786  13.166   5.019 -0.0874  0.0070  0.3740
 1037loPI    C316579   8.693  12.793   4.909  0.0255  0.0533  0.1141
 1037loPI   PO416580   8.418  13.037   5.356 -0.4224  0.2890  0.1382
 1037loPI   GL116581   8.475  12.959   5.840 -0.3437  0.0427 -0.1448
 1037loPI   GL216582   8.477  13.215   5.918  0.3304 -0.1816  0.5486
 1037loPI   C1A16583   8.614  12.838   6.230 -0.1960  0.0450 -0.0189
 1037loPI   C2A16584   8.625  12.765   6.656  0.1842  0.0657 -0.1426
 1037loPI   C3A16585   8.535  12.770   7.025 -0.0674 -0.1687  0.4252
 1037loPI   C4A16586   8.468  12.863   7.430 -0.0349 -0.0302  0.0405
 1037loPI   C5A16587   8.574  12.829   7.831  0.1976 -0.2159 -0.0444
 1037loPI   C6A16588   8.525  12.676   8.151 -0.1409  0.0438  0.3597
 1037loPI   C1B16589   8.298  13.190   6.351  0.0907  0.1057  0.0484
 1037loPI   C2B16590   8.256  13.230   6.884  0.1277  0.1181 -0.0316
 1037loPI   C3B16591   8.191  13.283   7.305 -0.3148 -0.3082 -0.1829
 1037loPI   C4B16592   8.192  13.146   7.682  0.1544 -0.0247  0.1972
 1038loPI    C116593  10.918   1.441   5.739 -0.0211  0.1212  0.1134
 1038loPI    C216594  10.812   1.063   5.814  0.0098  0.1414  0.2624
 1038loPI    C316595  10.995   1.155   5.471 -0.0569  0.0324  0.1972
 1038loPI   PO416596  10.984   1.571   5.927  0.3603  0.0825 -0.1138
 1038loPI   GL116597  11.092   1.358   6.291  0.2797 -0.0317  0.0583
 1038loPI   GL216598  10.751   1.336   6.253 -0.0280 -0.0105  0.2234
 1038loPI   C1A16599  11.333   1.501   6.681 -0.1658 -0.1494 -0.4021
 1038loPI   C2A16600  11.169   1.298   7.056 -0.0531  0.2107  0.3214
 1038loPI   C3A16601  11.000   1.252   7.507 -0.0650 -0.0929  0.1436
 1038loPI   C4A16602  11.062   1.434   7.953 -0.0606 -0.1197 -0.0565
 1038loPI   C5A16603  11.257   1.768   8.025 -0.1468 -0.2289 -0.0764
 1038loPI   C6A16604  11.321   2.207   8.061  0.1081  0.1521  0.1839
 1038loPI   C1B16605  10.616   1.263   6.566  0.0325  0.2839 -0.0993
 1038loPI   C2B16606  10.507   0.866   6.707 -0.0555 -0.1613 -0.0253
 1038loPI   C3B16607  10.379   0.684   7.162  0.1665 -0.0135 -0.0496
 1038loPI   C4B16608  10.230   0.732   7.468  0.2133 -0.0074 -0.0332
 1039loPI    C116609   0.765  15.428   5.844 -0.0956  0.1365 -0.0022
 1039loPI    C216610   0.959  15.692   5.615 -0.1240  0.1297 -0.0342
 1039loPI    C316611   0.826  15.350   5.457  0.0590  0.0207  0.0441
 1039loPI   PO416612   0.882  15.338   6.007  0.0869 -0.2115  0.0347
 1039loPI   GL116613   0.989  15.278   6.357 -0.0234 -0.0432 -0.4867
 1039loPI   GL216614   1.225  15.425   6.405 -0.0134 -0.2390  0.2424
 1039loPI   C1A16615   0.986  15.329   6.777  0.2149 -0.0995  0.1966
 1039loPI   C2A16616   0.973  15.338   7.214 -0.0073 -0.1488  0.1194
 1039loPI   C3A16617   0.991  15.326   7.651  0.1214 -0.0793 -0.1026
 1039loPI   C4A16618   0.963  15.347   8.034 -0.1828 -0.0130  0.1133
 1039loPI   C5A16619   0.804  15.405   8.366 -0.1112 -0.0996 -0.1475
 1039loPI   C6A16620   0.821  15.298   8.805 -0.1390 -0.2020  0.0717
 1039loPI   C1B16621   1.450  15.433   6.847  0.1702  0.2097 -0.0254
 1039loPI   C2B16622   1.483  15.439   7.255 -0.0880  0.1228 -0.0393
 1039loPI   C3B16623   1.503  15.418   7.673  0.0333  0.2346 -0.0602
 1039loPI   C4B16624   1.468  15.443   8.131  0.1231  0.0257  0.0274
 1040loPI    C116625   1.055  17.053   5.512 -0.1079 -0.0591 -0.1428
 1040loPI    C216626   1.132  17.259   5.178  0.1806 -0.1588 -0.1410
 1040loPI    C316627   0.921  16.919   5.160 -0.3780  0.1735 -0.1322
 1040loPI   PO416628   0.987  17.286   5.706  0.5918  0.3792 -0.3139
 1040loPI   GL116629   0.716  17.490   6.060  0.1475 -0.1368 -0.1197
 1040loPI   GL216630   1.029  17.571   6.152  0.0758 -0.0665  0.0893
 1040loPI   C1A16631   0.591  17.404   6.389 -0.1404 -0.3289  0.1357
 1040loPI   C2A16632   0.454  17.504   6.812  0.1620  0.0672 -0.2605
 1040loPI   C3A16633   0.542  17.452   7.184  0.1965 -0.0152 -0.4666
 1040loPI   C4A16634   0.495  17.472   7.606 -0.0581  0.1013 -0.1384
 1040loPI   C5A16635   0.374  17.574   8.017  0.0119 -0.0091 -0.2237
 1040loPI   C6A16636   0.468  17.618   8.493  0.0153 -0.1836  0.1743
 1040loPI   C1B16637   1.045  17.546   6.577  0.0444 -0.0017  0.4415
 1040loPI   C2B16638   0.958  17.507   6.967 -0.0495 -0.1207  0.0045
 1040loPI   C3B16639   0.994  17.554   7.295 -0.1318  0.0213  0.0677
 1040loPI   C4B16640   1.033  17.558   7.716 -0.1748  0.3020 -0.2497
 1041loPI    C116641  16.965  10.459   5.646 -0.0450  0.1473 -0.0011
 1041loPI    C216642  16.710  10.470   5.338 -0.0035 -0.0723 -0.0445
 1041loPI    C316643  16.772  10.127   5.535 -0.1461  0.0997  0.3084
 1041loPI   PO416644  16.890  10.649   5.793 -0.2758 -0.3418  0.1762
 1041loPI   GL116645  16.982  10.798   6.143  0.1076 -0.0632  0.2198
 1041loPI   GL216646  16.766  10.559   6.377  0.0354 -0.1417 -0.1276
 1041loPI   C1A16647  17.162  10.838   6.532 -0.0193 -0.2995  0.1583
 1041loPI   C2A16648  17.273  10.666   6.925  0.0086 -0.2016 -0.1447
 1041loPI   C3A16649  17.259  10.703   7.351 -0.3341 -0.2945  0.2274
 1041loPI   C4A16650  17.196  10.669   7.703  0.1153 -0.2426 -0.0305
 1041loPI   C5A16651  17.240  10.824   8.078 -0.0251 -0.1856  0.0562
 1041loPI   C6A16652  17.339  10.986   8.480 -0.1165 -0.2097  0.1776
 1041loPI   C1B16653  16.762  10.591   6.761 -0.0142  0.0059  0.1571
 1041loPI   C2B16654  16.776  10.621   7.098 -0.2441 -0.0667  0.2427
 1041loPI   C3B16655  16.780  10.616   7.458  0.1727 -0.0771  0.0206
 1041loPI   C4B16656  16.709  10.710   7.857 -0.2746 -0.0733  0.1383
 1042loPI    C116657   4.413  12.980   5.257 -0.1073 -0.3539  0.3256
 1042loPI    C216658   4.067  12.983   5.058  0.1269  0.1680 -0.1011
 1042loPI    C316659   4.345  12.709   4.972 -0.0535 -0.0586  0.0255
 1042loPI   PO416660   4.266  13.017   5.585  0.1060 -0.0800 -0.2556
 1042loPI   GL116661   4.369  13.173   6.032 -0.1053 -0.0810 -0.0834
 1042loPI   GL216662   4.103  13.115   6.089 -0.2490 -0.0834 -0.0383
 1042loPI   C1A16663   4.436  13.202   6.484  0.0179  0.0069 -0.0651
 1042loPI   C2A16664   4.433  13.176   6.909  0.2148  0.0647 -0.0796
 1042loPI   C3A16665   4.336  13.177   7.403 -0.0479  0.0413 -0.0846
 1042loPI   C4A16666   4.351  13.037   7.746  0.0341 -0.3451  0.0539
 1042loPI   C5A16667   4.283  12.965   8.202 -0.1127  0.2527  0.2768
 1042loPI   C6A16668   4.068  12.991   8.501  0.3780 -0.3664 -0.1546
 1042loPI   C1B16669   3.928  13.114   6.534  0.2027  0.1061 -0.0555
 1042loPI   C2B16670   3.945  13.102   6.985 -0.0841  0.0955 -0.2667
 1042loPI   C3B16671   3.836  12.966   7.445  0.1057 -0.0543  0.3009
 1042loPI   C4B16672   3.803  12.887   7.976 -0.0626  0.0118  0.1379
 1043loPI    C116673  13.766  14.144   5.718  0.1600  0.0151  0.0053
 1043loPI    C216674  13.961  14.454   5.557  0.0541  0.0171 -0.1212
 1043loPI    C316675  13.878  14.132   5.334  0.0982 -0.0719 -0.0104
 1043loPI   PO416676  13.645  14.248   5.876 -0.1904  0.1883 -0.3047
 1043loPI   GL116677  13.867  14.198   6.245  0.1848  0.0951  0.2476
 1043loPI   GL216678  13.815  13.931   6.437 -0.0346 -0.0710 -0.0590
 1043loPI   C1A16679  13.973  14.397   6.643  0.1405 -0.1445 -0.5004
 1043loPI   C2A16680  13.923  14.364   7.190  0.0472  0.0628  0.1169
 1043loPI   C3A16681  13.939  14.406   7.567 -0.2533  0.1501 -0.3424
 1043loPI   C4A16682  14.006  14.354   7.979 -0.0594  0.0781 -0.3443
 1043loPI   C5A16683  14.159  14.332   8.402 -0.1600  0.1950  0.1147
 1043loPI   C6A16684  14.269  14.049   8.677  0.0875 -0.0694 -0.2088
 1043loPI   C1B16685  13.735  13.899   6.944 -0.5352 -0.4003 -0.0846
 1043loPI   C2B16686  13.740  13.902   7.436  0.0145 -0.0344  0.3087
 1043loPI   C3B16687  13.763  13.881   7.970  0.1033 -0.0299  0.1136
 1043loPI   C4B16688  13.851  13.985   8.349 -0.0861 -0.3458  0.0622
 1044loPI    C116689   5.749  13.685   5.241  0.0557 -0.0940  0.0631
 1044loPI    C216690   6.037  13.675   4.963  0.0054 -0.2279  0.0147
 1044loPI    C316691   5.881  13.334   5.101  0.0428 -0.1630  0.2220
 1044loPI   PO416692   5.758  13.822   5.532 -0.1650 -0.1196  0.1493
 1044loPI   GL116693   5.968  13.881   5.876  0.0000 -0.1645  0.0217
 1044loPI   GL216694   6.181  13.913   6.088  0.0086  0.1438  0.0696
 1044loPI   C1A16695   5.714  13.903   6.193  0.3672 -0.0300  0.2007
 1044loPI   C2A16696   5.625  13.862   6.639 -0.1954 -0.1002 -0.1049
 1044loPI   C3A16697   5.605  13.751   7.057  0.0529  0.0676  0.1720
 1044loPI   C4A16698   5.551  13.761   7.472  0.0543  0.0039  0.0658
 1044loPI   C5A16699   5.584  13.658   7.962 -0.1356 -0.2685 -0.4142
 1044loPI   C6A16700   5.387  13.595   8.420 -0.3851 -0.0760  0.1466
 1044loPI   C1B16701   6.210  13.898   6.437 -0.0514  0.0652  0.2780
 1044loPI   C2B16702   6.132  13.822   6.849  0.2950 -0.0120 -0.0228
 1044loPI   C3B16703   6.078  13.794   7.253 -0.1868 -0.3373  0.1735
 1044loPI   C4B16704   6.013  13.825   7.711 -0.0741  0.0186 -0.0222
 1045loPI    C116705   7.939   1.757   5.420 -0.1609 -0.3203  0.0044
 1045loPI    C216706   8.137   1.603   5.108  0.1292  0.1521 -0.0548
 1045loPI    C316707   8.289   1.914   5.308 -0.3333  0.2261  0.1972
 1045loPI   PO416708   7.958   1.521   5.622 -0.1330 -0.1007  0.1921
 1045loPI   GL116709   7.781   1.613   5.980 -0.0629  0.0106  0.1258
 1045loPI   GL216710   7.706   1.297   6.031  0.1383  0.0815  0.0553
 1045loPI   C1A16711   7.906   1.843   6.299 -0.1979  0.2743 -0.4887
 1045loPI   C2A16712   7.926   1.839   6.841 -0.3046 -0.0428  0.5189
 1045loPI   C3A16713   7.916   1.830   7.237  0.1411  0.0784 -0.2061
 1045loPI   C4A16714   7.905   1.903   7.612 -0.1264 -0.3402  0.2410
 1045loPI   C5A16715   7.762   1.835   8.051 -0.1139  0.0113 -0.3197
 1045loPI   C6A16716   7.909   1.716   8.428  0.1236  0.0289  0.0132
 1045loPI   C1B16717   7.735   1.312   6.522  0.1115 -0.2812  0.0089
 1045loPI   C2B16718   7.690   1.380   6.925  0.0005 -0.1984  0.2581
 1045loPI   C3B16719   7.650   1.329   7.383  0.0736  0.1010  0.1312
 1045loPI   C4B16720   7.700   1.444   7.811  0.2921  0.0692  0.3474
 1046loPI    C116721   2.544  15.061   5.538  0.0805  0.1941  0.0254
 1046loPI    C216722   2.332  15.383   5.431  0.1219  0.2826  0.2046
 1046loPI    C316723   2.549  15.186   5.159 -0.4109  0.0201 -0.0462
 1046loPI   PO416724   2.516  15.039   5.807  0.2783  0.2349 -0.3275
 1046loPI   GL116725   2.390  15.070   6.199 -0.0248  0.2087  0.0235
 1046loPI   GL216726   2.185  15.307   6.055  0.1384 -0.1992 -0.2788
 1046loPI   C1A16727   2.317  15.013   6.699 -0.1636  0.0266 -0.1979
 1046loPI   C2A16728   2.358  15.039   7.183 -0.0377  0.2132 -0.0965
 1046loPI   C3A16729   2.326  15.103   7.608 -0.0642  0.0965 -0.0123
 1046loPI   C4A16730   2.274  15.025   8.107 -0.1290  0.1068  0.0019
 1046loPI   C5A16731   2.042  14.725   8.226  0.0617  0.1452 -0.2274
 1046loPI   C6A16732   1.961  14.463   8.443 -0.2655 -0.4536  0.2379
 1046loPI   C1B16733   2.394  15.462   6.531 -0.1189  0.0234  0.1914
 1046loPI   C2B16734   2.521  15.445   6.966 -0.0597 -0.2776  0.0740
 1046loPI   C3B16735   2.572  15.504   7.470  0.0286 -0.2349  0.2151
 1046loPI   C4B16736   2.512  15.467   7.974  0.0122  0.2227 -0.1118
 1047loPI    C116737  10.385   4.089   5.341  0.0909  0.1034 -0.1320
 1047loPI    C216738  10.656   3.968   5.073  0.2008 -0.0414  0.0422
 1047loPI    C316739  10.270   3.993   4.970  0.2975  0.3202 -0.2549
 1047loPI   PO416740  10.383   4.003   5.522 -0.1274 -0.3066 -0.1304
 1047loPI   GL116741  10.286   3.981   5.976 -0.0973 -0.1261  0.0559
 1047loPI   GL216742  10.081   4.292   6.077  0.2186 -0.1581 -0.1390
 1047loPI   C1A16743  10.345   3.910   6.408 -0.2265 -0.1273  0.0991
 1047loPI   C2A16744  10.252   3.896   6.824  0.1981  0.1821  0.2307
 1047loPI   C3A16745  10.287   4.010   7.298 -0.1010 -0.2408  0.1659
 1047loPI   C4A16746  10.256   4.024   7.695  0.1525 -0.1378 -0.2454
 1047loPI   C5A16747  10.203   4.119   8.122 -0.0969  0.2034 -0.2163
 1047loPI   C6A16748  10.129   4.520   8.354 -0.0036  0.0077 -0.1068
 1047loPI   C1B16749   9.981   4.343   6.478 -0.1278 -0.1446 -0.4923
 1047loPI   C2B16750   9.964   4.365   6.905  0.3409 -0.2818  0.2841
 1047loPI   C3B16751   9.880   4.378   7.395  0.3212  0.0304 -0.3816
 1047loPI   C4B16752   9.859   4.416   7.912  0.1724  0.3662  0.1768
 1048loPI    C116753  10.098   5.729   5.283  0.1824 -0.2616  0.1472
 1048loPI    C216754  10.320   5.844   4.971 -0.1482  0.1102  0.0406
 1048loPI    C316755  10.026   5.579   4.919 -0.0412 -0.0193  0.0888
 1048loPI   PO416756  10.046   5.966   5.445 -0.2335 -0.0316  0.2229
 1048loPI   GL116757  10.041   6.259   5.716 -0.1511 -0.2915  0.1303
 1048loPI   GL216758  10.247   6.130   6.031  0.0643 -0.2228  0.0895
 1048loPI   C1A16759   9.729   6.125   6.050 -0.0142  0.1871 -0.0289
 1048loPI   C2A16760   9.671   6.112   6.540 -0.0231  0.1638 -0.0691
 1048loPI   C3A16761   9.638   6.104   7.059  0.1583 -0.0112  0.2733
 1048loPI   C4A16762   9.606   6.145   7.487  0.0027 -0.0430  0.1112
 1048loPI   C5A16763   9.680   6.186   7.893  0.0206  0.0871 -0.3428
 1048loPI   C6A16764   9.504   6.083   8.321  0.4341  0.1614  0.0707
 1048loPI   C1B16765  10.239   6.161   6.434  0.0742 -0.4191  0.1586
 1048loPI   C2B16766  10.117   6.153   6.842 -0.0306 -0.2924 -0.0232
 1048loPI   C3B16767  10.155   6.224   7.262  0.3961 -0.1611  0.3098
 1048loPI   C4B16768  10.099   6.260   7.635 -0.1021  0.0093 -0.1654
 1049loPI    C116769  12.575   0.991   5.938 -0.0582  0.1442  0.3116
 1049loPI    C216770  12.351   1.322   5.915 -0.0795  0.1096 -0.0441
 1049loPI    C316771  12.238   0.991   5.722  0.1521  0.0173 -0.0251
 1049loPI   PO416772  12.549   0.946   6.160  0.0046  0.0152 -0.2852
 1049loPI   GL116773  12.291   0.753   6.507  0.2221  0.0300 -0.0227
 1049loPI   GL216774  12.533   0.983   6.712 -0.1568  0.2146  0.0111
 1049loPI   C1A16775  12.247   0.555   6.850 -0.0578 -0.1443  0.1932
 1049loPI   C2A16776  12.278   0.549   7.212 -0.0811 -0.0158 -0.1760
 1049loPI   C3A16777  12.113   0.494   7.572  0.0024 -0.1389  0.1601
 1049loPI   C4A16778  11.973   0.553   8.036 -0.0962 -0.0493 -0.0699
 1049loPI   C5A16779  11.850   0.316   8.456 -0.0838  0.0396  0.0362
 1049loPI   C6A16780  12.213   0.107   8.774  0.3056  0.0653 -0.4303
 1049loPI   C1B16781  12.465   1.130   7.081 -0.1387 -0.1070  0.0537
 1049loPI   C2B16782  12.520   1.430   7.303 -0.0973 -0.3355 -0.0440
 1049loPI   C3B16783  12.550   1.437   7.778 -0.1245 -0.0079  0.0560
 1049loPI   C4B16784  12.306   1.495   8.111 -0.2659  0.1237 -0.2985
 1050loPI    C116785  17.541   8.753   5.342  0.2734  0.1567  0.1208
 1050loPI    C216786  17.645   8.374   5.272 -0.2682 -0.0513  0.3799
 1050loPI    C316787  17.534   8.610   4.969  0.1776 -0.0585  0.2035
 1050loPI   PO416788  17.685   8.755   5.720  0.1619  0.2641  0.2232
 1050loPI   GL116789  17.878   8.623   6.031  0.3621  0.0395 -0.1693
 1050loPI   GL216790  18.175   8.741   6.108  0.1086 -0.1746 -0.2645
 1050loPI   C1A16791  17.854   8.631   6.522  0.1466  0.0474  0.3208
 1050loPI   C2A16792  17.856   8.593   6.862  0.0454  0.0840 -0.0074
 1050loPI   C3A16793  17.767   8.570   7.323 -0.2946 -0.0399  0.0349
 1050loPI   C4A16794  17.799   8.510   7.749  0.0702  0.2574 -0.1052
 1050loPI   C5A16795  17.794   8.535   8.140  0.0915 -0.1608  0.3512
 1050loPI   C6A16796  17.747   8.633   8.532 -0.0545 -0.2555  0.1296
 1050loPI   C1B16797  18.318   8.657   6.459  0.2457  0.0795  0.1896
 1050loPI   C2B16798  18.380   8.610   6.918 -0.1106 -0.0269  0.1815
 1050loPI   C3B16799  18.270   8.649   7.295  0.0956  0.3533  0.0015
 1050loPI   C4B16800  18.306   8.556   7.634 -0.0818 -0.0602  0.1143
 1051loPI    C116801   8.729   7.172   5.224  0.0601 -0.3522  0.0408
 1051loPI    C216802   8.467   7.086   4.934  0.0377 -0.1162 -0.0111
 1051loPI    C316803   8.859   7.066   4.861  0.0319  0.0373 -0.0880
 1051loPI   PO416804   8.680   7.089   5.426 -0.0375 -0.0908  0.0110
 1051loPI   GL116805   8.751   7.149   5.827  0.2253 -0.2154 -0.0449
 1051loPI   GL216806   8.633   6.882   5.981  0.3124  0.0143  0.0494
 1051loPI   C1A16807   8.788   7.259   6.280 -0.0211  0.0900 -0.0412
 1051loPI   C2A16808   8.718   7.353   6.668  0.1514  0.0543  0.0699
 1051loPI   C3A16809   8.779   7.471   7.103 -0.0776 -0.0643  0.0148
 1051loPI   C4A16810   8.679   7.417   7.539 -0.0797  0.1241  0.2461
 1051loPI   C5A16811   8.610   7.351   7.909 -0.1145 -0.1562  0.1698
 1051loPI   C6A16812   8.430   7.484   8.234  0.1967  0.2542  0.0292
 1051loPI   C1B16813   8.585   6.770   6.378  0.0194  0.1544  0.1172
 1051loPI   C2B16814   8.508   6.928   6.806 -0.0959  0.0078 -0.0755
 1051loPI   C3B16815   8.514   6.889   7.341  0.1925  0.1642  0.0444
 1051loPI   C4B16816   8.436   6.878   7.787 -0.0450 -0.0081  0.0578
 1052loPI    C116817   6.410   9.183   5.252 -0.1787 -0.0720 -0.1971
 1052loPI    C216818   6.474   8.789   5.273 -0.0806 -0.0520 -0.1129
 1052loPI    C316819   6.617   8.999   4.963 -0.0957 -0.0756 -0.1359
 1052loPI   PO416820   6.415   9.270   5.600 -0.2350  0.2754 -0.2047
 1052loPI   GL116821   6.203   9.169   5.996  0.0284  0.1681  0.0938
 1052loPI   GL216822   6.087   8.822   6.036  0.2141 -0.1369 -0.3869
 1052loPI   C1A16823   6.194   9.152   6.472 -0.1472 -0.0756  0.0145
 1052loPI   C2A16824   6.193   9.221   6.869  0.0386  0.1446  0.0244
 1052loPI   C3A16825   6.124   9.175   7.225  0.4129 -0.1315 -0.1229
 1052loPI   C4A16826   6.244   9.269   7.603 -0.1124  0.0400 -0.4362
 1052loPI   C5A16827   6.341   8.987   8.006  0.2474 -0.3081  0.1807
 1052loPI   C6A16828   6.329   8.769   8.395 -0.3085  0.0371  0.1187
 1052loPI   C1B16829   5.936   8.663   6.367 -0.1827  0.0016 -0.0441
 1052loPI   C2B16830   5.961   8.757   6.790 -0.0707 -0.1201 -0.0777
 1052loPI   C3B16831   6.050   8.716   7.221  0.1793  0.3321  0.1431
 1052loPI   C4B16832   5.974   8.634   7.654  0.1591  0.3442  0.0046
 1053loPI    C116833  10.619   4.458   5.542  0.1488  0.0643  0.2564
 1053loPI    C216834  10.926   4.224   5.437 -0.2081 -0.2410 -0.1447
 1053loPI    C316835  10.930   4.613   5.344  0.1021 -0.2183 -0.0482
 1053loPI   PO416836  10.479   4.450   5.805 -0.1831  0.0637  0.1919
 1053loPI   GL116837  10.609   4.575   6.143 -0.0863 -0.0841  0.3206
 1053loPI   GL216838  10.647   4.325   6.305  0.0210 -0.2052  0.1697
 1053loPI   C1A16839  10.601   4.813   6.478 -0.4315  0.0131  0.2690
 1053loPI   C2A16840  10.652   4.910   6.917 -0.2545 -0.0712  0.1203
 1053loPI   C3A16841  10.619   4.907   7.280 -0.3609  0.1298  0.0266
 1053loPI   C4A16842  10.712   4.965   7.749  0.2110 -0.0201  0.0967
 1053loPI   C5A16843  10.523   5.022   8.163 -0.3279  0.1227 -0.0368
 1053loPI   C6A16844  10.622   5.043   8.563 -0.0067 -0.2226  0.2133
 1053loPI   C1B16845  10.482   4.301   6.674  0.1208 -0.4439  0.0254
 1053loPI   C2B16846  10.448   4.432   7.091  0.1850  0.0959 -0.0291
 1053loPI   C3B16847  10.511   4.479   7.544  0.0865 -0.1104  0.0701
 1053loPI   C4B16848  10.465   4.550   7.944 -0.2757  0.0192  0.1267
 1054loPI    C116849  16.224   8.301   5.574 -0.0606  0.1237  0.1747
 1054loPI    C216850  16.305   8.627   5.357 -0.0715 -0.0662 -0.1205
 1054loPI    C316851  16.450   8.271   5.246  0.0861 -0.1378  0.2959
 1054loPI   PO416852  16.344   8.310   5.801  0.4382  0.1701  0.0318
 1054loPI   GL116853  16.390   8.388   6.231  0.1233 -0.2043 -0.2349
 1054loPI   GL216854  16.745   8.393   6.211  0.1730  0.0720 -0.1778
 1054loPI   C1A16855  16.348   8.327   6.658  0.2515  0.0274  0.1934
 1054loPI   C2A16856  16.338   8.398   7.078  0.2550  0.1286 -0.1406
 1054loPI   C3A16857  16.190   8.433   7.510  0.1046 -0.1028 -0.1466
 1054loPI   C4A16858  16.201   8.283   7.997 -0.0460  0.2649 -0.2256
 1054loPI   C5A16859  16.299   8.434   8.409  0.0578  0.1008  0.3000
 1054loPI   C6A16860  16.160   8.451   8.766 -0.1087 -0.2404  0.0685
 1054loPI   C1B16861  16.843   8.450   6.591  0.2204 -0.0482 -0.1928
 1054loPI   C2B16862  16.872   8.466   6.960 -0.0868 -0.1475 -0.1453
 1054loPI   C3B16863  16.809   8.420   7.409 -0.1982 -0.2493 -0.1709
 1054loPI   C4B16864  16.738   8.424   7.902 -0.1301 -0.1575  0.0384
 1055loPI    C116865  14.402   3.703   5.553 -0.1716 -0.1414  0.0415
 1055loPI    C216866  14.109   3.959   5.460  0.0648  0.0582 -0.1686
 1055loPI    C316867  14.464   3.986   5.276  0.1923 -0.2278  0.0292
 1055loPI   PO416868  14.448   3.718   5.810 -0.0212 -0.0041 -0.1573
 1055loPI   GL116869  14.653   3.842   6.127 -0.1332  0.1988  0.1184
 1055loPI   GL216870  14.532   4.126   6.289  0.0235  0.0312  0.2063
 1055loPI   C1A16871  14.783   3.760   6.557  0.1812 -0.1415 -0.2041
 1055loPI   C2A16872  14.779   3.760   7.009 -0.0351  0.1644 -0.0299
 1055loPI   C3A16873  14.782   3.883   7.498  0.2387  0.1131 -0.2138
 1055loPI   C4A16874  14.704   3.873   7.892 -0.2659 -0.1329  0.0696
 1055loPI   C5A16875  14.630   3.963   8.371 -0.0634 -0.1166  0.2830
 1055loPI   C6A16876  14.659   3.965   8.826 -0.1730 -0.0878  0.0855
 1055loPI   C1B16877  14.513   4.146   6.782 -0.1213 -0.0370  0.2453
 1055loPI   C2B16878  14.570   4.193   7.169  0.4347  0.2913  0.1211
 1055loPI   C3B16879  14.390   4.181   7.632  0.0068 -0.0887  0.2859
 1055loPI   C4B16880  14.304   4.271   8.053  0.3503  0.0506  0.2589
 1056loPI    C116881  17.202   0.225   5.457  0.1619 -0.0519 -0.0502
 1056loPI    C216882  17.046   0.576   5.343  0.1763 -0.0363 -0.0226
 1056loPI    C316883  17.216   0.335   5.073  0.0772 -0.0674 -0.0579
 1056loPI   PO416884  17.201   0.287   5.748 -0.0134  0.0815  0.0168
 1056loPI   GL116885  16.958   0.366   6.099  0.0506 -0.2747 -0.2588
 1056loPI   GL216886  16.926  -0.056   6.180 -0.2640  0.0165  0.1539
 1056loPI   C1A16887  17.059   0.556   6.483 -0.1840 -0.1025 -0.0982
 1056loPI   C2A16888  17.119   0.523   6.817 -0.0559  0.2889 -0.0518
 1056loPI   C3A16889  17.100   0.467   7.214  0.0427  0.1250  0.0141
 1056loPI   C4A16890  17.166   0.488   7.644 -0.0165  0.2843 -0.0246
 1056loPI   C5A16891  17.170   0.462   8.079 -0.0831 -0.0994 -0.3274
 1056loPI   C6A16892  17.006   0.402   8.530 -0.0596  0.0553 -0.1319
 1056loPI   C1B16893  16.911   0.042   6.596  0.1128  0.0180 -0.0028
 1056loPI   C2B16894  16.888   0.048   6.989 -0.2280  0.1887 -0.2777
 1056loPI   C3B16895  16.899   0.074   7.449 -0.3964 -0.5039 -0.0706
 1056loPI   C4B16896  16.908   0.049   7.902  0.1097 -0.0837 -0.1015
 1057loPI    C116897   9.726  13.577   5.179 -0.1091  0.0936 -0.2800
 1057loPI    C216898   9.902  13.221   5.135 -0.2765 -0.0223 -0.0358
 1057loPI    C316899  10.081  13.551   4.996 -0.1581 -0.2086 -0.3367
 1057loPI   PO416900   9.623  13.572   5.560  0.2513 -0.0607 -0.0098
 1057loPI   GL116901   9.803  13.908   5.897  0.3140 -0.0489 -0.0319
 1057loPI   GL216902   9.895  13.500   5.961 -0.1619 -0.1210  0.2731
 1057loPI   C1A16903  10.056  13.987   6.306  0.2303 -0.3032 -0.3118
 1057loPI   C2A16904  10.040  13.940   6.735  0.1542 -0.2890 -0.1799
 1057loPI   C3A16905   9.959  13.953   7.164  0.3010 -0.1810  0.0076
 1057loPI   C4A16906   9.949  13.934   7.651  0.1944  0.1936  0.1249
 1057loPI   C5A16907   9.817  13.794   8.005  0.3236  0.0243  0.3502
 1057loPI   C6A16908   9.564  13.635   8.148 -0.1466  0.3151  0.0336
 1057loPI   C1B16909   9.861  13.369   6.325 -0.0682  0.0879 -0.0500
 1057loPI   C2B16910   9.781  13.383   6.765  0.3158  0.0243  0.2564
 1057loPI   C3B16911   9.694  13.495   7.217  0.0868 -0.0211 -0.1434
 1057loPI   C4B16912   9.687  13.395   7.662 -0.2963  0.2499 -0.1049
 1058loPI    C116913   2.431   6.244   5.186  0.3451  0.0117  0.3450
 1058loPI    C216914   2.519   5.894   5.012 -0.0619 -0.0213  0.1943
 1058loPI    C316915   2.707   6.228   4.897 -0.1589 -0.0810 -0.1491
 1058loPI   PO416916   2.315   6.195   5.421 -0.2499  0.0384  0.0677
 1058loPI   GL116917   2.158   6.082   5.842  0.0101  0.0781 -0.0486
 1058loPI   GL216918   2.332   6.179   6.185 -0.4178  0.0191 -0.0329
 1058loPI   C1A16919   1.854   6.134   6.168  0.3228  0.1489  0.2029
 1058loPI   C2A16920   1.874   6.077   6.583 -0.0771  0.3047 -0.0911
 1058loPI   C3A16921   1.955   6.081   7.003 -0.1194  0.1400  0.1389
 1058loPI   C4A16922   1.801   6.154   7.406 -0.0204 -0.1094  0.0457
 1058loPI   C5A16923   1.938   6.097   7.834  0.2161  0.0700 -0.0465
 1058loPI   C6A16924   1.987   6.083   8.252 -0.1886  0.0699  0.1595
 1058loPI   C1B16925   2.364   6.095   6.696 -0.0906 -0.0275 -0.0459
 1058loPI   C2B16926   2.455   6.079   7.093 -0.1180 -0.3034  0.1957
 1058loPI   C3B16927   2.375   6.194   7.466 -0.0274 -0.3413  0.0933
 1058loPI   C4B16928   2.455   6.088   7.942  0.1051 -0.1801 -0.0124
 1059loPI    C116929  10.628  14.538   5.783  0.2293 -0.0027  0.1136
 1059loPI    C216930  10.856  14.573   5.457  0.1504 -0.1591  0.0406
 1059loPI    C316931  10.684  14.222   5.544 -0.0175 -0.0571  0.1244
 1059loPI   PO416932  10.730  14.683   5.961 -0.0117 -0.0038  0.0677
 1059loPI   GL116933  10.572  14.839   6.304  0.0465 -0.0963 -0.1628
 1059loPI   GL216934  10.265  14.916   6.318 -0.0526  0.0659 -0.0291
 1059loPI   C1A16935  10.839  14.950   6.622  0.0232 -0.0459 -0.2452
 1059loPI   C2A16936  10.799  14.854   6.989  0.1607  0.2072  0.2729
 1059loPI   C3A16937  10.814  14.969   7.459 -0.0297  0.0745 -0.3582
 1059loPI   C4A16938  10.826  14.913   7.912 -0.1105 -0.0299 -0.0952
 1059loPI   C5A16939  10.905  14.810   8.374  0.3499 -0.0545  0.1261
 1059loPI   C6A16940  11.122  14.817   8.824  0.0433  0.3556  0.0418
 1059loPI   C1B16941  10.317  14.876   6.770  0.0399  0.0958  0.0411
 1059loPI   C2B16942  10.319  14.813   7.177  0.1804  0.2471  0.1825
 1059loPI   C3B16943  10.338  14.845   7.604  0.2510 -0.0639 -0.0215
 1059loPI   C4B16944  10.253  14.853   8.034 -0.0201 -0.0743 -0.1125
 1060loPI    C116945  14.939   8.458   5.640 -0.2692 -0.2340  0.2200
 1060loPI    C216946  14.801   8.780   5.445 -0.1086 -0.2099  0.1445
 1060loPI    C316947  14.647   8.419   5.368 -0.0228 -0.2055 -0.0540
 1060loPI   PO416948  14.943   8.509   5.874  0.1656  0.0199  0.1268
 1060loPI   GL116949  15.022   8.840   6.213 -0.3043 -0.1039  0.1557
 1060loPI   GL216950  15.252   9.011   6.310 -0.0097 -0.1922 -0.3156
 1060loPI   C1A16951  14.982   8.568   6.545  0.0551 -0.1252  0.0643
 1060loPI   C2A16952  14.971   8.562   7.020  0.1590 -0.1091 -0.1665
 1060loPI   C3A16953  14.892   8.658   7.501 -0.0745  0.1509 -0.3726
 1060loPI   C4A16954  14.904   8.683   7.907 -0.0164  0.3095 -0.2057
 1060loPI   C5A16955  14.913   8.662   8.331  0.0841  0.0027 -0.0310
 1060loPI   C6A16956  14.489   8.491   8.550  0.1760 -0.1506  0.2036
 1060loPI   C1B16957  15.158   8.999   6.807 -0.1302 -0.3179  0.1877
 1060loPI   C2B16958  15.131   9.137   7.214  0.1695  0.1211  0.1270
 1060loPI   C3B16959  15.033   9.173   7.662 -0.0735 -0.1657 -0.1730
 1060loPI   C4B16960  15.116   9.109   8.104  0.0005 -0.1517  0.5182
 1061loPI    C116961   5.060  14.247   5.481  0.1141  0.0670 -0.0017
 1061loPI    C216962   5.306  13.954   5.365  0.0331  0.0698 -0.1847
 1061loPI    C316963   5.255  14.276   5.133 -0.1786  0.0472 -0.1708
 1061loPI   PO416964   5.127  14.367   5.702  0.2088 -0.0647 -0.0396
 1061loPI   GL116965   5.003  14.289   6.070  0.2328  0.1639  0.0598
 1061loPI   GL216966   5.068  14.621   6.327 -0.0687  0.0539 -0.1335
 1061loPI   C1A16967   4.814  14.119   6.430 -0.4132 -0.0230  0.2167
 1061loPI   C2A16968   4.794  14.090   6.846 -0.2538 -0.3723  0.2272
 1061loPI   C3A16969   4.824  14.117   7.218  0.0661  0.0382  0.0462
 1061loPI   C4A16970   4.707  14.136   7.653 -0.2950 -0.0103 -0.2916
 1061loPI   C5A16971   4.662  13.976   8.044 -0.1775  0.0092 -0.1399
 1061loPI   C6A16972   4.878  13.818   8.341  0.0045  0.1385 -0.3923
 1061loPI   C1B16973   5.133  14.565   6.743  0.0765  0.3107 -0.3786
 1061loPI   C2B16974   5.072  14.565   7.204  0.0448  0.0866  0.3076
 1061loPI   C3B16975   4.986  14.610   7.621  0.1532 -0.1220  0.2923
 1061loPI   C4B16976   4.865  14.480   8.022  0.0710 -0.3738 -0.0992
 1062loPI    C116977   2.325   4.764   5.430  0.0929  0.2944  0.2249
 1062loPI    C216978   1.987   4.799   5.220  0.1593 -0.1182  0.0397
 1062loPI    C316979   2.335   4.913   5.059  0.1571 -0.0404  0.0892
 1062loPI   PO416980   2.255   4.728   5.649  0.3078 -0.1157  0.1811
 1062loPI   GL116981   2.090   4.508   6.041  0.3431  0.0376  0.0147
 1062loPI   GL216982   1.992   4.159   6.230 -0.0193  0.0262  0.0106
 1062loPI   C1A16983   1.826   4.746   6.332 -0.0887  0.3119  0.0138
 1062loPI   C2A16984   1.740   4.833   6.736 -0.0314 -0.1579  0.2625
 1062loPI   C3A16985   1.850   4.761   7.179  0.1909  0.0630  0.0044
 1062loPI   C4A16986   1.807   4.831   7.625  0.1615 -0.1063 -0.1473
 1062loPI   C5A16987   1.928   4.775   8.053  0.0168 -0.1654  0.1119
 1062loPI   C6A16988   2.280   4.707   8.245  0.0679 -0.2321 -0.0501
 1062loPI   C1B16989   2.104   4.228   6.712 -0.3827 -0.0635  0.4136
 1062loPI   C2B16990   2.116   4.340   7.039 -0.0370 -0.1816  0.1588
 1062loPI   C3B16991   2.093   4.378   7.514 -0.1909 -0.0213  0.1377
 1062loPI   C4B16992   2.151   4.321   7.932 -0.1081 -0.0193 -0.0195
 1063loPI    C116993   3.538   0.722   5.533  0.1579 -0.0543  0.0412
 1063loPI    C216994   3.481   0.734   5.137  0.0792 -0.0839  0.0514
 1063loPI    C316995   3.833   0.615   5.285  0.1910  0.1581 -0.0136
 1063loPI   PO416996   3.305   0.649   5.651 -0.0390  0.3535 -0.2907
 1063loPI   GL116997   3.050   0.593   6.026 -0.0934 -0.0568 -0.2989
 1063loPI   GL216998   2.885   0.421   6.133 -0.0569  0.1540  0.2143
 1063loPI   C1A16999   3.002   0.838   6.451 -0.4062  0.1551 -0.0305
 1063loPI   C2A17000   3.024   0.836   6.906 -0.3533  0.0224 -0.1785
 1063loPI   C3A17001   3.182   0.705   7.225 -0.1095 -0.2486 -0.1061
 1063loPI   C4A17002   3.202   0.604   7.671 -0.1966 -0.0613 -0.0742
 1063loPI   C5A17003   3.295   0.745   8.131  0.0409 -0.0121 -0.0495
 1063loPI   C6A17004   3.641   0.616   8.364 -0.0257  0.1246 -0.2354
 1063loPI   C1B17005   2.860   0.385   6.560 -0.0985  0.0569 -0.1127
 1063loPI   C2B17006   2.775   0.419   7.022  0.0765 -0.0377  0.2105
 1063loPI   C3B17007   2.759   0.517   7.464 -0.0080  0.0472 -0.1100
 1063loPI   C4B17008   2.723   0.537   7.894 -0.2783 -0.0152 -0.1587
 1064loPI    C117009  13.652  10.501   5.904  0.1000 -0.2979  0.0238
 1064loPI    C217010  13.735  10.827   5.687 -0.2379 -0.0184  0.3014
 1064loPI    C317011  13.655  10.480   5.504 -0.0970  0.1060 -0.0044
 1064loPI   PO417012  13.555  10.642   6.098 -0.1369  0.1640  0.2825
 1064loPI   GL117013  13.489  10.673   6.550 -0.2447 -0.2041  0.4662
 1064loPI   GL217014  13.443  10.954   6.445  0.2134  0.0371 -0.2049
 1064loPI   C1A17015  13.369  10.653   7.042 -0.0372 -0.0103 -0.1415
 1064loPI   C2A17016  13.418  10.681   7.491  0.0740  0.2378 -0.2077
 1064loPI   C3A17017  13.315  10.770   7.903  0.0745 -0.0279  0.0510
 1064loPI   C4A17018  13.515  10.723   8.252  0.1493  0.0751  0.0036
 1064loPI   C5A17019  13.647  10.919   8.606  0.0474 -0.1689 -0.2146
 1064loPI   C6A17020  13.953  11.271   8.744 -0.1729 -0.1034 -0.0893
 1064loPI   C1B17021  13.645  11.131   6.784 -0.2516  0.0187 -0.0097
 1064loPI   C2B17022  13.546  11.117   7.303  0.2756  0.0949  0.2415
 1064loPI   C3B17023  13.574  11.173   7.715  0.1099  0.0015  0.0443
 1064loPI   C4B17024  13.616  11.194   8.177 -0.0396  0.0065 -0.0812
 1065loPI    C117025   8.218   6.359   5.054 -0.2021 -0.1438 -0.1179
 1065loPI    C217026   7.883   6.575   5.090 -0.0295  0.0997  0.0602
 1065loPI    C317027   8.171   6.693   4.839  0.0412  0.0456  0.1152
 1065loPI   PO417028   8.336   6.310   5.252  0.0553  0.0410 -0.2246
 1065loPI   GL117029   8.459   6.206   5.652 -0.3543  0.1261  0.1926
 1065loPI   GL217030   8.269   6.269   5.884  0.2332 -0.0745 -0.1169
 1065loPI   C1A17031   8.678   6.025   5.982  0.0394 -0.0274  0.1908
 1065loPI   C2A17032   8.645   5.946   6.412  0.0287  0.1220 -0.2999
 1065loPI   C3A17033   8.706   5.993   6.880 -0.0617  0.1736  0.3282
 1065loPI   C4A17034   8.527   6.018   7.227  0.0598 -0.0464  0.1304
 1065loPI   C5A17035   8.712   6.025   7.631  0.0352 -0.0082 -0.2160
 1065loPI   C6A17036   9.127   6.036   7.836  0.2196 -0.2218 -0.1334
 1065loPI   C1B17037   8.360   6.342   6.248 -0.0551  0.1755 -0.3037
 1065loPI   C2B17038   8.352   6.364   6.711  0.0645  0.3093  0.0281
 1065loPI   C3B17039   8.362   6.460   7.136  0.0698  0.1631 -0.2411
 1065loPI   C4B17040   8.337   6.452   7.539  0.2609 -0.0953 -0.1499
 1066loPI    C117041   4.293   3.044   5.189  0.0947  0.1301  0.0095
 1066loPI    C217042   4.577   2.773   5.115 -0.1030 -0.1333  0.1972
 1066loPI    C317043   4.461   3.025   4.827  0.0693 -0.2598  0.0139
 1066loPI   PO417044   4.374   3.112   5.414  0.1658 -0.0794  0.3459
 1066loPI   GL117045   4.526   3.171   5.878  0.1112 -0.2008  0.0974
 1066loPI   GL217046   4.265   2.953   5.865  0.2550 -0.1746  0.1638
 1066loPI   C1A17047   4.676   3.160   6.367 -0.0255 -0.0631 -0.0331
 1066loPI   C2A17048   4.730   3.289   6.695 -0.0256  0.1570 -0.1947
 1066loPI   C3A17049   4.560   3.236   7.108 -0.2964  0.0965  0.0560
 1066loPI   C4A17050   4.564   3.174   7.558 -0.2052 -0.0380  0.0935
 1066loPI   C5A17051   4.197   3.017   7.773  0.0034  0.0773 -0.0133
 1066loPI   C6A17052   4.024   2.978   8.155  0.1593  0.2726 -0.0347
 1066loPI   C1B17053   4.112   3.253   6.224 -0.2592 -0.1004 -0.0736
 1066loPI   C2B17054   4.234   3.165   6.541 -0.1058  0.0363 -0.1460
 1066loPI   C3B17055   4.136   3.105   6.914 -0.0720  0.0585  0.0622
 1066loPI   C4B17056   4.136   3.163   7.319  0.0348  0.1254 -0.0173
 1067loPI    C117057   7.706  14.916   5.424 -0.0187  0.1631 -0.1332
 1067loPI    C217058   7.862  14.794   5.076  0.0028  0.0165 -0.0725
 1067loPI    C317059   7.467  14.773   5.137  0.0206 -0.1582 -0.0098
 1067loPI   PO417060   7.830  14.787   5.571 -0.3850 -0.4813 -0.3024
 1067loPI   GL117061   8.039  14.749   6.059 -0.0949 -0.1638 -0.1482
 1067loPI   GL217062   8.333  15.017   6.203 -0.0599 -0.2003  0.1623
 1067loPI   C1A17063   7.878  14.525   6.297 -0.0638  0.0547  0.0128
 1067loPI   C2A17064   7.897  14.511   6.731 -0.0938  0.3536  0.0854
 1067loPI   C3A17065   7.732  14.571   7.074 -0.0347  0.3901  0.1216
 1067loPI   C4A17066   7.715  14.509   7.435 -0.6260 -0.1547 -0.2577
 1067loPI   C5A17067   7.656  14.542   7.901 -0.0791  0.2127 -0.2672
 1067loPI   C6A17068   7.624  14.368   8.240 -0.1200 -0.2046 -0.1596
 1067loPI   C1B17069   8.116  14.941   6.560 -0.0405 -0.1929 -0.2410
 1067loPI   C2B17070   7.963  15.052   6.954  0.4467 -0.0124  0.0490
 1067loPI   C3B17071   7.939  15.050   7.276  0.0417  0.2781  0.3413
 1067loPI   C4B17072   7.854  14.960   7.693 -0.0522 -0.2795  0.1354
 1068loPI    C117073   8.464   1.411   5.435  0.2074  0.0040  0.2673
 1068loPI    C217074   8.645   1.617   5.144 -0.1323 -0.0772 -0.0068
 1068loPI    C317075   8.771   1.249   5.236  0.0962  0.0210  0.0798
 1068loPI   PO417076   8.479   1.532   5.654 -0.1433 -0.0359 -0.2024
 1068loPI   GL117077   8.514   1.493   6.077  0.1282  0.2538 -0.2518
 1068loPI   GL217078   8.182   1.421   6.176  0.0711 -0.0532  0.1758
 1068loPI   C1A17079   8.800   1.428   6.446 -0.0587  0.0960  0.0856
 1068loPI   C2A17080   8.713   1.421   6.904  0.1622  0.3599  0.1788
 1068loPI   C3A17081   8.675   1.503   7.236 -0.2009 -0.0332  0.2871
 1068loPI   C4A17082   8.796   1.419   7.580 -0.3644  0.2114 -0.1970
 1068loPI   C5A17083   8.716   1.493   7.929 -0.2653 -0.0209  0.3203
 1068loPI   C6A17084   8.531   1.419   8.330  0.1075  0.1741 -0.1600
 1068loPI   C1B17085   8.167   1.414   6.658 -0.1316 -0.1117 -0.2353
 1068loPI   C2B17086   8.126   1.388   7.100 -0.1280  0.0263 -0.0262
 1068loPI   C3B17087   8.210   1.451   7.565 -0.1261  0.0326  0.1616
 1068loPI   C4B17088   8.164   1.354   7.988 -0.1091 -0.0287 -0.1132
 1069loPI    C117089   8.812   1.946   5.565 -0.1063 -0.2781 -0.0348
 1069loPI    C217090   8.985   1.586   5.547  0.1209 -0.1682 -0.0726
 1069loPI    C317091   9.167   1.905   5.388  0.0465  0.0117  0.1947
 1069loPI   PO417092   8.702   1.929   5.851  0.1040 -0.2629  0.3325
 1069loPI   GL117093   8.777   1.899   6.249  0.1128  0.1009  0.0674
 1069loPI   GL217094   8.437   1.933   6.324  0.0077  0.0289  0.0318
 1069loPI   C1A17095   8.906   1.879   6.683 -0.0228 -0.0970  0.2134
 1069loPI   C2A17096   8.935   1.944   7.119  0.0009 -0.0140 -0.1186
 1069loPI   C3A17097   8.922   1.952   7.595 -0.1871  0.0573 -0.0213
 1069loPI   C4A17098   8.910   1.908   8.071  0.0898  0.1713 -0.0437
 1069loPI   C5A17099   8.990   1.674   8.287  0.0772 -0.1579  0.2101
 1069loPI   C6A17100   9.082   1.327   8.561  0.0781  0.0510 -0.1014
 1069loPI   C1B17101   8.441   1.899   6.653  0.0631 -0.2331  0.2267
 1069loPI   C2B17102   8.420   1.841   7.115  0.1433 -0.4025 -0.2016
 1069loPI   C3B17103   8.415   1.921   7.506  0.1169  0.0727 -0.5179
 1069loPI   C4B17104   8.297   1.827   7.971  0.2178 -0.2377  0.2463
 1070loPI    C117105   6.666  16.642   5.509  0.2938 -0.1091 -0.0627
 1070loPI    C217106   6.650  16.352   5.234  0.0345  0.0566 -0.2271
 1070loPI    C317107   6.594  16.733   5.126 -0.2944  0.1031  0.0873
 1070loPI   PO417108   6.617  16.583   5.712 -0.0326  0.0153 -0.2907
 1070loPI   GL117109   6.649  16.740   6.055 -0.1037  0.2334 -0.1079
 1070loPI   GL217110   6.528  17.051   6.178 -0.1661  0.1291 -0.0983
 1070loPI   C1A17111   6.726  16.752   6.520  0.1457 -0.3210 -0.0598
 1070loPI   C2A17112   6.726  16.641   6.923  0.1754  0.0589 -0.2152
 1070loPI   C3A17113   6.733  16.647   7.306  0.0576 -0.3309 -0.0129
 1070loPI   C4A17114   6.739  16.650   7.770 -0.1613  0.2185  0.2387
 1070loPI   C5A17115   6.682  16.656   8.140  0.1285  0.3851 -0.2502
 1070loPI   C6A17116   6.479  16.997   8.232  0.2610  0.0620  0.0122
 1070loPI   C1B17117   6.371  17.193   6.492 -0.0594 -0.0014 -0.0562
 1070loPI   C2B17118   6.403  17.113   6.889  0.0874 -0.0825  0.2290
 1070loPI   C3B17119   6.432  17.071   7.329  0.1714 -0.2143  0.0024
 1070loPI   C4B17120   6.447  17.108   7.762 -0.1242 -0.0183 -0.1608
 1071loPI    C117121   0.569   0.995   5.464  0.1252  0.0438 -0.0090
 1071loPI    C217122   0.619   1.050   5.071 -0.0015  0.0874 -0.0192
 1071loPI    C317123   0.480   0.701   5.209 -0.2735  0.1851 -0.0393
 1071loPI   PO417124   0.527   1.295   5.552  0.1220 -0.0518  0.1425
 1071loPI   GL117125   0.366   1.398   5.925  0.1398  0.2369  0.0724
 1071loPI   GL217126   0.559   1.097   5.974 -0.0037 -0.3523  0.2391
 1071loPI   C1A17127   0.392   1.460   6.326  0.1483  0.1434  0.2904
 1071loPI   C2A17128   0.430   1.487   6.743  0.1937  0.0331 -0.2312
 1071loPI   C3A17129   0.343   1.443   7.146 -0.3421  0.0096 -0.1750
 1071loPI   C4A17130   0.287   1.590   7.616 -0.0595 -0.2665 -0.0609
 1071loPI   C5A17131   0.363   1.615   8.072 -0.0962 -0.1973 -0.0790
 1071loPI   C6A17132   0.696   1.617   8.362 -0.2031 -0.3965 -0.0953
 1071loPI   C1B17133   0.658   1.069   6.472 -0.0990  0.2290  0.1055
 1071loPI   C2B17134   0.755   1.090   6.894 -0.2594  0.1545 -0.2461
 1071loPI   C3B17135   0.641   1.002   7.275 -0.1836 -0.2408 -0.0523
 1071loPI   C4B17136   0.523   1.162   7.582  0.3361 -0.2230  0.0129
 1072loPI    C117137   2.754   5.700   5.432  0.0094  0.0096  0.1461
 1072loPI    C217138   3.111   5.720   5.252  0.0135  0.0156  0.1548
 1072loPI    C317139   2.910   6.056   5.336 -0.0338  0.0085  0.0713
 1072loPI   PO417140   2.716   5.575   5.670 -0.1827  0.1363  0.0796
 1072loPI   GL117141   2.762   5.600   6.113 -0.2212 -0.1221  0.0765
 1072loPI   GL217142   3.074   5.596   6.013  0.0581  0.0808 -0.1017
 1072loPI   C1A17143   2.739   5.812   6.563 -0.3591 -0.0648 -0.0687
 1072loPI   C2A17144   2.887   6.149   6.876 -0.1128  0.0701  0.1569
 1072loPI   C3A17145   2.929   6.195   7.339 -0.0531  0.4944 -0.2275
 1072loPI   C4A17146   2.964   6.092   7.763  0.0192 -0.0157 -0.2844
 1072loPI   C5A17147   2.871   6.101   8.212 -0.0950  0.0604 -0.0961
 1072loPI   C6A17148   2.835   6.080   8.659 -0.1268  0.1977  0.1134
 1072loPI   C1B17149   3.252   5.725   6.368 -0.1303 -0.1534 -0.0428
 1072loPI   C2B17150   3.290   5.744   6.764  0.1426 -0.1841 -0.2295
 1072loPI   C3B17151   3.281   5.887   7.192 -0.1671  0.1521  0.0408
 1072loPI   C4B17152   3.187   5.665   7.603  0.1643 -0.1664  0.1716
 1073loPI    C117153  10.963   2.695   5.579 -0.1386  0.0684 -0.0954
 1073loPI    C217154  10.948   2.297   5.543 -0.0274  0.0469  0.0851
 1073loPI    C317155  10.845   2.529   5.234  0.1544 -0.1239 -0.1072
 1073loPI   PO417156  10.974   2.732   5.873  0.0344  0.3167  0.0377
 1073loPI   GL117157  10.764   2.714   6.284  0.0366  0.0759  0.1026
 1073loPI   GL217158  10.891   2.932   6.324  0.4743 -0.1434 -0.2034
 1073loPI   C1A17159  10.591   2.588   6.700  0.1373  0.0223  0.1337
 1073loPI   C2A17160  10.609   2.517   7.127  0.0507 -0.0202 -0.0632
 1073loPI   C3A17161  10.918   2.367   7.425  0.1313 -0.0907  0.0283
 1073loPI   C4A17162  10.918   2.130   7.746  0.1501 -0.3045  0.0514
 1073loPI   C5A17163  10.749   1.920   8.043  0.1827  0.0923  0.2097
 1073loPI   C6A17164  10.822   1.647   8.311 -0.0803  0.0132 -0.0344
 1073loPI   C1B17165  10.865   2.970   6.714 -0.1190 -0.1839  0.2945
 1073loPI   C2B17166  10.781   2.994   7.145  0.0208 -0.0339  0.0025
 1073loPI   C3B17167  10.657   3.085   7.563  0.0916 -0.1123  0.2050
 1073loPI   C4B17168  10.578   3.190   8.054  0.0433 -0.1263 -0.0933
 1074loPI    C117169   0.534  14.907   5.401 -0.1549 -0.0873  0.0307
 1074loPI    C217170   0.365  14.566   5.279 -0.2162  0.0088 -0.1574
 1074loPI    C317171   0.708  14.689   5.114 -0.1540  0.0001 -0.0356
 1074loPI   PO417172   0.653  14.940   5.695  0.0006 -0.2466  0.0377
 1074loPI   GL117173   0.631  14.847   6.155  0.1569  0.2341 -0.0367
 1074loPI   GL217174   0.435  15.176   6.335  0.0477 -0.0801 -0.0084
 1074loPI   C1A17175   0.823  14.888   6.606 -0.3470 -0.1345 -0.2366
 1074loPI   C2A17176   0.751  14.892   7.058  0.1236 -0.1854 -0.2185
 1074loPI   C3A17177   0.768  14.926   7.422  0.1947  0.1120 -0.1479
 1074loPI   C4A17178   0.808  14.829   7.873 -0.1864 -0.0011  0.1708
 1074loPI   C5A17179   0.690  14.967   8.194  0.0299  0.1568 -0.1699
 1074loPI   C6A17180   0.629  14.822   8.529  0.1274  0.0063  0.1022
 1074loPI   C1B17181   0.491  15.221   6.820 -0.3305 -0.0760 -0.0894
 1074loPI   C2B17182   0.465  15.266   7.237 -0.1258  0.2133 -0.2087
 1074loPI   C3B17183   0.460  15.247   7.671  0.0092  0.2500 -0.3873
 1074loPI   C4B17184   0.273  15.282   8.059 -0.1744 -0.1974 -0.2749
 1075loPI    C117185   4.866   7.198   5.158  0.0964  0.2100 -0.1150
 1075loPI    C217186   4.582   7.476   5.122 -0.0120  0.1134 -0.0144
 1075loPI    C317187   4.929   7.519   4.929 -0.0508  0.2883 -0.0471
 1075loPI   PO417188   4.872   7.174   5.422 -0.2621  0.1324  0.2997
 1075loPI   GL117189   5.177   7.228   5.751  0.0362  0.1729  0.0798
 1075loPI   GL217190   5.448   7.245   5.650 -0.1135  0.0484  0.0886
 1075loPI   C1A17191   5.061   7.348   6.166  0.0632 -0.1590  0.1578
 1075loPI   C2A17192   4.942   7.295   6.590 -0.1173  0.2239  0.2155
 1075loPI   C3A17193   4.890   7.293   6.982 -0.1178  0.1167 -0.3313
 1075loPI   C4A17194   4.834   7.251   7.500  0.1729  0.0930  0.0749
 1075loPI   C5A17195   4.870   7.242   7.919 -0.0492  0.0449  0.0572
 1075loPI   C6A17196   5.274   7.060   8.169  0.0569 -0.1056 -0.0984
 1075loPI   C1B17197   5.581   7.308   6.046 -0.1036 -0.1955 -0.0196
 1075loPI   C2B17198   5.493   7.360   6.489  0.1792  0.0389  0.1076
 1075loPI   C3B17199   5.437   7.376   6.900 -0.1503  0.0668 -0.1339
 1075loPI   C4B17200   5.381   7.330   7.339 -0.1424 -0.1604 -0.3727
 1076loPI    C117201   1.369  13.928   5.714  0.0067  0.1138  0.0812
 1076loPI    C217202   1.612  14.097   5.445  0.0906 -0.0072  0.0804
 1076loPI    C317203   1.261  13.945   5.329  0.1453 -0.0972  0.0315
 1076loPI   PO417204   1.502  13.743   5.814  0.1066 -0.0088 -0.2133
 1076loPI   GL117205   1.523  13.619   6.131  0.0898 -0.2352  0.0980
 1076loPI   GL217206   1.201  13.651   6.370  0.0368 -0.2220 -0.0236
 1076loPI   C1A17207   1.709  13.743   6.494  0.0966 -0.2446 -0.0656
 1076loPI   C2A17208   1.794  13.649   6.778  0.2513 -0.0341  0.2155
 1076loPI   C3A17209   1.685  13.679   7.225 -0.0047 -0.0686 -0.1486
 1076loPI   C4A17210   1.713  13.703   7.675 -0.0672 -0.0762 -0.2895
 1076loPI   C5A17211   1.680  13.672   8.037  0.0421  0.1043  0.1573
 1076loPI   C6A17212   1.448  13.587   8.396  0.1797 -0.3083 -0.1683
 1076loPI   C1B17213   1.296  13.515   6.736  0.1244 -0.2952  0.1703
 1076loPI   C2B17214   1.194  13.640   7.133  0.0039  0.0880 -0.3771
 1076loPI   C3B17215   1.229  13.671   7.515 -0.0237 -0.0663 -0.1626
 1076loPI   C4B17216   1.203  13.660   7.950 -0.0156 -0.1114  0.0454
 1077loPI    C117217   0.118  17.293   5.406 -0.1268  0.0314 -0.0517
 1077loPI    C217218   0.033  16.940   5.239  0.2369  0.0390 -0.2614
 1077loPI    C317219  -0.051  17.279   5.044  0.0915  0.0642 -0.1564
 1077loPI   PO417220   0.050  17.303   5.723 -0.1364 -0.2125 -0.0497
 1077loPI   GL117221   0.250  17.276   6.094  0.0102  0.1034  0.2190
 1077loPI   GL217222   0.350  17.043   6.181  0.0444  0.2832  0.0404
 1077loPI   C1A17223   0.066  17.351   6.479 -0.1527 -0.3980 -0.0125
 1077loPI   C2A17224  -0.042  17.442   6.876  0.1401  0.0325  0.0890
 1077loPI   C3A17225   0.007  17.408   7.309 -0.0167  0.0084  0.0127
 1077loPI   C4A17226  -0.040  17.450   7.761  0.0132  0.1597  0.1243
 1077loPI   C5A17227  -0.104  17.502   8.181 -0.2016  0.0378 -0.1420
 1077loPI   C6A17228  -0.055  17.783   8.458  0.0414 -0.1476 -0.2886
 1077loPI   C1B17229   0.347  16.949   6.598 -0.2290  0.0996 -0.0205
 1077loPI   C2B17230   0.265  17.072   6.959  0.0250 -0.1151  0.0554
 1077loPI   C3B17231   0.355  17.048   7.379  0.0203  0.0033  0.0141
 1077loPI   C4B17232   0.271  17.076   7.755 -0.0981 -0.2315 -0.0755
 1078loPI    C117233  15.456   6.731   5.569  0.1225 -0.1368 -0.1724
 1078loPI    C217234  15.260   6.825   5.234 -0.0773 -0.1565 -0.0629
 1078loPI    C317235  15.596   6.608   5.215 -0.1424 -0.2435 -0.2424
 1078loPI   PO417236  15.139   6.727   5.823  0.0045 -0.0816  0.1729
 1078loPI   GL117237  15.162   6.957   6.248  0.2223 -0.0881 -0.4287
 1078loPI   GL217238  14.902   7.067   6.046 -0.1209 -0.2278 -0.1736
 1078loPI   C1A17239  15.230   6.969   6.620  0.1556 -0.4269 -0.0269
 1078loPI   C2A17240  15.178   6.970   7.064  0.4087  0.0032 -0.0758
 1078loPI   C3A17241  15.138   6.945   7.508  0.1149 -0.2211  0.3048
 1078loPI   C4A17242  15.164   6.951   7.920  0.0695 -0.2192  0.1902
 1078loPI   C5A17243  15.304   6.692   8.243  0.1345  0.0055 -0.1125
 1078loPI   C6A17244  15.174   6.302   8.419  0.1280 -0.0148 -0.0892
 1078loPI   C1B17245  14.881   7.322   6.536 -0.0446  0.0324 -0.0182
 1078loPI   C2B17246  14.841   7.365   6.942 -0.1474 -0.1599 -0.0246
 1078loPI   C3B17247  14.802   7.384   7.475 -0.1568  0.1884 -0.0417
 1078loPI   C4B17248  14.878   7.365   7.967  0.1745 -0.1199 -0.2952
 1079loPI    C117249   1.703  10.935   5.460 -0.0285 -0.0804  0.1443
 1079loPI    C217250   1.456  10.664   5.301  0.1039 -0.0403 -0.1359
 1079loPI    C317251   1.351  11.050   5.309  0.1163 -0.0363 -0.1685
 1079loPI   PO417252   1.769  10.850   5.739  0.0642  0.2339  0.0327
 1079loPI   GL117253   1.831  10.915   6.070  0.0220 -0.2260 -0.0643
 1079loPI   GL217254   2.124  11.046   6.227  0.0794  0.0309  0.1577
 1079loPI   C1A17255   2.000  10.675   6.484  0.1929  0.0536  0.1447
 1079loPI   C2A17256   1.906  10.601   6.917 -0.4592  0.2028  0.0422
 1079loPI   C3A17257   1.884  10.506   7.367 -0.3804  0.0439 -0.0280
 1079loPI   C4A17258   1.758  10.459   7.832 -0.1831 -0.0564 -0.2479
 1079loPI   C5A17259   1.952  10.656   8.205  0.0380  0.0286  0.1191
 1079loPI   C6A17260   2.299  10.946   8.419  0.3529 -0.0296  0.0290
 1079loPI   C1B17261   2.065  11.175   6.665  0.0408  0.1416  0.2577
 1079loPI   C2B17262   2.049  11.106   7.070  0.0633  0.0544 -0.3745
 1079loPI   C3B17263   2.062  11.022   7.509  0.1524  0.0097  0.0972
 1079loPI   C4B17264   2.088  11.039   7.812  0.2828 -0.0205 -0.1502
 1080loPI    C117265  17.303  10.006   5.536 -0.1102  0.0075 -0.0812
 1080loPI    C217266  17.376  10.329   5.312 -0.0340 -0.0003 -0.0681
 1080loPI    C317267  17.513   9.971   5.197 -0.1059 -0.0257 -0.0753
 1080loPI   PO417268  17.337  10.093   5.831  0.4075 -0.0273 -0.0977
 1080loPI   GL117269  17.268   9.971   6.209 -0.1302  0.0785 -0.1930
 1080loPI   GL217270  17.235  10.372   6.291 -0.0780  0.1379 -0.2209
 1080loPI   C1A17271  17.424   9.876   6.565 -0.1852 -0.1695  0.0623
 1080loPI   C2A17272  17.409   9.801   6.957  0.2466 -0.0324 -0.3369
 1080loPI   C3A17273  17.421   9.826   7.358 -0.0032 -0.1660 -0.3299
 1080loPI   C4A17274  17.373   9.790   7.719  0.0493 -0.0651  0.1030
 1080loPI   C5A17275  17.330   9.846   8.139  0.0779 -0.1542 -0.1227
 1080loPI   C6A17276  17.430   9.783   8.529  0.4456 -0.2215 -0.1588
 1080loPI   C1B17277  17.080  10.256   6.676  0.1627 -0.1855  0.1426
 1080loPI   C2B17278  17.095  10.191   7.103  0.1723 -0.1173 -0.0752
 1080loPI   C3B17279  17.076  10.211   7.580 -0.0224  0.1545  0.2214
 1080loPI   C4B17280  17.013  10.255   8.004 -0.0567  0.0073  0.3788
 1081loPI    C117281   0.900  11.846   5.408  0.0111  0.0676 -0.0519
 1081loPI    C217282   0.545  11.800   5.230  0.0345  0.0585 -0.0963
 1081loPI    C317283   0.848  11.555   5.139  0.0060 -0.0365  0.0607
 1081loPI   PO417284   0.971  11.782   5.657 -0.1082  0.0054 -0.2060
 1081loPI   GL117285   1.172  11.785   6.000  0.3425 -0.1230  0.0539
 1081loPI   GL217286   1.189  11.472   6.069 -0.0615  0.0787  0.0884
 1081loPI   C1A17287   0.932  11.732   6.346 -0.3131 -0.3338  0.1491
 1081loPI   C2A17288   0.926  11.823   6.758  0.5287 -0.0823 -0.1575
 1081loPI   C3A17289   0.943  11.829   7.150 -0.2698  0.2062  0.1615
 1081loPI   C4A17290   0.885  11.760   7.528  0.2115  0.1344 -0.2052
 1081loPI   C5A17291   0.895  11.749   7.923 -0.0971 -0.2694  0.1189
 1081loPI   C6A17292   0.941  11.698   8.214 -0.1153 -0.2482 -0.0539
 1081loPI   C1B17293   1.283  11.444   6.517 -0.1310  0.0824  0.0786
 1081loPI   C2B17294   1.184  11.426   6.951  0.1159  0.3478  0.0556
 1081loPI   C3B17295   1.206  11.414   7.401 -0.0885 -0.0964 -0.1866
 1081loPI   C4B17296   1.238  11.337   7.830  0.3973  0.1791 -0.1281
 1082loPI    C117297   3.897  16.717   5.531  0.0251 -0.1103  0.1345
 1082loPI    C217298   3.560  16.649   5.327  0.0414  0.0845  0.0413
 1082loPI    C317299   3.911  16.528   5.179  0.0270  0.0022  0.0740
 1082loPI   PO417300   3.880  16.778   5.778 -0.2343 -0.3086 -0.0655
 1082loPI   GL117301   4.143  16.649   6.202  0.3236  0.3587 -0.0451
 1082loPI   GL217302   4.362  16.839   6.315 -0.1451 -0.0427  0.2450
 1082loPI   C1A17303   3.918  16.571   6.515 -0.0817 -0.2689  0.0346
 1082loPI   C2A17304   3.914  16.580   6.952  0.0382 -0.0335  0.1084
 1082loPI   C3A17305   3.929  16.642   7.384 -0.0808 -0.1107 -0.4250
 1082loPI   C4A17306   3.977  16.641   7.811 -0.1840  0.2382 -0.0413
 1082loPI   C5A17307   3.919  16.624   8.250 -0.1048  0.0554 -0.2357
 1082loPI   C6A17308   3.942  16.846   8.657 -0.1435 -0.1914  0.0786
 1082loPI   C1B17309   4.339  16.721   6.730  0.0305  0.1920 -0.0634
 1082loPI   C2B17310   4.432  16.628   7.112 -0.0522  0.0562  0.0152
 1082loPI   C3B17311   4.460  16.740   7.618 -0.2291 -0.0520  0.3259
 1082loPI   C4B17312   4.538  16.631   8.021  0.2358  0.0001 -0.0570
 1083loPI    C117313   4.335   9.850   5.462 -0.0482 -0.0531  0.0838
 1083loPI    C217314   4.507   9.823   5.103  0.0606 -0.0278  0.1336
 1083loPI    C317315   4.178  10.045   5.151  0.0076 -0.0843  0.0360
 1083loPI   PO417316   4.478   9.840   5.609 -0.2268 -0.1164 -0.2614
 1083loPI   GL117317   4.523   9.719   6.028  0.2254  0.0733  0.0592
 1083loPI   GL217318   4.470   9.401   5.949  0.1307  0.1495 -0.1720
 1083loPI   C1A17319   4.535  10.065   6.376  0.0100  0.0564  0.0442
 1083loPI   C2A17320   4.599  10.070   6.828 -0.1942 -0.1566 -0.3136
 1083loPI   C3A17321   4.535   9.897   7.216 -0.1137 -0.0917  0.1725
 1083loPI   C4A17322   4.457   9.928   7.636 -0.0072  0.0452 -0.3233
 1083loPI   C5A17323   4.389   9.855   8.136  0.0548 -0.0565 -0.1311
 1083loPI   C6A17324   4.592   9.638   8.486  0.0075  0.2736  0.2076
 1083loPI   C1B17325   4.353   9.489   6.428  0.0417  0.1970  0.1353
 1083loPI   C2B17326   4.368   9.535   6.880  0.0986 -0.0088 -0.1496
 1083loPI   C3B17327   4.246   9.475   7.313  0.0925 -0.0756  0.1458
 1083loPI   C4B17328   4.227   9.496   7.769  0.1652 -0.0890  0.0478
 1084loPI    C117329  17.769  14.222   5.376 -0.2392  0.1209  0.0843
 1084loPI    C217330  17.674  14.406   5.033  0.1467 -0.0728 -0.1335
 1084loPI    C317331  17.562  14.027   5.095  0.0759 -0.0375 -0.0421
 1084loPI   PO417332  17.735  14.345   5.565  0.1911 -0.3816  0.0256
 1084loPI   GL117333  17.853  14.208   5.965  0.0591  0.0307 -0.1543
 1084loPI   GL217334  17.904  13.880   6.160  0.0840 -0.0349 -0.0004
 1084loPI   C1A17335  17.727  14.311   6.466 -0.2526  0.4475 -0.1588
 1084loPI   C2A17336  17.824  14.331   6.898  0.2986  0.1917  0.1990
 1084loPI   C3A17337  17.833  14.337   7.305  0.1349 -0.3668 -0.1719
 1084loPI   C4A17338  17.793  14.339   7.713  0.1345  0.2839  0.0477
 1084loPI   C5A17339  17.791  14.391   8.165  0.0261  0.1779  0.1294
 1084loPI   C6A17340  17.470  14.172   8.427  0.2774 -0.0140  0.0035
 1084loPI   C1B17341  18.119  13.985   6.609  0.3121  0.0321  0.1175
 1084loPI   C2B17342  18.173  14.021   7.046 -0.2700 -0.0774 -0.0098
 1084loPI   C3B17343  18.150  13.934   7.520  0.2739  0.1671 -0.0947
 1084loPI   C4B17344  18.112  13.962   7.926 -0.0882  0.1528 -0.1729
 1085loPI    C117345   8.225  11.846   5.163 -0.1144 -0.1422 -0.1634
 1085loPI    C217346   8.022  11.656   4.876 -0.0280 -0.2088 -0.1806
 1085loPI    C317347   8.402  11.764   4.814 -0.0623 -0.0714 -0.1539
 1085loPI   PO417348   8.217  11.710   5.357 -0.2768 -0.3997 -0.0524
 1085loPI   GL117349   8.024  11.585   5.735 -0.1656 -0.0581  0.1029
 1085loPI   GL217350   8.250  11.496   5.881  0.2252  0.2385  0.0458
 1085loPI   C1A17351   7.879  11.328   6.149 -0.1620 -0.1522  0.2435
 1085loPI   C2A17352   7.899  11.311   6.614  0.1155 -0.1075  0.1883
 1085loPI   C3A17353   7.953  11.387   7.010  0.0012  0.0253  0.1675
 1085loPI   C4A17354   7.924  11.350   7.482  0.1015  0.0538  0.0624
 1085loPI   C5A17355   7.838  11.417   7.936 -0.0325 -0.0743  0.0808
 1085loPI   C6A17356   7.902  11.043   8.201  0.2371 -0.1391  0.1260
 1085loPI   C1B17357   8.355  11.469   6.357  0.1750  0.0652  0.1144
 1085loPI   C2B17358   8.458  11.479   6.818  0.1226 -0.1547  0.0998
 1085loPI   C3B17359   8.388  11.459   7.249  0.2292 -0.0106 -0.0552
 1085loPI   C4B17360   8.419  11.439   7.746  0.2168 -0.0083  0.1836
 1086loPI    C117361   2.603   0.132   5.585 -0.0141 -0.1728 -0.0880
 1086loPI    C217362   2.333  -0.148   5.490 -0.0085 -0.1593 -0.1441
 1086loPI    C317363   2.485   0.089   5.205  0.0199 -0.1288 -0.1037
 1086loPI   PO417364   2.575   0.198   5.858 -0.1645 -0.1976  0.0564
 1086loPI   GL117365   2.405   0.298   6.209 -0.4550  0.2858  0.0839
 1086loPI   GL217366   2.567  -0.012   6.339  0.1837 -0.0538 -0.0090
 1086loPI   C1A17367   2.316   0.366   6.556 -0.2744 -0.0766  0.2235
 1086loPI   C2A17368   2.258   0.308   7.040 -0.1238 -0.2227 -0.0117
 1086loPI   C3A17369   2.269   0.356   7.469  0.4204  0.2453 -0.1540
 1086loPI   C4A17370   2.221   0.475   7.895  0.0185  0.1403  0.0907
 1086loPI   C5A17371   2.229   0.532   8.269  0.1570 -0.0686 -0.0756
 1086loPI   C6A17372   2.310   0.873   8.625 -0.1316  0.2881  0.2248
 1086loPI   C1B17373   2.568  -0.085   6.739 -0.0869 -0.0508 -0.2797
 1086loPI   C2B17374   2.639  -0.001   7.297 -0.1861 -0.3055  0.0523
 1086loPI   C3B17375   2.539   0.051   7.703  0.1085 -0.1327  0.0392
 1086loPI   C4B17376   2.490  -0.025   8.072  0.1462  0.0925 -0.2960
 1087loPI    C117377   1.821   0.643   5.634 -0.1421  0.2283  0.1274
 1087loPI    C217378   1.573   0.336   5.565  0.2067  0.0053 -0.1687
 1087loPI    C317379   1.629   0.615   5.284  0.1324  0.1714 -0.0207
 1087loPI   PO417380   1.767   0.659   5.860  0.0806 -0.1878  0.1502
 1087loPI   GL117381   1.930   0.425   6.250 -0.1778  0.2761  0.0469
 1087loPI   GL217382   1.960   0.730   6.358 -0.0023 -0.1364  0.1284
 1087loPI   C1A17383   1.831   0.269   6.644  0.2791  0.0927  0.0774
 1087loPI   C2A17384   1.758   0.192   6.948  0.2352 -0.1065 -0.0546
 1087loPI   C3A17385   1.783   0.250   7.362 -0.3228 -0.1065  0.0554
 1087loPI   C4A17386   1.704   0.336   7.771  0.2416 -0.0784  0.0551
 1087loPI   C5A17387   1.698   0.347   8.275  0.3279 -0.0828  0.1846
 1087loPI   C6A17388   1.732   0.736   8.558 -0.1372 -0.0992  0.0926
 1087loPI   C1B17389   1.988   0.707   6.750 -0.2056 -0.5018  0.2195
 1087loPI   C2B17390   1.969   0.765   7.186 -0.1568  0.0043 -0.0605
 1087loPI   C3B17391   1.916   0.787   7.677 -0.0492  0.0473 -0.0320
 1087loPI   C4B17392   1.817   0.826   8.060 -0.4235  0.0263  0.2561
 1088loPI    C117393   9.748  12.521   5.528 -0.0200 -0.2365 -0.2101
 1088loPI    C217394   9.414  12.740   5.509  0.0401 -0.1157  0.0832
 1088loPI    C317395   9.663  12.728   5.196 -0.0972  0.0202 -0.0331
 1088loPI   PO417396   9.704  12.308   5.697 -0.2760 -0.0543 -0.2580
 1088loPI   GL117397   9.439  12.301   6.091  0.3582  0.0900 -0.2234
 1088loPI   GL217398   9.603  12.015   6.095 -0.2537  0.4244  0.0084
 1088loPI   C1A17399   9.327  12.495   6.494 -0.3362 -0.0723 -0.0041
 1088loPI   C2A17400   9.350  12.467   6.989  0.1299  0.1643  0.0046
 1088loPI   C3A17401   9.327  12.426   7.422 -0.1567 -0.0633 -0.0660
 1088loPI   C4A17402   9.323  12.470   7.845  0.3000  0.0217  0.0305
 1088loPI   C5A17403   9.316  12.287   8.242 -0.2345  0.2684 -0.3299
 1088loPI   C6A17404   9.129  12.133   8.658 -0.0552  0.1918 -0.0278
 1088loPI   C1B17405   9.667  12.099   6.617 -0.0476  0.1392 -0.0445
 1088loPI   C2B17406   9.575  12.015   7.001  0.0489  0.1597  0.2479
 1088loPI   C3B17407   9.663  12.023   7.467  0.1086  0.0034  0.0007
 1088loPI   C4B17408   9.532  12.026   7.873 -0.2215 -0.1595 -0.0202
 1089loPI    C117409  13.988   0.983   5.711 -0.1310  0.2247 -0.1260
 1089loPI    C217410  13.718   0.718   5.582  0.0704 -0.0713  0.0485
 1089loPI    C317411  13.923   0.938   5.319 -0.1562 -0.0278 -0.0943
 1089loPI   PO417412  14.113   0.845   5.927  0.2638  0.3522  0.1929
 1089loPI   GL117413  14.363   1.023   6.222  0.2002  0.1120 -0.0797
 1089loPI   GL217414  14.345   0.726   6.371 -0.0430 -0.3117  0.1272
 1089loPI   C1A17415  14.526   1.153   6.527  0.2965 -0.1300 -0.2942
 1089loPI   C2A17416  14.534   1.160   6.895 -0.3998  0.3892 -0.0745
 1089loPI   C3A17417  14.530   1.170   7.319 -0.1323 -0.1540 -0.2081
 1089loPI   C4A17418  14.464   1.148   7.747 -0.1563 -0.1831  0.1731
 1089loPI   C5A17419  14.404   1.103   8.253  0.0356  0.0062 -0.3379
 1089loPI   C6A17420  14.334   0.869   8.525 -0.0382 -0.2157 -0.0373
 1089loPI   C1B17421  14.332   0.725   6.677  0.1603  0.3019  0.0656
 1089loPI   C2B17422  14.268   0.757   7.140  0.0880 -0.1218 -0.2153
 1089loPI   C3B17423  14.257   0.707   7.570 -0.1161  0.0014 -0.3856
 1089loPI   C4B17424  14.190   0.684   7.972  0.0946 -0.0649 -0.0349
 1090loPI    C117425  12.721   7.485   5.272 -0.0871  0.0759  0.0526
 1090loPI    C217426  12.945   7.166   5.186  0.1312  0.2268  0.0512
 1090loPI    C317427  12.598   7.224   4.995  0.1474  0.0546 -0.0338
 1090loPI   PO417428  12.780   7.500   5.609 -0.0983  0.1440 -0.0010
 1090loPI   GL117429  12.709   7.596   5.973  0.3861 -0.0611  0.3874
 1090loPI   GL217430  12.671   7.265   6.006  0.1980  0.1282  0.1969
 1090loPI   C1A17431  12.795   7.842   6.268 -0.3473  0.1125 -0.0475
 1090loPI   C2A17432  12.743   7.930   6.795 -0.2124 -0.1854 -0.1357
 1090loPI   C3A17433  12.700   7.955   7.266 -0.0762  0.0018 -0.3342
 1090loPI   C4A17434  12.679   8.013   7.658  0.1704  0.1460 -0.2080
 1090loPI   C5A17435  12.772   8.026   8.058  0.1728  0.2439 -0.0332
 1090loPI   C6A17436  13.195   8.170   8.301  0.0101 -0.0440 -0.0055
 1090loPI   C1B17437  12.583   7.349   6.412 -0.2080  0.0186  0.0374
 1090loPI   C2B17438  12.599   7.427   6.832  0.0661 -0.0363 -0.1789
 1090loPI   C3B17439  12.586   7.478   7.320 -0.2912  0.0045 -0.0554
 1090loPI   C4B17440  12.526   7.518   7.699  0.2158  0.1655 -0.0891
 1091loPI    C117441   6.011   4.328   5.132 -0.2598  0.0056 -0.0299
 1091loPI    C217442   6.194   4.671   5.037  0.1011 -0.2593 -0.3189
 1091loPI    C317443   5.875   4.550   4.828 -0.1183 -0.0329 -0.1220
 1091loPI   PO417444   5.922   4.358   5.374  0.1541 -0.1393  0.0308
 1091loPI   GL117445   6.013   4.353   5.753 -0.0792 -0.2256 -0.3935
 1091loPI   GL217446   5.645   4.464   5.791 -0.0311 -0.2063 -0.0480
 1091loPI   C1A17447   6.047   4.170   6.073  0.1337  0.0009 -0.0872
 1091loPI   C2A17448   6.038   4.308   6.547 -0.1347 -0.0024  0.0246
 1091loPI   C3A17449   6.100   4.286   6.965  0.1865  0.1282 -0.0557
 1091loPI   C4A17450   6.004   4.305   7.428  0.2544  0.0489 -0.1153
 1091loPI   C5A17451   5.865   4.229   7.884 -0.0626  0.0090  0.1632
 1091loPI   C6A17452   5.583   3.863   7.871  0.3185  0.1296  0.0835
 1091loPI   C1B17453   5.753   4.582   6.185 -0.3737  0.2554 -0.1085
 1091loPI   C2B17454   5.708   4.740   6.600  0.0502  0.0079 -0.3093
 1091loPI   C3B17455   5.641   4.634   7.072 -0.1580 -0.0997 -0.1365
 1091loPI   C4B17456   5.620   4.653   7.482  0.0531  0.2279  0.0341
 1092loPI    C117457   3.038  15.199   5.389  0.0874  0.3152 -0.0552
 1092loPI    C217458   2.899  14.854   5.242 -0.0024  0.2901  0.0873
 1092loPI    C317459   3.019  15.143   4.993  0.0751  0.1559 -0.0328
 1092loPI   PO417460   3.009  15.142   5.634 -0.0349 -0.2935 -0.2369
 1092loPI   GL117461   2.973  15.208   6.068  0.0534  0.2166 -0.0209
 1092loPI   GL217462   3.267  15.298   6.039 -0.1218 -0.1069 -0.2325
 1092loPI   C1A17463   2.820  15.141   6.475  0.3009  0.2090  0.2261
 1092loPI   C2A17464   2.840  15.046   6.944  0.0625  0.2806 -0.0169
 1092loPI   C3A17465   2.827  15.100   7.323 -0.0035 -0.3845  0.0389
 1092loPI   C4A17466   2.953  15.189   7.792 -0.0277  0.0174  0.0759
 1092loPI   C5A17467   3.330  15.243   8.100  0.1293  0.3660 -0.0130
 1092loPI   C6A17468   3.309  15.055   8.455  0.0785  0.2654  0.2027
 1092loPI   C1B17469   3.407  15.151   6.372  0.2811 -0.0422 -0.1550
 1092loPI   C2B17470   3.383  15.187   6.801  0.1348 -0.1254 -0.2248
 1092loPI   C3B17471   3.382  15.145   7.098 -0.0463 -0.1418 -0.0628
 1092loPI   C4B17472   3.338  15.172   7.524 -0.2915  0.0808 -0.1386
 1093loPI    C117473   8.775  10.850   5.676 -0.0601 -0.1213  0.0031
 1093loPI    C217474   8.760  11.033   5.320 -0.1363 -0.0591  0.0381
 1093loPI    C317475   8.612  10.664   5.362 -0.1816 -0.0431  0.0193
 1093loPI   PO417476   8.983  11.070   5.766  0.2446  0.3612  0.3600
 1093loPI   GL117477   9.344  11.135   6.173 -0.1055 -0.3120 -0.2533
 1093loPI   GL217478   9.057  11.079   6.364 -0.0983  0.1637 -0.0859
 1093loPI   C1A17479   9.697  11.219   6.483  0.2015 -0.2613 -0.2574
 1093loPI   C2A17480   9.719  11.153   6.948  0.5043  0.0477  0.0649
 1093loPI   C3A17481   9.654  11.087   7.410 -0.0450 -0.1136 -0.0703
 1093loPI   C4A17482   9.603  11.151   7.859 -0.0356 -0.1959  0.0729
 1093loPI   C5A17483   9.762  11.332   8.170  0.0066  0.0968 -0.1994
 1093loPI   C6A17484  10.098  11.283   8.528 -0.1139 -0.3546 -0.5710
 1093loPI   C1B17485   9.282  11.065   6.782  0.1964 -0.0686 -0.0846
 1093loPI   C2B17486   9.160  11.095   7.167  0.1808 -0.2652  0.2019
 1093loPI   C3B17487   9.153  11.077   7.632  0.1316  0.0747  0.2050
 1093loPI   C4B17488   9.213  11.073   8.110 -0.0325 -0.2843 -0.1508
 1094loPI    C117489   1.295   6.554   5.356 -0.0459  0.0439  0.1040
 1094loPI    C217490   1.069   6.756   5.617 -0.0487  0.2507 -0.0560
 1094loPI    C317491   0.922   6.659   5.259 -0.0685 -0.0929  0.0422
 1094loPI   PO417492   1.435   6.338   5.447 -0.2261 -0.3130  0.0334
 1094loPI   GL117493   1.537   6.225   5.864  0.2584  0.1282  0.0692
 1094loPI   GL217494   1.457   6.491   6.002  0.0203  0.2886  0.1025
 1094loPI   C1A17495   1.417   5.949   6.244  0.1422  0.0683  0.0762
 1094loPI   C2A17496   1.370   6.055   6.678 -0.2911  0.1599 -0.1099
 1094loPI   C3A17497   1.462   6.111   7.070  0.1166  0.1666  0.1050
 1094loPI   C4A17498   1.332   6.037   7.428 -0.0169 -0.0920 -0.1446
 1094loPI   C5A17499   1.345   6.096   7.902  0.0185  0.1859 -0.0474
 1094loPI   C6A17500   1.664   6.396   8.118  0.1170 -0.2563 -0.1283
 1094loPI   C1B17501   1.536   6.412   6.407 -0.1078  0.0700  0.0672
 1094loPI   C2B17502   1.623   6.509   6.815  0.0056 -0.0788  0.3074
 1094loPI   C3B17503   1.658   6.588   7.196 -0.1111 -0.0122 -0.1121
 1094loPI   C4B17504   1.598   6.565   7.651  0.4238  0.2077  0.1206
 1095loPI    C117505   6.281   7.498   5.250 -0.3930 -0.0915  0.1307
 1095loPI    C217506   6.150   7.794   5.016  0.1536 -0.0505 -0.1400
 1095loPI    C317507   6.160   7.420   4.877  0.1315 -0.0850 -0.0496
 1095loPI   PO417508   6.259   7.425   5.512 -0.1334 -0.0091  0.5086
 1095loPI   GL117509   6.062   7.168   5.838  0.0945  0.1900 -0.1538
 1095loPI   GL217510   5.896   6.989   5.806  0.0279  0.2834 -0.2423
 1095loPI   C1A17511   6.257   6.961   6.255 -0.1525  0.0004 -0.0886
 1095loPI   C2A17512   6.193   6.991   6.669  0.1824  0.1698  0.1199
 1095loPI   C3A17513   6.237   6.988   7.107  0.2422 -0.2828  0.1122
 1095loPI   C4A17514   6.130   6.973   7.558 -0.1065 -0.2087 -0.0542
 1095loPI   C5A17515   6.157   6.976   7.967  0.1828  0.1987 -0.0473
 1095loPI   C6A17516   6.250   7.127   8.376  0.0404 -0.0309 -0.1687
 1095loPI   C1B17517   5.772   6.931   6.295 -0.0721 -0.0484 -0.0171
 1095loPI   C2B17518   5.673   6.875   6.649  0.1224  0.0256 -0.0222
 1095loPI   C3B17519   5.722   6.985   7.091  0.1296  0.2605 -0.1472
 1095loPI   C4B17520   5.659   6.979   7.597 -0.2542 -0.1483 -0.0412
 1096loPI    C117521   1.222   7.060   5.084 -0.0602 -0.0777  0.0244
 1096loPI    C217522   1.515   7.177   4.837 -0.0457  0.0908  0.1200
 1096loPI    C317523   1.407   6.792   4.852 -0.0005  0.0687 -0.0990
 1096loPI   PO417524   1.257   7.190   5.368  0.0563 -0.4774  0.0381
 1096loPI   GL117525   1.267   7.283   5.836  0.1846  0.2402 -0.0298
 1096loPI   GL217526   0.986   7.434   5.771  0.0342  0.1950  0.0285
 1096loPI   C1A17527   1.203   6.996   6.097  0.1795 -0.2405  0.1089
 1096loPI   C2A17528   1.293   6.900   6.567  0.1332 -0.0031  0.4379
 1096loPI   C3A17529   1.246   6.993   6.941 -0.1419  0.0581 -0.0281
 1096loPI   C4A17530   1.290   6.917   7.420  0.0511  0.0674  0.0445
 1096loPI   C5A17531   1.381   6.992   7.882  0.0156  0.2152  0.2942
 1096loPI   C6A17532   1.480   7.400   8.068 -0.1696  0.0247  0.3039
 1096loPI   C1B17533   0.993   7.371   6.302  0.5086  0.1182 -0.0257
 1096loPI   C2B17534   1.002   7.351   6.717 -0.1211  0.1079  0.2676
 1096loPI   C3B17535   0.968   7.367   7.194 -0.4654  0.1347  0.0538
 1096loPI   C4B17536   1.005   7.366   7.694 -0.2719 -0.2033 -0.1770
 1097loPI    C117537  16.032   9.272   5.290  0.2496 -0.2883 -0.1253
 1097loPI    C217538  16.147   8.996   5.025 -0.0802 -0.1589 -0.4100
 1097loPI    C317539  15.812   9.205   4.964 -0.0709 -0.0061  0.0270
 1097loPI   PO417540  16.073   9.087   5.562 -0.0026  0.0662  0.1019
 1097loPI   GL117541  16.133   9.122   6.131  0.0389 -0.0274 -0.0341
 1097loPI   GL217542  16.016   8.851   6.261 -0.0789 -0.3982  0.2188
 1097loPI   C1A17543  16.166   9.290   6.563 -0.3465 -0.0484  0.0050
 1097loPI   C2A17544  16.159   9.257   6.948  0.2062  0.0657  0.0643
 1097loPI   C3A17545  16.131   9.226   7.413 -0.0441  0.0935 -0.1759
 1097loPI   C4A17546  16.157   9.163   7.777  0.2922  0.0969  0.0967
 1097loPI   C5A17547  16.170   9.309   8.227  0.0758 -0.1016 -0.0906
 1097loPI   C6A17548  16.046   9.405   8.675  0.1154  0.2231 -0.0415
 1097loPI   C1B17549  16.016   8.720   6.712 -0.0033 -0.0908 -0.2825
 1097loPI   C2B17550  15.974   8.801   7.130  0.2077 -0.1853 -0.1234
 1097loPI   C3B17551  15.865   8.791   7.513 -0.2365  0.0758 -0.0439
 1097loPI   C4B17552  16.030   8.746   7.955 -0.4707 -0.2579  0.1108
 1098loPI    C117553  16.586   4.327   5.715 -0.0638  0.2005 -0.1559
 1098loPI    C217554  16.919   4.519   5.605 -0.0759  0.1837 -0.2223
 1098loPI    C317555  16.728   4.286   5.343  0.0329 -0.0536 -0.0932
 1098loPI   PO417556  16.573   4.306   5.960 -0.0920  0.1518  0.0544
 1098loPI   GL117557  16.536   4.513   6.345 -0.1079 -0.2203 -0.3430
 1098loPI   GL217558  16.675   4.847   6.406 -0.0243 -0.2357 -0.4546
 1098loPI   C1A17559  16.518   4.405   6.783  0.0547 -0.3135  0.0101
 1098loPI   C2A17560  16.436   4.412   7.156  0.0072 -0.2114  0.0326
 1098loPI   C3A17561  16.480   4.484   7.458 -0.1560  0.1917 -0.1247
 1098loPI   C4A17562  16.589   4.462   7.796 -0.0556  0.0723  0.1958
 1098loPI   C5A17563  16.435   4.558   8.158  0.1388 -0.0612  0.0493
 1098loPI   C6A17564  16.176   4.846   8.337  0.1984  0.2328  0.0980
 1098loPI   C1B17565  16.648   4.883   6.756 -0.1833  0.0355 -0.1299
 1098loPI   C2B17566  16.685   4.867   7.176 -0.0749 -0.0197  0.1847
 1098loPI   C3B17567  16.747   4.948   7.593 -0.0771 -0.0979  0.0580
 1098loPI   C4B17568  16.789   4.946   8.077  0.0263 -0.0696  0.3826
 1099loPI    C117569   2.227   9.104   5.523  0.1341 -0.1337 -0.0571
 1099loPI    C217570   2.017   8.842   5.305 -0.1538  0.1511 -0.1293
 1099loPI    C317571   1.906   9.226   5.319  0.0143  0.1899  0.3131
 1099loPI   PO417572   2.189   8.979   5.783 -0.0930 -0.3906  0.1039
 1099loPI   GL117573   2.038   8.924   6.188  0.2830  0.0148  0.0387
 1099loPI   GL217574   1.883   9.232   6.200 -0.2116 -0.0584  0.2223
 1099loPI   C1A17575   2.135   8.770   6.615 -0.0344  0.0461  0.3111
 1099loPI   C2A17576   2.160   8.736   7.036 -0.1605 -0.1246 -0.0823
 1099loPI   C3A17577   2.111   8.745   7.490  0.1924 -0.0223 -0.1375
 1099loPI   C4A17578   2.068   8.805   7.947 -0.0642 -0.3470  0.1852
 1099loPI   C5A17579   2.146   9.224   8.296  0.0008 -0.1002 -0.2181
 1099loPI   C6A17580   2.151   9.667   8.363 -0.0583 -0.4310 -0.0094
 1099loPI   C1B17581   1.846   9.185   6.647 -0.2540  0.2056 -0.0407
 1099loPI   C2B17582   1.787   9.170   7.012 -0.1959 -0.1880 -0.0346
 1099loPI   C3B17583   1.825   9.185   7.460  0.2543  0.0295 -0.0546
 1099loPI   C4B17584   1.680   9.209   7.917 -0.1964 -0.2075  0.3412
 1100loPI    C117585   1.071   1.050   5.483 -0.0668 -0.0950  0.3357
 1100loPI    C217586   1.244   0.698   5.563 -0.0995 -0.2161 -0.1025
 1100loPI    C317587   1.013   0.739   5.239 -0.0232  0.2341 -0.1072
 1100loPI   PO417588   1.053   1.117   5.726 -0.0445  0.1123 -0.2111
 1100loPI   GL117589   1.190   0.893   6.096  0.0530 -0.0116  0.0058
 1100loPI   GL217590   0.953   0.547   6.263 -0.0277  0.1224  0.0343
 1100loPI   C1A17591   1.235   1.138   6.471  0.1004 -0.2449 -0.0042
 1100loPI   C2A17592   1.261   1.044   6.903 -0.1375 -0.0558  0.2146
 1100loPI   C3A17593   1.091   1.050   7.412  0.0399  0.1181 -0.1404
 1100loPI   C4A17594   1.011   1.162   7.840 -0.1776 -0.0777  0.3666
 1100loPI   C5A17595   0.593   1.179   8.118 -0.0153  0.0400  0.1148
 1100loPI   C6A17596   0.534   0.877   8.528 -0.1276 -0.0600 -0.0106
 1100loPI   C1B17597   0.976   0.677   6.683 -0.0187  0.4108  0.2026
 1100loPI   C2B17598   0.994   0.589   7.158  0.1307  0.2218 -0.2201
 1100loPI   C3B17599   0.862   0.680   7.586 -0.2568 -0.2414  0.0925
 1100loPI   C4B17600   0.797   0.737   8.005 -0.0197 -0.0091 -0.1487
 1101loPI    C117601   7.659   5.863   5.371 -0.1180 -0.0375  0.2350
 1101loPI    C217602   7.539   6.136   5.104 -0.0235 -0.0774  0.1512
 1101loPI    C317603   7.911   5.988   5.086 -0.0895 -0.2471  0.1661
 1101loPI   PO417604   7.441   6.032   5.570  0.0225  0.2358  0.0745
 1101loPI   GL117605   7.103   6.276   5.913 -0.3982  0.2949  0.2227
 1101loPI   GL217606   6.975   6.060   5.890  0.0111 -0.0185  0.0624
 1101loPI   C1A17607   7.351   6.246   6.235  0.2439 -0.0491  0.3046
 1101loPI   C2A17608   7.365   6.264   6.605 -0.0009  0.0367  0.2187
 1101loPI   C3A17609   7.353   6.362   7.067 -0.0852  0.0867 -0.1240
 1101loPI   C4A17610   7.281   6.299   7.488  0.0325 -0.0775  0.2410
 1101loPI   C5A17611   7.296   6.118   7.847  0.0776 -0.0250  0.1619
 1101loPI   C6A17612   6.993   5.893   8.021  0.0158 -0.0288  0.0656
 1101loPI   C1B17613   6.869   6.162   6.385 -0.3483  0.2822  0.0867
 1101loPI   C2B17614   6.826   6.219   6.820 -0.4981  0.2521 -0.3048
 1101loPI   C3B17615   6.879   6.238   7.233 -0.1643 -0.2207  0.0818
 1101loPI   C4B17616   6.759   6.173   7.585  0.0820 -0.2222 -0.1427
 1102loPI    C117617   2.472  16.585   5.636 -0.1661 -0.0574  0.1692
 1102loPI    C217618   2.254  16.652   5.308  0.1625  0.1616 -0.0113
 1102loPI    C317619   2.653  16.667   5.288  0.1932 -0.0724  0.3476
 1102loPI   PO417620   2.318  16.499   5.832  0.0330  0.4328  0.0686
 1102loPI   GL117621   2.365  16.413   6.295 -0.1283 -0.1460  0.2263
 1102loPI   GL217622   2.664  16.332   6.426  0.2625 -0.2439  0.1945
 1102loPI   C1A17623   2.388  16.445   6.800  0.0795 -0.0440  0.0229
 1102loPI   C2A17624   2.427  16.355   7.207  0.2773 -0.1053 -0.0012
 1102loPI   C3A17625   2.428  16.367   7.643  0.0511  0.0555 -0.4210
 1102loPI   C4A17626   2.486  16.379   8.131 -0.0420  0.2095 -0.3603
 1102loPI   C5A17627   2.662  16.262   8.620 -0.2115  0.1162  0.2462
 1102loPI   C6A17628   2.829  15.775   8.752  0.1599  0.0128  0.1095
 1102loPI   C1B17629   2.889  16.329   6.775 -0.1171 -0.2477  0.1482
 1102loPI   C2B17630   2.928  16.412   7.256 -0.0704 -0.1798  0.2248
 1102loPI   C3B17631   2.938  16.447   7.701 -0.1033 -0.3993  0.1537
 1102loPI   C4B17632   2.971  16.416   8.090 -0.0318  0.2029 -0.0319
 1103loPI    C117633  12.883   9.282   5.413  0.0109 -0.0638 -0.1275
 1103loPI    C217634  13.098   9.338   5.081  0.3048 -0.0889  0.0547
 1103loPI    C317635  12.759   9.128   5.066  0.3199 -0.0973 -0.2265
 1103loPI   PO417636  13.034   9.223   5.604  0.0057  0.1191  0.3151
 1103loPI   GL117637  12.911   9.319   6.056 -0.0934 -0.3774 -0.1892
 1103loPI   GL217638  13.199   9.121   6.094  0.1066  0.0905  0.0372
 1103loPI   C1A17639  12.774   9.329   6.498  0.0351  0.2114 -0.2506
 1103loPI   C2A17640  12.763   9.257   6.918  0.2564 -0.2413 -0.0897
 1103loPI   C3A17641  12.773   9.248   7.347 -0.2080 -0.1027 -0.1142
 1103loPI   C4A17642  12.732   9.300   7.774 -0.3588 -0.0379  0.1278
 1103loPI   C5A17643  12.738   9.461   8.216 -0.5784 -0.1821  0.1166
 1103loPI   C6A17644  12.343   9.428   8.542  0.1259  0.0263 -0.0724
 1103loPI   C1B17645  13.119   8.835   6.439 -0.0940  0.0801 -0.1229
 1103loPI   C2B17646  13.087   8.867   6.882 -0.0100 -0.0066  0.1519
 1103loPI   C3B17647  13.090   8.873   7.344 -0.1309  0.0718  0.1228
 1103loPI   C4B17648  13.109   8.875   7.758  0.0286 -0.1406  0.0790
 1104loPI    C117649  17.767   9.211   5.436  0.0723  0.0294 -0.0212
 1104loPI    C217650  17.779   9.540   5.208 -0.0061 -0.0549 -0.1482
 1104loPI    C317651  17.558   9.227   5.095  0.0182 -0.1278  0.0041
 1104loPI   PO417652  17.754   9.287   5.676  0.2172 -0.1582  0.0008
 1104loPI   GL117653  17.900   9.147   6.052  0.0493 -0.1099  0.1897
 1104loPI   GL217654  17.531   9.030   6.136 -0.1361 -0.0359  0.1717
 1104loPI   C1A17655  18.059   9.123   6.525 -0.3924 -0.1740  0.1169
 1104loPI   C2A17656  18.073   9.042   6.977 -0.1338 -0.0083 -0.1999
 1104loPI   C3A17657  17.959   9.064   7.354 -0.1055  0.0657 -0.0537
 1104loPI   C4A17658  17.982   8.957   7.799  0.1029  0.1964  0.0018
 1104loPI   C5A17659  17.981   9.094   8.168 -0.0137 -0.1575  0.0482
 1104loPI   C6A17660  18.029   9.019   8.592 -0.1938  0.3194  0.0184
 1104loPI   C1B17661  17.521   9.086   6.511  0.1120  0.1567 -0.0035
 1104loPI   C2B17662  17.534   8.971   6.947 -0.1261  0.1446 -0.0703
 1104loPI   C3B17663  17.443   9.003   7.308 -0.4116 -0.0715 -0.2270
 1104loPI   C4B17664  17.459   8.954   7.768 -0.0535  0.1156 -0.1130
 1105loPI    C117665  14.769   8.001   5.660  0.1249  0.2018 -0.1027
 1105loPI    C217666  15.002   7.692   5.558 -0.0976 -0.0394  0.1032
 1105loPI    C317667  14.675   7.777   5.342 -0.0936 -0.0117  0.1078
 1105loPI   PO417668  14.739   7.907   5.941  0.1333  0.0007  0.1468
 1105loPI   GL117669  14.875   8.157   6.302 -0.2955  0.1000 -0.0355
 1105loPI   GL217670  15.106   7.878   6.393  0.3373  0.2241  0.2168
 1105loPI   C1A17671  14.692   8.181   6.769 -0.3600 -0.1285 -0.1669
 1105loPI   C2A17672  14.745   8.183   7.254 -0.1073  0.1456  0.5024
 1105loPI   C3A17673  14.734   8.243   7.747 -0.1446 -0.1140 -0.0336
 1105loPI   C4A17674  14.688   8.219   8.206 -0.2292 -0.1576  0.4357
 1105loPI   C5A17675  14.991   8.064   8.536  0.0906  0.0818  0.1526
 1105loPI   C6A17676  14.914   7.824   8.916 -0.1477 -0.1384 -0.0323
 1105loPI   C1B17677  15.051   7.816   6.778 -0.0267  0.0924  0.2199
 1105loPI   C2B17678  15.033   7.765   7.205  0.1779  0.2242 -0.0218
 1105loPI   C3B17679  15.049   7.816   7.659  0.3808 -0.0075 -0.0705
 1105loPI   C4B17680  15.053   7.820   8.114  0.1091  0.1545 -0.2665
 1106loPI    C117681  10.405   1.325   5.652  0.0133 -0.0345  0.0471
 1106loPI    C217682  10.068   1.142   5.538  0.0093  0.0232 -0.0345
 1106loPI    C317683  10.424   0.982   5.446  0.0064  0.0838 -0.1535
 1106loPI   PO417684  10.412   1.404   5.883 -0.1153  0.3483 -0.0169
 1106loPI   GL117685  10.198   1.300   6.290  0.0491  0.1631 -0.0205
 1106loPI   GL217686  10.219   1.602   6.283 -0.1386 -0.2959 -0.0179
 1106loPI   C1A17687  10.005   1.188   6.641 -0.1185 -0.0873 -0.0156
 1106loPI   C2A17688   9.592   1.095   6.907 -0.1955 -0.1322 -0.1429
 1106loPI   C3A17689   9.540   1.076   7.364  0.0177  0.2554  0.1857
 1106loPI   C4A17690   9.940   1.077   7.620 -0.2276  0.0880 -0.1181
 1106loPI   C5A17691  10.182   1.102   7.928  0.0038  0.0081 -0.1739
 1106loPI   C6A17692  10.611   1.228   8.078  0.1126  0.2548  0.0218
 1106loPI   C1B17693  10.248   1.587   6.741  0.1873 -0.1510 -0.0056
 1106loPI   C2B17694  10.211   1.731   7.168  0.2698 -0.0898  0.2538
 1106loPI   C3B17695  10.189   1.550   7.536  0.1836  0.0836 -0.3259
 1106loPI   C4B17696  10.257   1.597   8.035  0.0925 -0.0635  0.1429
 1107loPI    C117697   4.157   2.593   5.402  0.0611  0.1018  0.0551
 1107loPI    C217698   4.057   2.267   5.193 -0.0401  0.1553  0.0194
 1107loPI    C317699   4.137   2.610   5.003  0.0250  0.1624  0.0593
 1107loPI   PO417700   4.330   2.513   5.577 -0.0498 -0.2145  0.0694
 1107loPI   GL117701   4.426   2.472   5.910  0.2431  0.1291 -0.0225
 1107loPI   GL217702   4.121   2.316   6.047  0.0305 -0.0665  0.0287
 1107loPI   C1A17703   4.424   2.736   6.318 -0.2592  0.0247  0.0131
 1107loPI   C2A17704   4.449   2.730   6.761  0.1166  0.2104  0.2094
 1107loPI   C3A17705   4.423   2.770   7.220  0.3692 -0.0050  0.3022
 1107loPI   C4A17706   4.515   2.649   7.651  0.1602 -0.1207 -0.0958
 1107loPI   C5A17707   4.518   2.609   8.095 -0.0107  0.3118  0.0344
 1107loPI   C6A17708   4.272   2.663   8.465  0.2199 -0.0970 -0.0813
 1107loPI   C1B17709   4.287   2.293   6.383  0.1444 -0.2298 -0.0447
 1107loPI   C2B17710   4.238   2.225   6.856 -0.0492 -0.2046  0.2881
 1107loPI   C3B17711   4.245   2.321   7.295  0.1644  0.0441 -0.2972
 1107loPI   C4B17712   4.266   2.236   7.725  0.0270 -0.0824 -0.1058
 1108loPI    C117713  11.881   2.712   5.712  0.0637 -0.1037  0.0985
 1108loPI    C217714  11.898   3.049   5.497 -0.1645 -0.1263  0.0424
 1108loPI    C317715  12.097   2.724   5.375  0.0096 -0.0303  0.0662
 1108loPI   PO417716  11.801   2.761   5.907 -0.1278 -0.0828 -0.2555
 1108loPI   GL117717  11.626   2.563   6.328  0.0838  0.1276 -0.2772
 1108loPI   GL217718  11.236   2.451   6.297 -0.0272 -0.2080 -0.1127
 1108loPI   C1A17719  11.752   2.536   6.805  0.0508 -0.1002 -0.0102
 1108loPI   C2A17720  11.705   2.806   7.245  0.0458 -0.2398  0.1497
 1108loPI   C3A17721  11.432   2.685   7.603 -0.0318  0.2020  0.1702
 1108loPI   C4A17722  11.103   2.619   7.832  0.1783 -0.2272 -0.2487
 1108loPI   C5A17723  10.721   2.689   7.807 -0.1669 -0.3831 -0.3819
 1108loPI   C6A17724  10.501   2.413   7.777  0.1160 -0.1540 -0.1182
 1108loPI   C1B17725  11.135   2.519   6.734  0.1455 -0.1461  0.2595
 1108loPI   C2B17726  11.211   2.589   7.128  0.3013  0.0989  0.2344
 1108loPI   C3B17727  11.512   2.344   7.198 -0.0758 -0.0034  0.0194
 1108loPI   C4B17728  11.390   2.164   7.541  0.4172 -0.1337  0.0205
 1109loPI    C117729   1.426   8.602   5.429  0.2109 -0.0649  0.1609
 1109loPI    C217730   1.240   8.525   5.084  0.2655 -0.0557  0.1293
 1109loPI    C317731   1.457   8.240   5.262  0.1921 -0.0776  0.1846
 1109loPI   PO417732   1.264   8.655   5.597  0.1295 -0.2763 -0.0717
 1109loPI   GL117733   1.306   8.716   5.984  0.0379 -0.2423 -0.1365
 1109loPI   GL217734   1.499   8.660   6.093 -0.2042  0.0022  0.0893
 1109loPI   C1A17735   1.051   8.734   6.331  0.2345 -0.0894  0.2626
 1109loPI   C2A17736   1.149   8.711   6.768  0.1361  0.4509 -0.2301
 1109loPI   C3A17737   1.057   8.631   7.163  0.0710 -0.0548  0.0545
 1109loPI   C4A17738   1.098   8.683   7.608 -0.2413 -0.0660 -0.1306
 1109loPI   C5A17739   1.062   8.560   7.930 -0.1513 -0.0777 -0.0459
 1109loPI   C6A17740   1.431   8.207   8.023 -0.0241  0.2013  0.0089
 1109loPI   C1B17741   1.532   8.862   6.410 -0.2699 -0.1512 -0.1813
 1109loPI   C2B17742   1.690   8.737   6.870 -0.2056  0.1445  0.0165
 1109loPI   C3B17743   1.558   8.711   7.283 -0.2814  0.3336 -0.0844
 1109loPI   C4B17744   1.682   8.629   7.654  0.1351 -0.3025  0.0102
 1110loPI    C117745  14.770   6.049   5.469 -0.0363  0.0720 -0.0654
 1110loPI    C217746  14.389   6.111   5.365 -0.1650 -0.2452  0.2001
 1110loPI    C317747  14.648   5.964   5.098 -0.2827 -0.2409  0.0827
 1110loPI   PO417748  14.763   5.966   5.704  0.1160 -0.0004  0.2321
 1110loPI   GL117749  14.644   5.999   6.123  0.0091  0.1663 -0.2642
 1110loPI   GL217750  14.292   5.921   6.219 -0.3481  0.0721 -0.0933
 1110loPI   C1A17751  14.773   5.995   6.532  0.3815 -0.1431 -0.0305
 1110loPI   C2A17752  14.715   6.018   6.910  0.0023 -0.0231  0.2914
 1110loPI   C3A17753  14.815   6.032   7.366  0.2370  0.0964 -0.2264
 1110loPI   C4A17754  14.738   6.036   7.774  0.0984  0.2347  0.1249
 1110loPI   C5A17755  14.680   5.989   8.330 -0.0761  0.0538  0.2626
 1110loPI   C6A17756  14.906   5.910   8.691  0.0076 -0.2335  0.0742
 1110loPI   C1B17757  14.251   5.967   6.671  0.0622  0.2920  0.0255
 1110loPI   C2B17758  14.256   5.921   7.104  0.0658 -0.1041  0.3038
 1110loPI   C3B17759  14.323   5.962   7.549  0.0127 -0.0720  0.3048
 1110loPI   C4B17760  14.253   6.014   8.038  0.0349  0.5715  0.1635
 1111loPI    C117761   8.201  17.759   5.196 -0.1646  0.0037 -0.1479
 1111loPI    C217762   8.155  17.362   5.170  0.0317 -0.0229 -0.1144
 1111loPI    C317763   8.380  17.555   4.901  0.1999  0.0204  0.0551
 1111loPI   PO417764   8.286  17.782   5.417  0.2594  0.3837  0.1434
 1111loPI   GL117765   8.365  17.975   5.860  0.2658  0.1091 -0.3385
 1111loPI   GL217766   8.720  17.979   6.025  0.0618 -0.1616  0.1254
 1111loPI   C1A17767   8.139  17.865   6.274 -0.0702  0.1915  0.0001
 1111loPI   C2A17768   8.135  17.835   6.747 -0.2133  0.0109  0.0672
 1111loPI   C3A17769   8.133  17.817   7.192  0.1582 -0.0115  0.1572
 1111loPI   C4A17770   8.120  17.751   7.632  0.0621 -0.0947  0.2077
 1111loPI   C5A17771   8.159  17.751   8.035 -0.0889 -0.1905  0.3031
 1111loPI   C6A17772   8.294  17.594   8.345 -0.1076 -0.1240 -0.2086
 1111loPI   C1B17773   8.611  17.941   6.465 -0.0277 -0.1643  0.3850
 1111loPI   C2B17774   8.665  17.893   6.900  0.2945  0.1229  0.3078
 1111loPI   C3B17775   8.613  17.781   7.279 -0.1564 -0.2749 -0.1357
 1111loPI   C4B17776   8.615  17.847   7.720  0.5390  0.2609  0.1231
 1112loPI    C117777   4.135  12.000   5.337  0.0695 -0.1889 -0.1733
 1112loPI    C217778   3.992  11.837   5.001 -0.0499 -0.1087 -0.1621
 1112loPI    C317779   4.154  12.202   4.992 -0.1339 -0.0701 -0.1168
 1112loPI   PO417780   4.038  12.013   5.560 -0.0769 -0.0938 -0.0180
 1112loPI   GL117781   4.173  11.841   6.012 -0.1495 -0.0894 -0.1732
 1112loPI   GL217782   4.159  12.144   6.088  0.4891 -0.2568 -0.0415
 1112loPI   C1A17783   4.351  11.774   6.403 -0.1746  0.0892  0.2436
 1112loPI   C2A17784   4.365  11.777   6.787  0.4018  0.0063 -0.0802
 1112loPI   C3A17785   4.248  11.756   7.231  0.0168  0.1149 -0.2565
 1112loPI   C4A17786   4.291  11.809   7.623  0.4353  0.1702 -0.1117
 1112loPI   C5A17787   4.365  11.626   7.996  0.1998  0.0941  0.0670
 1112loPI   C6A17788   4.548  11.360   8.410  0.1667  0.0250 -0.2097
 1112loPI   C1B17789   4.039  12.239   6.536  0.0785  0.1720 -0.3574
 1112loPI   C2B17790   3.955  12.188   6.931 -0.1224 -0.0247 -0.1226
 1112loPI   C3B17791   3.921  12.090   7.352 -0.0006 -0.0701 -0.0818
 1112loPI   C4B17792   3.930  12.145   7.781 -0.0481  0.0556 -0.1430
 1113loPI    C117793   8.641  11.999   5.462  0.0275  0.0534 -0.0738
 1113loPI    C217794   9.001  12.036   5.292  0.1199  0.1322  0.1353
 1113loPI    C317795   8.760  11.735   5.187  0.3072 -0.0081  0.1026
 1113loPI   PO417796   8.707  11.997   5.712  0.0896  0.2168  0.0576
 1113loPI   GL117797   8.459  11.967   6.085  0.0824 -0.3589  0.3173
 1113loPI   GL217798   8.118  11.927   6.256  0.2408  0.1157  0.0405
 1113loPI   C1A17799   8.588  11.889   6.513  0.2743 -0.2807  0.2436
 1113loPI   C2A17800   8.650  11.897   6.895 -0.0363 -0.1084  0.0034
 1113loPI   C3A17801   8.627  11.974   7.270 -0.0896 -0.2577  0.3259
 1113loPI   C4A17802   8.560  11.967   7.727  0.0433  0.1038  0.0284
 1113loPI   C5A17803   8.558  11.703   8.114  0.0949 -0.0418 -0.2306
 1113loPI   C6A17804   8.476  11.295   8.214  0.1749  0.1573 -0.0010
 1113loPI   C1B17805   8.049  11.825   6.685 -0.0327 -0.1301  0.1438
 1113loPI   C2B17806   8.141  11.892   7.113 -0.1602 -0.3787  0.1363
 1113loPI   C3B17807   8.132  11.819   7.526  0.1660  0.3188 -0.2141
 1113loPI   C4B17808   7.999  11.906   7.932 -0.0549 -0.1882 -0.0585
 1114loPI    C117809  12.489   6.845   5.839 -0.0921 -0.1625  0.0250
 1114loPI    C217810  12.567   7.074   5.520 -0.2008 -0.0110  0.1055
 1114loPI    C317811  12.215   6.885   5.551 -0.1877 -0.0311  0.1325
 1114loPI   PO417812  12.669   6.749   5.896 -0.0150 -0.0931  0.0036
 1114loPI   GL117813  12.901   6.847   6.191  0.0836 -0.1152 -0.2190
 1114loPI   GL217814  13.099   6.599   6.457  0.0798  0.1162 -0.0911
 1114loPI   C1A17815  12.847   6.989   6.614 -0.0339  0.1117 -0.0557
 1114loPI   C2A17816  12.781   7.050   7.070  0.0540 -0.0981  0.0042
 1114loPI   C3A17817  12.820   7.120   7.526 -0.1033 -0.1038 -0.2443
 1114loPI   C4A17818  12.868   7.105   7.944 -0.1518  0.0661 -0.1183
 1114loPI   C5A17819  12.787   6.894   8.308 -0.0608  0.2698 -0.0260
 1114loPI   C6A17820  12.768   6.521   8.521 -0.3319 -0.0221  0.0218
 1114loPI   C1B17821  13.165   6.665   6.816 -0.0295  0.1505  0.0570
 1114loPI   C2B17822  13.170   6.639   7.305 -0.0756  0.0872  0.1732
 1114loPI   C3B17823  13.128   6.735   7.702  0.0027 -0.0281  0.0093
 1114loPI   C4B17824  13.221   6.745   8.093  0.1877  0.1698 -0.0493
 1115loPI    C117825   7.335   1.034   5.294  0.0096 -0.2114 -0.0001
 1115loPI    C217826   7.667   0.864   5.151  0.0204 -0.1886 -0.0021
 1115loPI    C317827   7.369   0.960   4.902  0.2124  0.2428 -0.0749
 1115loPI   PO417828   7.247   0.930   5.493 -0.2048 -0.0178 -0.1627
 1115loPI   GL117829   7.334   0.913   5.874 -0.0989 -0.2036 -0.1583
 1115loPI   GL217830   7.121   1.186   5.921 -0.1379 -0.0675 -0.0022
 1115loPI   C1A17831   7.475   0.816   6.229  0.0876 -0.1304  0.2313
 1115loPI   C2A17832   7.500   0.878   6.674 -0.1809 -0.3025 -0.1509
 1115loPI   C3A17833   7.444   0.939   7.129 -0.0315 -0.1106  0.2862
 1115loPI   C4A17834   7.507   0.832   7.566 -0.0061 -0.0474  0.1618
 1115loPI   C5A17835   7.570   0.945   7.936  0.1351 -0.0722 -0.0516
 1115loPI   C6A17836   7.737   1.174   8.325 -0.1882 -0.0523 -0.0437
 1115loPI   C1B17837   7.278   1.251   6.352 -0.2980  0.0008 -0.0944
 1115loPI   C2B17838   7.184   1.301   6.819 -0.2750  0.0820 -0.1064
 1115loPI   C3B17839   7.137   1.257   7.284 -0.0140  0.3365 -0.1688
 1115loPI   C4B17840   7.214   1.288   7.723 -0.0889 -0.1918 -0.2495
 1116loPI    C117841   7.452   3.111   5.146  0.0839  0.0028  0.2190
 1116loPI    C217842   7.256   2.770   5.216  0.1932 -0.0942  0.0591
 1116loPI    C317843   7.537   2.784   4.932  0.2077  0.1226  0.0827
 1116loPI   PO417844   7.410   3.198   5.448 -0.0401 -0.2128  0.0448
 1116loPI   GL117845   7.257   3.436   5.822 -0.1573 -0.1443  0.1487
 1116loPI   GL217846   7.430   3.211   5.952  0.0766  0.1164 -0.2102
 1116loPI   C1A17847   7.094   3.537   6.217 -0.2953  0.1805  0.1217
 1116loPI   C2A17848   7.157   3.610   6.697  0.1514  0.0671 -0.1128
 1116loPI   C3A17849   7.129   3.597   7.189  0.0609 -0.1455  0.2001
 1116loPI   C4A17850   7.107   3.585   7.549 -0.0250 -0.0526  0.1171
 1116loPI   C5A17851   7.208   3.672   8.001 -0.1169  0.1133  0.1933
 1116loPI   C6A17852   7.449   3.468   8.289 -0.2610  0.1226  0.2021
 1116loPI   C1B17853   7.410   3.132   6.380 -0.3145  0.0113 -0.2019
 1116loPI   C2B17854   7.462   3.172   6.818  0.3268  0.1145 -0.1227
 1116loPI   C3B17855   7.450   3.177   7.239 -0.0158 -0.0351  0.0490
 1116loPI   C4B17856   7.444   3.194   7.715  0.0231 -0.0491  0.0145
 1117loPI    C117857  10.510   6.313   5.591 -0.0890 -0.2810  0.2007
 1117loPI    C217858  10.691   6.104   5.302 -0.1500 -0.0584 -0.0014
 1117loPI    C317859  10.359   6.312   5.221 -0.0345  0.1986  0.1705
 1117loPI   PO417860  10.681   6.301   5.757  0.2761 -0.4947  0.1838
 1117loPI   GL117861  10.575   6.511   6.179 -0.0509  0.0270  0.4261
 1117loPI   GL217862  10.911   6.528   6.221 -0.0455  0.0175 -0.0048
 1117loPI   C1A17863  10.357   6.682   6.388 -0.2860  0.4327  0.1731
 1117loPI   C2A17864  10.334   6.571   6.860 -0.0881 -0.0870 -0.1533
 1117loPI   C3A17865  10.312   6.676   7.242  0.1644  0.0005  0.0429
 1117loPI   C4A17866  10.358   6.709   7.691 -0.1537 -0.1755 -0.3442
 1117loPI   C5A17867  10.619   6.738   8.115 -0.2148 -0.0121 -0.0979
 1117loPI   C6A17868  10.757   6.455   8.424 -0.0543  0.4250  0.0506
 1117loPI   C1B17869  10.859   6.702   6.604 -0.0382  0.2102 -0.0982
 1117loPI   C2B17870  10.795   6.723   7.015  0.2108  0.1731  0.1692
 1117loPI   C3B17871  10.808   6.759   7.422 -0.0174 -0.2019  0.0040
 1117loPI   C4B17872  10.883   6.815   7.726  0.1149  0.1772  0.0206
 1118loPI    C117873   0.373   5.096   5.650 -0.1549 -0.0426 -0.1748
 1118loPI    C217874   0.616   5.299   5.406 -0.1177  0.0995 -0.0216
 1118loPI    C317875   0.434   4.967   5.276  0.1756 -0.0229 -0.1305
 1118loPI   PO417876   0.516   4.958   5.875  0.1365  0.2752 -0.0908
 1118loPI   GL117877   0.583   4.967   6.250 -0.0448  0.1679 -0.1999
 1118loPI   GL217878   0.916   5.002   6.203 -0.0643  0.0722  0.1491
 1118loPI   C1A17879   0.439   5.020   6.635 -0.3284 -0.0905 -0.1808
 1118loPI   C2A17880   0.435   5.101   7.110 -0.3489  0.1854 -0.1406
 1118loPI   C3A17881   0.390   5.076   7.549  0.0596 -0.0731  0.2552
 1118loPI   C4A17882   0.530   5.060   7.923 -0.0471 -0.2518  0.0672
 1118loPI   C5A17883   0.355   5.046   8.277 -0.1296  0.3259 -0.0285
 1118loPI   C6A17884  -0.046   5.284   8.286 -0.1852 -0.0038 -0.0432
 1118loPI   C1B17885   0.948   5.114   6.612  0.2492  0.3703 -0.0804
 1118loPI   C2B17886   0.986   5.112   7.065  0.1532  0.2279  0.2486
 1118loPI   C3B17887   0.921   5.096   7.441  0.2004 -0.0165 -0.3322
 1118loPI   C4B17888   1.060   5.139   7.852  0.1873  0.2919 -0.1264
 1119loPI    C117889  16.776  14.357   5.524  0.1237 -0.0566  0.0278
 1119loPI    C217890  16.612  14.708   5.426  0.2134  0.0724  0.3268
 1119loPI    C317891  16.826  14.505   5.156  0.1371  0.2322  0.1434
 1119loPI   PO417892  16.940  14.376   5.672  0.2283  0.1125 -0.0901
 1119loPI   GL117893  16.997  14.407   6.124  0.1009  0.1147 -0.0402
 1119loPI   GL217894  17.238  14.256   6.321  0.0935  0.1226  0.2752
 1119loPI   C1A17895  16.904  14.641   6.627  0.0772  0.1983 -0.0725
 1119loPI   C2A17896  16.959  14.721   7.051 -0.3074  0.0525 -0.0071
 1119loPI   C3A17897  16.983  14.747   7.472  0.1425  0.0129  0.0543
 1119loPI   C4A17898  16.926  14.814   7.859  0.2475  0.3481  0.0340
 1119loPI   C5A17899  16.953  14.646   8.208  0.2495 -0.2045 -0.2002
 1119loPI   C6A17900  17.115  14.419   8.623  0.1539  0.1294 -0.0919
 1119loPI   C1B17901  17.238  14.182   6.741 -0.2260  0.0405  0.0776
 1119loPI   C2B17902  17.329  14.304   7.040 -0.1019  0.2822 -0.1774
 1119loPI   C3B17903  17.339  14.340   7.500  0.0014  0.1444  0.3161
 1119loPI   C4B17904  17.249  14.362   7.994  0.2248 -0.0571  0.3083
 1120loPI    C117905   4.371   3.649   5.306  0.2887  0.1068  0.0797
 1120loPI    C217906   4.587   3.751   4.986  0.0603  0.0704 -0.0885
 1120loPI    C317907   4.301   3.474   4.953 -0.0743  0.1836  0.1100
 1120loPI   PO417908   4.524   3.632   5.494  0.0377  0.2117 -0.0571
 1120loPI   GL117909   4.553   3.648   5.915 -0.2226 -0.0438 -0.0646
 1120loPI   GL217910   4.246   3.735   6.130  0.2122  0.0763  0.0806
 1120loPI   C1A17911   4.820   3.604   6.291  0.0661 -0.2379 -0.0737
 1120loPI   C2A17912   4.877   3.724   6.689  0.0510 -0.2034  0.1354
 1120loPI   C3A17913   4.863   3.676   7.108  0.2418  0.1042  0.0327
 1120loPI   C4A17914   4.738   3.662   7.528 -0.4119  0.2209  0.1331
 1120loPI   C5A17915   4.723   3.462   7.869 -0.0221 -0.0096 -0.0413
 1120loPI   C6A17916   4.616   3.115   8.113  0.2337  0.0001  0.0749
 1120loPI   C1B17917   4.351   3.687   6.486 -0.0211  0.0129  0.0279
 1120loPI   C2B17918   4.347   3.609   6.847 -0.0100  0.0531 -0.5288
 1120loPI   C3B17919   4.285   3.641   7.259 -0.1378 -0.0124 -0.0727
 1120loPI   C4B17920   4.253   3.539   7.663 -0.1368 -0.1528  0.0525
 1121loPI    C117921  16.597  11.680   5.719 -0.1014  0.3858  0.3878
 1121loPI    C217922  16.941  11.800   5.556 -0.0511 -0.4428 -0.1747
 1121loPI    C317923  16.594  11.942   5.417  0.0347 -0.1267 -0.0738
 1121loPI   PO417924  16.722  11.601   5.958 -0.1608 -0.1874  0.0479
 1121loPI   GL117925  16.681  11.818   6.298  0.2038 -0.1367  0.1902
 1121loPI   GL217926  16.645  11.556   6.449 -0.0532 -0.1932 -0.3247
 1121loPI   C1A17927  16.776  11.991   6.677  0.1333 -0.0317  0.1359
 1121loPI   C2A17928  16.781  12.041   7.126 -0.3782 -0.2308  0.0340
 1121loPI   C3A17929  16.747  12.021   7.551  0.0212 -0.0422 -0.2593
 1121loPI   C4A17930  16.415  11.974   7.985  0.3217  0.0869  0.1167
 1121loPI   C5A17931  16.057  12.004   8.216  0.1299 -0.0656 -0.0926
 1121loPI   C6A17932  16.053  11.766   8.581 -0.0174  0.0504  0.1800
 1121loPI   C1B17933  16.581  11.486   6.832  0.2820 -0.0448 -0.1800
 1121loPI   C2B17934  16.501  11.123   7.109  0.0235  0.0834 -0.1696
 1121loPI   C3B17935  16.434  11.034   7.591 -0.2038  0.1493  0.1369
 1121loPI   C4B17936  16.452  11.096   8.006  0.0241  0.0615 -0.0782
 1122loPI    C117937   0.450  10.078   5.689  0.0379  0.4516  0.1677
 1122loPI    C217938   0.557  10.309   5.380  0.1753  0.1147 -0.0434
 1122loPI    C317939   0.353   9.971   5.316  0.0745  0.1167  0.2506
 1122loPI   PO417940   0.604   9.981   5.795  0.2326 -0.0370  0.0656
 1122loPI   GL117941   0.846   9.890   6.137 -0.1561 -0.1318  0.2087
 1122loPI   GL217942   0.701  10.093   6.333 -0.1228 -0.3600 -0.0839
 1122loPI   C1A17943   0.942   9.618   6.535 -0.1245  0.0594  0.0673
 1122loPI   C2A17944   1.032   9.579   6.938 -0.2534 -0.1596 -0.1972
 1122loPI   C3A17945   0.933   9.585   7.384 -0.1289 -0.1109 -0.1524
 1122loPI   C4A17946   0.875   9.444   7.870 -0.3074  0.3491 -0.3353
 1122loPI   C5A17947   0.648   9.334   8.296 -0.0780  0.4303  0.2255
 1122loPI   C6A17948   0.858   9.258   8.742 -0.0812 -0.2243 -0.0168
 1122loPI   C1B17949   0.808  10.027   6.812  0.1824  0.2370 -0.1632
 1122loPI   C2B17950   0.658   9.979   7.232 -0.1583  0.1315  0.1261
 1122loPI   C3B17951   0.580   9.966   7.656  0.0086 -0.2025  0.2231
 1122loPI   C4B17952   0.629   9.793   7.997 -0.0669 -0.0575  0.0886
 1123loPI    C117953   4.613   0.058   5.311  0.1284 -0.1502  0.0785
 1123loPI    C217954   4.873   0.332   5.179 -0.1268  0.1792  0.2442
 1123loPI    C317955   4.707   0.074   4.923  0.2768  0.0344  0.1204
 1123loPI   PO417956   4.490   0.204   5.521  0.0464 -0.2055  0.0847
 1123loPI   GL117957   4.465   0.187   5.918 -0.1674  0.0590 -0.0478
 1123loPI   GL217958   4.753   0.033   6.008  0.2087 -0.1203 -0.0744
 1123loPI   C1A17959   4.537   0.425   6.269 -0.2181 -0.1277  0.0941
 1123loPI   C2A17960   4.461   0.498   6.741  0.0454 -0.0228  0.1560
 1123loPI   C3A17961   4.514   0.499   7.208  0.1808 -0.1596  0.2246
 1123loPI   C4A17962   4.506   0.484   7.660  0.0344 -0.1305 -0.2100
 1123loPI   C5A17963   4.412   0.309   8.041  0.1850  0.0560  0.2457
 1123loPI   C6A17964   4.431   0.322   8.467 -0.0550 -0.2618  0.3372
 1123loPI   C1B17965   4.757   0.011   6.507 -0.0342 -0.0076 -0.3022
 1123loPI   C2B17966   4.717   0.029   6.981  0.0935 -0.2003 -0.0072
 1123loPI   C3B17967   4.819   0.051   7.365 -0.2523 -0.0208  0.0562
 1123loPI   C4B17968   4.779  -0.050   7.811 -0.0648  0.0469 -0.0329
 1124loPI    C117969   1.518   3.721   5.596  0.1894  0.0408 -0.1083
 1124loPI    C217970   1.373   4.092   5.558 -0.0709 -0.0371  0.0886
 1124loPI    C317971   1.488   3.887   5.233 -0.3576  0.0468 -0.0691
 1124loPI   PO417972   1.346   3.596   5.788  0.1374 -0.2749 -0.0670
 1124loPI   GL117973   1.195   3.516   6.173 -0.0380 -0.0545  0.0181
 1124loPI   GL217974   1.344   3.394   6.244  0.3269 -0.0449 -0.1584
 1124loPI   C1A17975   0.968   3.702   6.507  0.0303 -0.5349  0.2197
 1124loPI   C2A17976   0.852   3.696   6.867 -0.0241  0.0183 -0.1510
 1124loPI   C3A17977   0.879   3.768   7.279 -0.0964 -0.0653  0.0785
 1124loPI   C4A17978   0.864   3.780   7.697  0.0280  0.1302  0.2022
 1124loPI   C5A17979   1.008   3.851   8.170  0.1419 -0.1903  0.1606
 1124loPI   C6A17980   0.867   3.963   8.604 -0.0313  0.0650  0.0102
 1124loPI   C1B17981   1.292   3.311   6.663  0.0558 -0.0629  0.1919
 1124loPI   C2B17982   1.205   3.342   7.030  0.3388  0.0372  0.0537
 1124loPI   C3B17983   1.207   3.360   7.502 -0.1755 -0.1544  0.2499
 1124loPI   C4B17984   1.218   3.425   7.957  0.1622  0.1919 -0.1342
 1125loPI    C117985   4.257  11.032   5.158  0.0647 -0.5241 -0.1794
 1125loPI    C217986   4.630  10.909   5.230  0.2275  0.1051  0.1165
 1125loPI    C317987   4.549  11.119   4.899  0.1694  0.1066  0.1317
 1125loPI   PO417988   4.195  11.150   5.375 -0.2322 -0.1841 -0.0102
 1125loPI   GL117989   4.143  11.119   5.674 -0.1051  0.1118  0.0186
 1125loPI   GL217990   4.026  11.361   5.841 -0.0819 -0.0848 -0.0121
 1125loPI   C1A17991   4.081  10.912   6.102 -0.2032 -0.2300  0.1443
 1125loPI   C2A17992   3.987  10.788   6.537 -0.1835  0.1694 -0.0478
 1125loPI   C3A17993   3.845  10.882   6.941 -0.2183 -0.0810  0.1525
 1125loPI   C4A17994   3.870  10.785   7.368  0.1109  0.0784  0.0625
 1125loPI   C5A17995   3.915  10.761   7.767 -0.0455 -0.0236  0.0827
 1125loPI   C6A17996   4.089  10.635   8.224  0.1682  0.2867 -0.0971
 1125loPI   C1B17997   4.172  11.331   6.272 -0.3154 -0.0840  0.1013
 1125loPI   C2B17998   4.073  11.298   6.639 -0.0349  0.1593 -0.1703
 1125loPI   C3B17999   4.076  11.302   7.104  0.1471  0.1662  0.0194
 1125loPI   C4B18000   4.023  11.296   7.490 -0.2304  0.2815 -0.2208
 1126loPI    C118001   9.504  11.905   5.322  0.1455 -0.1306  0.2587
 1126loPI    C218002   9.405  12.288   5.269 -0.2249 -0.2293  0.2078
 1126loPI    C318003   9.775  12.163   5.180 -0.1836  0.0580 -0.0406
 1126loPI   PO418004   9.357  11.921   5.669  0.0720  0.0124 -0.1150
 1126loPI   GL118005   9.037  11.724   5.951 -0.0776  0.0395 -0.0532
 1126loPI   GL218006   8.972  11.514   6.015  0.1427  0.0387 -0.1421
 1126loPI   C1A18007   9.104  11.959   6.265  0.0373  0.0138 -0.0028
 1126loPI   C2A18008   9.173  11.986   6.666  0.0858  0.0076 -0.0507
 1126loPI   C3A18009   9.114  11.971   7.209  0.2021 -0.2355  0.0574
 1126loPI   C4A18010   9.056  11.926   7.568  0.1982  0.0623  0.0175
 1126loPI   C5A18011   9.057  11.909   8.007  0.0475  0.0530 -0.0384
 1126loPI   C6A18012   8.850  12.126   8.220  0.1388 -0.0215 -0.0041
 1126loPI   C1B18013   8.916  11.544   6.481 -0.1764  0.2236 -0.1215
 1126loPI   C2B18014   8.982  11.512   6.931  0.0479 -0.1002 -0.0116
 1126loPI   C3B18015   8.867  11.471   7.401 -0.0083 -0.3756  0.0020
 1126loPI   C4B18016   8.880  11.504   7.814 -0.0328  0.1404 -0.4333
 1127loPI    C118017  13.886   3.552   5.628 -0.1085 -0.0596  0.0562
 1127loPI    C218018  13.632   3.753   5.394  0.2881  0.1052 -0.2450
 1127loPI    C318019  13.655   3.355   5.368 -0.0396  0.0742 -0.1084
 1127loPI   PO418020  13.870   3.631   5.889 -0.4138  0.3158 -0.0447
 1127loPI   GL118021  14.031   3.572   6.303 -0.1328 -0.1508  0.1563
 1127loPI   GL218022  13.767   3.714   6.528  0.0786 -0.1073 -0.0819
 1127loPI   C1A18023  14.252   3.708   6.662 -0.1582 -0.0125  0.0326
 1127loPI   C2A18024  14.296   3.752   7.087  0.0661 -0.1871  0.0344
 1127loPI   C3A18025  14.243   3.718   7.511 -0.0184 -0.1801  0.1350
 1127loPI   C4A18026  13.978   3.756   7.849  0.0688 -0.2678 -0.0375
 1127loPI   C5A18027  13.790   4.121   8.102 -0.1529 -0.0963 -0.2513
 1127loPI   C6A18028  13.537   4.150   8.579  0.4711 -0.2113 -0.1240
 1127loPI   C1B18029  13.782   3.640   6.882  0.4093  0.2627 -0.0358
 1127loPI   C2B18030  13.698   3.419   7.279  0.1362  0.1377  0.2959
 1127loPI   C3B18031  13.408   3.242   7.631 -0.0785  0.1794 -0.0017
 1127loPI   C4B18032  13.249   2.856   7.590 -0.0631  0.0970 -0.1402
 1128loPI    C118033   3.239  12.746   5.662  0.0719  0.0393  0.1659
 1128loPI    C218034   3.464  12.752   5.332  0.0317  0.1641  0.1400
 1128loPI    C318035   3.227  13.063   5.417 -0.0542  0.0771  0.2200
 1128loPI   PO418036   3.344  12.666   5.833 -0.2704 -0.0431  0.4062
 1128loPI   GL118037   3.589  12.941   6.105 -0.1165  0.0349 -0.1740
 1128loPI   GL218038   3.753  12.691   6.253  0.2242  0.1802  0.1612
 1128loPI   C1A18039   3.428  13.007   6.544 -0.1850 -0.2236  0.2097
 1128loPI   C2A18040   3.448  13.008   6.961  0.2583 -0.1226  0.0053
 1128loPI   C3A18041   3.307  12.967   7.380  0.0193 -0.0548  0.4610
 1128loPI   C4A18042   3.338  12.958   7.789 -0.0448  0.2022 -0.0460
 1128loPI   C5A18043   3.365  12.940   8.240 -0.1090 -0.0615 -0.0138
 1128loPI   C6A18044   3.576  13.124   8.628  0.3429  0.1510  0.4546
 1128loPI   C1B18045   3.675  12.630   6.716  0.4932 -0.0956 -0.1777
 1128loPI   C2B18046   3.647  12.558   7.181 -0.2301  0.1174  0.1173
 1128loPI   C3B18047   3.645  12.518   7.548 -0.1462  0.5589 -0.1100
 1128loPI   C4B18048   3.611  12.402   8.008  0.0228  0.0157 -0.0734
 1129loPI    C118049   3.045   4.793   5.225  0.0312 -0.1150 -0.2363
 1129loPI    C218050   3.158   4.893   4.854  0.0561  0.0600 -0.1828
 1129loPI    C318051   2.782   4.775   4.924  0.0000  0.2076 -0.2324
 1129loPI   PO418052   3.189   4.832   5.435  0.0408 -0.0113 -0.0515
 1129loPI   GL118053   3.256   4.949   5.938 -0.0200  0.2563  0.1921
 1129loPI   GL218054   3.580   4.912   6.123 -0.1245  0.1099  0.0985
 1129loPI   C1A18055   3.045   5.158   6.187 -0.2572 -0.0552 -0.0555
 1129loPI   C2A18056   3.078   5.261   6.668  0.0197 -0.0071 -0.5278
 1129loPI   C3A18057   2.960   5.228   7.124 -0.0900  0.0777  0.2282
 1129loPI   C4A18058   2.722   5.236   7.517  0.0478  0.2353  0.3894
 1129loPI   C5A18059   2.381   5.259   7.826  0.0182  0.0287 -0.0050
 1129loPI   C6A18060   2.165   5.605   8.022  0.0189 -0.2487 -0.2961
 1129loPI   C1B18061   3.852   4.890   6.478  0.1148  0.2741 -0.0401
 1129loPI   C2B18062   3.883   4.913   6.951 -0.0472  0.1659  0.1218
 1129loPI   C3B18063   3.822   4.822   7.299  0.4189 -0.2246 -0.0177
 1129loPI   C4B18064   3.744   4.835   7.752  0.3787 -0.0413  0.0094
 1130loPI    C118065   6.498  12.913   5.438  0.2158 -0.1432 -0.0388
 1130loPI    C218066   6.255  12.957   5.123 -0.0357 -0.2145  0.1423
 1130loPI    C318067   6.615  12.791   5.075 -0.0793 -0.2417 -0.1044
 1130loPI   PO418068   6.534  13.074   5.576 -0.0721 -0.1352 -0.1304
 1130loPI   GL118069   6.673  13.040   5.998  0.0645  0.1065  0.1256
 1130loPI   GL218070   6.900  13.125   6.243  0.1998  0.1444 -0.3238
 1130loPI   C1A18071   6.336  13.065   6.267  0.1512 -0.1440  0.1554
 1130loPI   C2A18072   6.250  12.936   6.744 -0.1109  0.0000  0.0654
 1130loPI   C3A18073   6.186  12.936   7.128 -0.1048 -0.3134 -0.0823
 1130loPI   C4A18074   6.125  12.841   7.544  0.0271 -0.0757  0.2905
 1130loPI   C5A18075   6.142  12.812   7.971  0.0060 -0.0589  0.1369
 1130loPI   C6A18076   6.103  12.709   8.455 -0.1044 -0.2290 -0.1099
 1130loPI   C1B18077   6.754  13.012   6.630  0.3452 -0.0719  0.0573
 1130loPI   C2B18078   6.806  13.044   7.025  0.0654  0.3089 -0.1446
 1130loPI   C3B18079   6.620  12.975   7.368 -0.0330  0.1299  0.0764
 1130loPI   C4B18080   6.639  12.906   7.838  0.0514  0.1354 -0.0982
 1131loPI    C118081  13.666  14.904   5.136 -0.0365 -0.0912  0.0325
 1131loPI    C218082  13.823  15.271   5.165 -0.1838 -0.0331  0.1044
 1131loPI    C318083  13.914  15.039   4.853 -0.1426  0.0902  0.0242
 1131loPI   PO418084  13.703  14.849   5.471  0.3679  0.1702  0.0641
 1131loPI   GL118085  13.807  14.814   5.875 -0.0776 -0.2016  0.1024
 1131loPI   GL218086  13.747  14.734   6.136  0.0109  0.0793 -0.2423
 1131loPI   C1A18087  13.927  15.179   6.275  0.0892 -0.1404  0.0332
 1131loPI   C2A18088  13.819  15.287   6.728  0.0603  0.0402 -0.3651
 1131loPI   C3A18089  13.866  15.277   7.166 -0.0070  0.2617 -0.3936
 1131loPI   C4A18090  13.829  15.250   7.615 -0.1632  0.1739 -0.0648
 1131loPI   C5A18091  13.863  15.308   8.022  0.1435 -0.0778  0.0985
 1131loPI   C6A18092  13.617  15.560   8.278  0.0486 -0.0720 -0.0348
 1131loPI   C1B18093  13.671  14.799   6.517 -0.0170 -0.2158 -0.0451
 1131loPI   C2B18094  13.578  14.779   6.985  0.0417 -0.3037  0.0556
 1131loPI   C3B18095  13.719  14.836   7.364 -0.0634  0.0216 -0.4724
 1131loPI   C4B18096  13.644  14.726   7.884  0.0675  0.2425  0.0576
 1132loPI    C118097   8.994  15.309   5.549 -0.0097  0.3494 -0.0464
 1132loPI    C218098   9.215  14.980   5.494 -0.1240  0.2364  0.1593
 1132loPI    C318099   9.297  15.313   5.287 -0.1124  0.0312 -0.1746
 1132loPI   PO418100   8.974  15.340   5.858 -0.2401  0.2108 -0.2592
 1132loPI   GL118101   8.787  15.197   6.163 -0.4344  0.0735 -0.2955
 1132loPI   GL218102   8.973  15.153   6.380  0.0076  0.4350  0.0220
 1132loPI   C1A18103   8.579  15.067   6.622  0.2060  0.0757  0.0492
 1132loPI   C2A18104   8.413  15.191   7.022  0.2306  0.1271  0.1695
 1132loPI   C3A18105   8.401  15.066   7.524 -0.0230 -0.3999  0.2415
 1132loPI   C4A18106   8.310  15.070   8.030 -0.0334 -0.3012 -0.1058
 1132loPI   C5A18107   8.357  14.878   8.298 -0.0596 -0.0101  0.0187
 1132loPI   C6A18108   8.545  14.930   8.628 -0.0723 -0.1483 -0.0844
 1132loPI   C1B18109   9.063  15.171   6.787  0.1537  0.1072  0.0857
 1132loPI   C2B18110   8.920  15.146   7.196 -0.1345  0.1411 -0.2918
 1132loPI   C3B18111   8.949  15.137   7.635  0.3052  0.1306 -0.2797
 1132loPI   C4B18112   8.828  15.002   8.082  0.3819 -0.0290  0.2345
 1133loPI    C118113   0.643  17.584   5.531 -0.4083 -0.0975 -0.1329
 1133loPI    C218114   0.634  17.321   5.230  0.3117 -0.0330 -0.2270
 1133loPI    C318115   0.785  17.687   5.172 -0.1583  0.2149  0.0504
 1133loPI   PO418116   0.430  17.607   5.660 -0.0611  0.0471 -0.1620
 1133loPI   GL118117   0.276  17.899   5.997 -0.0400  0.2045 -0.0246
 1133loPI   GL218118   0.611  17.958   5.997  0.2459 -0.0367  0.4181
 1133loPI   C1A18119   0.159  18.004   6.337 -0.3023  0.3376 -0.2167
 1133loPI   C2A18120   0.167  17.898   6.750  0.2102 -0.2786  0.1062
 1133loPI   C3A18121   0.180  17.871   7.183  0.0509 -0.3409 -0.3894
 1133loPI   C4A18122   0.249  17.924   7.677  0.0149 -0.0514  0.0969
 1133loPI   C5A18123   0.308  18.043   8.111  0.4250 -0.2137  0.3272
 1133loPI   C6A18124   0.267  18.227   8.501 -0.0630 -0.2357 -0.1519
 1133loPI   C1B18125   0.660  17.930   6.406 -0.0471  0.0473 -0.0709
 1133loPI   C2B18126   0.639  17.948   7.018  0.2122 -0.1781  0.0971
 1133loPI   C3B18127   0.646  17.993   7.355 -0.0128 -0.1968 -0.0795
 1133loPI   C4B18128   0.736  17.998   7.821 -0.2249  0.2249  0.0511
 1134loPI    C118129  10.150  10.183   5.277  0.0943  0.1201 -0.3052
 1134loPI    C218130   9.812  10.057   5.104  0.0675 -0.0777 -0.1123
 1134loPI    C318131  10.161  10.025   4.909  0.0050 -0.0723 -0.2259
 1134loPI   PO418132  10.173  10.087   5.477 -0.1468 -0.0897 -0.2232
 1134loPI   GL118133  10.260  10.223   5.929  0.0713 -0.2740  0.1410
 1134loPI   GL218134  10.243   9.869   6.126 -0.2310 -0.2269 -0.0181
 1134loPI   C1A18135  10.380  10.316   6.357 -0.1084 -0.1433  0.0226
 1134loPI   C2A18136  10.311  10.377   6.776 -0.0776 -0.2430  0.1884
 1134loPI   C3A18137  10.345  10.303   7.132  0.4952  0.1190  0.2215
 1134loPI   C4A18138  10.304  10.351   7.574 -0.1156 -0.2277  0.0210
 1134loPI   C5A18139  10.336  10.484   8.048  0.0450  0.0444  0.1892
 1134loPI   C6A18140  10.708  10.559   8.358  0.0146  0.0819 -0.2123
 1134loPI   C1B18141  10.214   9.833   6.508 -0.0794  0.3113 -0.4501
 1134loPI   C2B18142  10.204   9.819   6.892  0.1105 -0.1929 -0.0606
 1134loPI   C3B18143  10.124   9.909   7.286  0.1498  0.0079  0.1038
 1134loPI   C4B18144  10.175   9.858   7.722 -0.0378  0.1059  0.1626
 1135loPI    C118145   2.688   5.129   5.315  0.3290  0.0975  0.1132
 1135loPI    C218146   2.929   5.309   5.052  0.0380  0.3336  0.0027
 1135loPI    C318147   2.535   5.377   5.041 -0.0585 -0.1797  0.0714
 1135loPI   PO418148   2.739   5.123   5.551  0.0823 -0.1442  0.0645
 1135loPI   GL118149   2.642   5.156   5.975  0.2131 -0.0316  0.1477
 1135loPI   GL218150   2.196   5.118   6.029 -0.1925 -0.0239 -0.3322
 1135loPI   C1A18151   2.515   5.175   6.416 -0.1525  0.2583  0.2346
 1135loPI   C2A18152   2.604   5.334   6.769 -0.1467 -0.0957 -0.0094
 1135loPI   C3A18153   2.675   5.685   7.032 -0.2902  0.1199  0.0771
 1135loPI   C4A18154   2.721   5.731   7.416  0.0667 -0.2035  0.0769
 1135loPI   C5A18155   2.694   5.668   7.819 -0.0447  0.0587 -0.0549
 1135loPI   C6A18156   2.860   5.383   7.944  0.0823 -0.1072  0.1160
 1135loPI   C1B18157   2.024   5.166   6.481  0.2395 -0.4714 -0.3251
 1135loPI   C2B18158   1.971   5.239   6.905 -0.1288 -0.3144 -0.0987
 1135loPI   C3B18159   1.944   5.250   7.380 -0.1966  0.1996  0.0213
 1135loPI   C4B18160   1.808   5.256   7.922  0.1390 -0.2700  0.0856
 1136loPI    C118161   3.415  17.099   5.395  0.1059 -0.1286  0.0746
 1136loPI    C218162   3.065  16.977   5.244 -0.0016  0.0031  0.2150
 1136loPI    C318163   3.291  17.238   5.041  0.0096 -0.0720  0.1304
 1136loPI   PO418164   3.325  16.953   5.723  0.1642  0.2064  0.2295
 1136loPI   GL118165   3.495  17.002   5.998  0.1501  0.1768  0.0864
 1136loPI   GL218166   3.714  16.919   6.193  0.1101 -0.0930 -0.1651
 1136loPI   C1A18167   3.445  17.368   6.340 -0.1488  0.0862  0.1283
 1136loPI   C2A18168   3.362  17.365   6.840  0.2333  0.1260  0.2451
 1136loPI   C3A18169   3.364  17.478   7.258  0.0992  0.0205 -0.0084
 1136loPI   C4A18170   3.312  17.509   7.664 -0.3071  0.0247  0.0995
 1136loPI   C5A18171   3.351  17.457   8.229 -0.3468  0.0204 -0.1058
 1136loPI   C6A18172   3.619  17.672   8.517  0.0937 -0.0106  0.2829
 1136loPI   C1B18173   3.615  16.998   6.679 -0.2841  0.1051  0.1323
 1136loPI   C2B18174   3.663  17.062   7.074  0.0573  0.1789 -0.0965
 1136loPI   C3B18175   3.639  17.057   7.557 -0.1047 -0.0271 -0.3117
 1136loPI   C4B18176   3.614  17.094   7.976 -0.1290  0.2523  0.0881
 1137loPI    C118177  16.927   1.463   5.571  0.0660 -0.0443 -0.0331
 1137loPI    C218178  16.630   1.439   5.304 -0.0092 -0.0820  0.0531
 1137loPI    C318179  17.010   1.464   5.180 -0.0571  0.1009 -0.0597
 1137loPI   PO418180  16.847   1.293   5.804  0.1643  0.3029 -0.1560
 1137loPI   GL118181  17.051   1.188   6.168  0.0698  0.2508  0.1784
 1137loPI   GL218182  16.765   0.886   6.173 -0.0332 -0.0664  0.1279
 1137loPI   C1A18183  17.069   1.441   6.544  0.0642  0.2744 -0.0351
 1137loPI   C2A18184  17.123   1.402   6.975 -0.1008 -0.2465  0.2172
 1137loPI   C3A18185  17.062   1.391   7.417 -0.2462 -0.0079 -0.0915
 1137loPI   C4A18186  17.024   1.326   7.848  0.0541  0.1225 -0.1756
 1137loPI   C5A18187  17.286   1.320   8.306 -0.0049 -0.1510 -0.2671
 1137loPI   C6A18188  17.323   1.387   8.838 -0.0160  0.0247 -0.0054
 1137loPI   C1B18189  16.796   0.940   6.596  0.3188  0.1166 -0.1811
 1137loPI   C2B18190  16.846   0.909   7.077  0.2540  0.1249  0.3489
 1137loPI   C3B18191  16.899   0.917   7.550 -0.0014  0.2237 -0.0138
 1137loPI   C4B18192  16.916   0.841   7.982 -0.0258  0.0507  0.0199
 1138loPI    C118193  11.453  16.164   5.611  0.2138 -0.1722  0.2764
 1138loPI    C218194  11.566  15.902   5.331  0.1650 -0.0065  0.0994
 1138loPI    C318195  11.732  16.266   5.344 -0.0194  0.0781  0.1221
 1138loPI   PO418196  11.263  16.125   5.768 -0.0534  0.2825  0.1005
 1138loPI   GL118197  11.239  15.980   6.184 -0.1703  0.2624 -0.0550
 1138loPI   GL218198  11.072  16.382   6.256 -0.2082  0.0684 -0.2482
 1138loPI   C1A18199  11.332  15.997   6.600 -0.1238  0.2331 -0.2504
 1138loPI   C2A18200  11.113  16.002   7.049 -0.3220 -0.2638 -0.1801
 1138loPI   C3A18201  11.258  15.896   7.409  0.3226 -0.2280  0.0187
 1138loPI   C4A18202  11.192  15.831   7.897 -0.1061 -0.1215 -0.4038
 1138loPI   C5A18203  10.954  15.975   8.296 -0.1945  0.0223  0.4793
 1138loPI   C6A18204  10.555  15.803   8.437  0.1671  0.3124 -0.1345
 1138loPI   C1B18205  10.918  16.268   6.615  0.0971  0.1152 -0.0207
 1138loPI   C2B18206  10.830  16.384   7.002 -0.2047 -0.0266  0.2668
 1138loPI   C3B18207  10.874  16.282   7.424  0.2232 -0.2770 -0.0273
 1138loPI   C4B18208  10.878  16.238   7.911  0.2245  0.0313  0.1605
 1139loPI    C118209   9.155  11.518   5.405  0.0109  0.0338 -0.1841
 1139loPI    C218210   9.138  11.242   5.115 -0.0380  0.0761 -0.2219
 1139loPI    C318211   9.202  11.626   5.023 -0.1678  0.1066 -0.1867
 1139loPI   PO418212   9.379  11.424   5.583 -0.0594 -0.0909  0.0550
 1139loPI   GL118213   9.527  11.546   5.949 -0.1094 -0.1645  0.4690
 1139loPI   GL218214   9.852  11.417   6.104 -0.2217  0.2445 -0.0483
 1139loPI   C1A18215   9.437  11.588   6.299 -0.0209  0.0336 -0.0464
 1139loPI   C2A18216   9.440  11.550   6.750 -0.1480  0.2406 -0.3947
 1139loPI   C3A18217   9.392  11.554   7.241 -0.0790 -0.3721 -0.0922
 1139loPI   C4A18218   9.413  11.522   7.635  0.1437 -0.0941 -0.2886
 1139loPI   C5A18219   9.362  11.551   8.044  0.2120 -0.0024 -0.1731
 1139loPI   C6A18220   9.534  11.821   8.320  0.0304  0.1210  0.0289
 1139loPI   C1B18221   9.927  11.638   6.497 -0.0057  0.2529  0.2133
 1139loPI   C2B18222   9.982  11.672   6.842  0.1403  0.2383 -0.5119
 1139loPI   C3B18223   9.892  11.572   7.256 -0.0077 -0.3122  0.1643
 1139loPI   C4B18224   9.906  11.635   7.676 -0.1255  0.1224  0.0323
 1140loPI    C118225   1.584   2.541   5.398 -0.0210  0.1446 -0.0963
 1140loPI    C218226   1.401   2.242   5.205  0.1873 -0.0790  0.0462
 1140loPI    C318227   1.537   2.559   5.001  0.1203 -0.1617 -0.1295
 1140loPI   PO418228   1.439   2.710   5.612  0.0362 -0.2089 -0.1261
 1140loPI   GL118229   1.478   2.746   6.001 -0.4673 -0.1284 -0.2181
 1140loPI   GL218230   1.540   2.965   6.201 -0.0272  0.1036  0.0923
 1140loPI   C1A18231   1.810   2.473   6.349 -0.1358 -0.1864 -0.0801
 1140loPI   C2A18232   1.880   2.443   6.707 -0.0158  0.1970 -0.0017
 1140loPI   C3A18233   1.821   2.492   7.196 -0.3913  0.1749  0.1516
 1140loPI   C4A18234   1.924   2.482   7.569  0.1212  0.0401 -0.0171
 1140loPI   C5A18235   1.894   2.341   7.890 -0.1179  0.2210  0.3063
 1140loPI   C6A18236   1.975   2.444   8.215  0.1039  0.2915  0.2729
 1140loPI   C1B18237   1.544   2.859   6.646  0.0520 -0.1924  0.1970
 1140loPI   C2B18238   1.548   2.895   7.060 -0.0659 -0.1697 -0.1273
 1140loPI   C3B18239   1.605   2.917   7.500 -0.2172 -0.2243 -0.0845
 1140loPI   C4B18240   1.559   3.066   7.957  0.1134  0.1937 -0.1388
 1141loPI    C118241  12.614   8.879   5.730 -0.1563  0.0115  0.0897
 1141loPI    C218242  12.460   8.902   5.361 -0.1091  0.1072  0.0757
 1141loPI    C318243  12.847   8.814   5.411 -0.1160  0.0923  0.1025
 1141loPI   PO418244  12.507   9.060   5.867 -0.2009 -0.0587 -0.2210
 1141loPI   GL118245  12.467   9.002   6.280 -0.2062  0.0672 -0.0066
 1141loPI   GL218246  12.332   9.350   6.255 -0.0929  0.0464 -0.1591
 1141loPI   C1A18247  12.605   8.803   6.643 -0.3075 -0.1188 -0.0666
 1141loPI   C2A18248  12.589   8.754   7.123 -0.0270 -0.1755 -0.1441
 1141loPI   C3A18249  12.603   8.802   7.527  0.3403 -0.0946  0.0615
 1141loPI   C4A18250  12.651   8.912   8.020 -0.0249 -0.1369  0.1639
 1141loPI   C5A18251  13.027   8.921   8.252  0.1745 -0.2587  0.2932
 1141loPI   C6A18252  13.167   8.945   8.623  0.0882 -0.0787 -0.0268
 1141loPI   C1B18253  12.313   9.231   6.703 -0.2215  0.2833  0.1598
 1141loPI   C2B18254  12.302   9.191   7.087 -0.0171 -0.2788  0.2879
 1141loPI   C3B18255  12.328   9.256   7.556  0.2807  0.1078  0.1116
 1141loPI   C4B18256  12.263   9.217   7.963 -0.0468  0.2629  0.1980
 1142loPI    C118257   9.649   0.243   5.670 -0.3687  0.0219 -0.0013
 1142loPI    C218258   9.428  -0.028   5.477 -0.1357 -0.0881 -0.1176
 1142loPI    C318259   9.606   0.267   5.273 -0.0568 -0.0849 -0.0444
 1142loPI   PO418260   9.677   0.173   5.876  0.2150 -0.0988 -0.3020
 1142loPI   GL118261   9.709  -0.015   6.264  0.1332 -0.1482 -0.0727
 1142loPI   GL218262  10.002   0.008   6.190  0.0909 -0.0027 -0.0165
 1142loPI   C1A18263   9.521  -0.184   6.573  0.0801  0.1353 -0.0593
 1142loPI   C2A18264   9.422  -0.256   7.050 -0.1128  0.0973  0.1152
 1142loPI   C3A18265   9.438  -0.348   7.488  0.0661  0.1759 -0.0315
 1142loPI   C4A18266   9.433  -0.393   7.910 -0.1507  0.1170 -0.2162
 1142loPI   C5A18267   9.576  -0.257   8.294  0.1752  0.4001  0.0728
 1142loPI   C6A18268   9.575  -0.538   8.699 -0.2385 -0.1491  0.2480
 1142loPI   C1B18269  10.058  -0.041   6.634 -0.1997 -0.1786  0.1564
 1142loPI   C2B18270   9.928  -0.261   6.999 -0.0788 -0.2556  0.2064
 1142loPI   C3B18271   9.968  -0.294   7.381 -0.3216 -0.0918  0.0233
 1142loPI   C4B18272   9.926  -0.331   7.835  0.0257  0.1704 -0.0382
 1143loPI    C118273   0.283   0.430   5.587  0.2376  0.2322 -0.0776
 1143loPI    C218274   0.663   0.335   5.505  0.1372 -0.2958  0.0302
 1143loPI    C318275   0.367   0.192   5.276  0.0096  0.3295 -0.2164
 1143loPI   PO418276   0.354   0.627   5.723  0.2699 -0.4897  0.0295
 1143loPI   GL118277   0.255   0.745   6.135 -0.1191  0.4259 -0.1164
 1143loPI   GL218278   0.483   0.670   6.245 -0.2616 -0.1190 -0.3241
 1143loPI   C1A18279   0.091   0.932   6.443 -0.1183  0.0319  0.1686
 1143loPI   C2A18280   0.238   0.972   6.871 -0.3696 -0.0660 -0.0462
 1143loPI   C3A18281   0.113   0.982   7.325  0.3964 -0.0197  0.1515
 1143loPI   C4A18282   0.078   1.096   7.744  0.2598 -0.0835 -0.0856
 1143loPI   C5A18283   0.043   1.191   8.239  0.0332 -0.0662 -0.1726
 1143loPI   C6A18284  -0.031   1.055   8.648 -0.1341  0.0249 -0.1295
 1143loPI   C1B18285   0.393   0.548   6.685  0.0516 -0.0083 -0.0154
 1143loPI   C2B18286   0.391   0.605   7.130 -0.0519  0.1854 -0.2501
 1143loPI   C3B18287   0.354   0.672   7.661  0.3803  0.0094 -0.1276
 1143loPI   C4B18288   0.276   0.800   8.061 -0.0958  0.0498  0.1833
 1144loPI    C118289   4.590   6.771   5.403  0.0117 -0.1009 -0.0581
 1144loPI    C218290   4.418   6.545   5.122  0.0580 -0.0656 -0.1149
 1144loPI    C318291   4.422   6.944   5.084 -0.0782 -0.0508  0.0157
 1144loPI   PO418292   4.533   6.760   5.645  0.1711 -0.2409 -0.0837
 1144loPI   GL118293   4.727   7.048   5.917  0.0602  0.0551 -0.0412
 1144loPI   GL218294   4.767   6.780   6.079 -0.1928 -0.1830 -0.2954
 1144loPI   C1A18295   4.461   7.221   6.362 -0.3353 -0.0089  0.1749
 1144loPI   C2A18296   4.415   7.228   6.771 -0.0641  0.1107  0.0768
 1144loPI   C3A18297   4.381   7.160   7.219  0.1545 -0.1671 -0.1891
 1144loPI   C4A18298   4.385   7.163   7.719  0.4287  0.4047  0.4035
 1144loPI   C5A18299   4.419   7.241   8.166 -0.3651  0.1869  0.0520
 1144loPI   C6A18300   4.493   7.593   8.474 -0.2441  0.0560 -0.1740
 1144loPI   C1B18301   4.683   6.786   6.454 -0.0029 -0.3514 -0.0843
 1144loPI   C2B18302   4.720   6.795   6.961  0.2160 -0.0653  0.0354
 1144loPI   C3B18303   4.633   6.758   7.396  0.1185  0.1534  0.1089
 1144loPI   C4B18304   4.685   6.737   7.867 -0.1264 -0.0269 -0.2151
 1145loPI    C118305  12.607   3.846   5.927 -0.0689 -0.0528 -0.0906
 1145loPI    C218306  12.349   4.134   5.825 -0.0689 -0.0458 -0.0710
 1145loPI    C318307  12.523   3.913   5.541  0.1493  0.1631 -0.1028
 1145loPI   PO418308  12.832   3.888   6.146  0.1317  0.3853  0.2406
 1145loPI   GL118309  12.811   3.896   6.596  0.3284  0.2296 -0.0451
 1145loPI   GL218310  12.752   4.234   6.617  0.1321 -0.4166  0.1549
 1145loPI   C1A18311  12.841   3.857   7.042 -0.0441  0.0619  0.2007
 1145loPI   C2A18312  12.648   3.905   7.385  0.1900  0.0513  0.0916
 1145loPI   C3A18313  12.469   3.727   7.752 -0.1262  0.1148  0.0020
 1145loPI   C4A18314  12.491   3.349   8.015  0.0229 -0.2356 -0.0923
 1145loPI   C5A18315  12.421   3.166   8.428  0.1084  0.1124  0.2912
 1145loPI   C6A18316  12.587   3.233   8.783  0.2730 -0.2521  0.1079
 1145loPI   C1B18317  12.865   4.339   6.969  0.1268 -0.4105 -0.2551
 1145loPI   C2B18318  12.727   4.452   7.336  0.3094 -0.1549 -0.2137
 1145loPI   C3B18319  12.444   4.694   7.556 -0.0403  0.0919 -0.2528
 1145loPI   C4B18320  12.454   4.687   7.988  0.1174 -0.0242 -0.3008
 1146loPI    C118321   6.674   0.105   5.658 -0.1386  0.1521  0.0186
 1146loPI    C218322   6.914  -0.149   5.464 -0.3789 -0.0923  0.0349
 1146loPI    C318323   6.922   0.241   5.375  0.1798 -0.0600  0.1898
 1146loPI   PO418324   6.695   0.115   5.844 -0.0042 -0.2132  0.1100
 1146loPI   GL118325   7.002   0.190   6.166 -0.0041  0.0216  0.2366
 1146loPI   GL218326   7.171  -0.029   6.194  0.0817  0.0483 -0.1487
 1146loPI   C1A18327   6.765   0.270   6.547 -0.0728 -0.0023 -0.2084
 1146loPI   C2A18328   6.808   0.298   7.021  0.0224  0.0029  0.1591
 1146loPI   C3A18329   6.757   0.357   7.514  0.1416  0.0578  0.0441
 1146loPI   C4A18330   6.822   0.260   7.993 -0.1241  0.2430  0.1356
 1146loPI   C5A18331   6.969   0.284   8.425 -0.3187 -0.2964  0.3263
 1146loPI   C6A18332   6.660   0.014   8.581 -0.3015 -0.2379 -0.1381
 1146loPI   C1B18333   7.137  -0.082   6.643 -0.0921  0.1457 -0.0137
 1146loPI   C2B18334   7.161  -0.080   6.931 -0.2391 -0.1052  0.0947
 1146loPI   C3B18335   7.080  -0.039   7.347 -0.0281 -0.1240  0.0092
 1146loPI   C4B18336   7.129  -0.172   7.767  0.2103  0.2260 -0.0606
 1147loPI    C118337  17.838  11.657   5.455  0.1529 -0.0817 -0.0138
 1147loPI    C218338  17.625  11.933   5.260  0.3675  0.0684 -0.0391
 1147loPI    C318339  17.521  11.547   5.238  0.2268  0.1155 -0.2251
 1147loPI   PO418340  17.883  11.818   5.655 -0.1314  0.3582  0.1889
 1147loPI   GL118341  17.849  11.786   6.049  0.2299 -0.0664 -0.1120
 1147loPI   GL218342  17.635  11.644   6.200 -0.0535  0.1304 -0.1946
 1147loPI   C1A18343  18.141  11.717   6.374  0.2372 -0.1928 -0.1194
 1147loPI   C2A18344  18.128  11.704   6.859  0.0225  0.0411 -0.0511
 1147loPI   C3A18345  18.157  11.744   7.304  0.0989  0.1112  0.0121
 1147loPI   C4A18346  18.120  11.736   7.693 -0.0044  0.1469 -0.1366
 1147loPI   C5A18347  18.164  11.838   8.108  0.1101 -0.1044 -0.0080
 1147loPI   C6A18348  18.298  11.578   8.521 -0.0906 -0.2886  0.3286
 1147loPI   C1B18349  17.595  11.605   6.689 -0.0893 -0.1933  0.0483
 1147loPI   C2B18350  17.659  11.606   7.108 -0.1828 -0.0485 -0.0069
 1147loPI   C3B18351  17.599  11.689   7.448 -0.0457  0.0996  0.1893
 1147loPI   C4B18352  17.662  11.669   7.797  0.0296 -0.0574  0.3126
 1148loPI    C118353  13.010  15.945   5.612  0.1711  0.1256  0.0240
 1148loPI    C218354  12.672  15.858   5.417  0.0957 -0.0670  0.2375
 1148loPI    C318355  12.888  16.177   5.309  0.0188 -0.1298 -0.1134
 1148loPI   PO418356  12.933  15.975   5.850  0.0315 -0.0820 -0.2236
 1148loPI   GL118357  13.135  15.640   6.148 -0.2477 -0.1464 -0.0323
 1148loPI   GL218358  13.220  15.864   6.207 -0.3212 -0.1945  0.1792
 1148loPI   C1A18359  13.144  15.710   6.635  0.0387 -0.1111 -0.0451
 1148loPI   C2A18360  13.036  15.711   7.057  0.0437 -0.1338  0.2422
 1148loPI   C3A18361  13.023  15.564   7.599 -0.1120 -0.1302  0.3473
 1148loPI   C4A18362  13.028  15.520   8.021  0.2732 -0.1873  0.0557
 1148loPI   C5A18363  12.818  15.622   8.437 -0.0802  0.3607  0.2022
 1148loPI   C6A18364  12.732  15.515   8.882 -0.2065 -0.0933  0.1172
 1148loPI   C1B18365  13.210  16.214   6.504  0.3095  0.0919  0.1862
 1148loPI   C2B18366  13.289  16.181   6.910 -0.0316  0.3902 -0.1888
 1148loPI   C3B18367  13.241  16.109   7.410 -0.2478  0.2013 -0.0028
 1148loPI   C4B18368  13.178  16.018   7.917  0.1439  0.1690 -0.0727
 1149loPI    C118369   2.014   2.891   5.434 -0.0619 -0.1571 -0.0693
 1149loPI    C218370   1.697   3.018   5.225  0.0120 -0.0964 -0.1453
 1149loPI    C318371   2.063   3.040   5.066  0.0950  0.1530  0.0729
 1149loPI   PO418372   1.921   2.862   5.682 -0.0237 -0.2336 -0.0143
 1149loPI   GL118373   2.094   2.932   6.098  0.3101  0.3901 -0.1846
 1149loPI   GL218374   2.259   2.659   6.071  0.0190 -0.0651  0.2982
 1149loPI   C1A18375   2.095   2.871   6.527 -0.1230 -0.0651 -0.0847
 1149loPI   C2A18376   2.074   2.868   6.949 -0.0208 -0.0056 -0.0185
 1149loPI   C3A18377   2.078   2.974   7.408 -0.1537 -0.1006  0.0665
 1149loPI   C4A18378   2.053   2.913   7.841  0.1128  0.2772 -0.1517
 1149loPI   C5A18379   2.055   2.953   8.300  0.2529  0.3100  0.2053
 1149loPI   C6A18380   2.020   2.961   8.695 -0.1993  0.0397 -0.2929
 1149loPI   C1B18381   2.384   2.440   6.516 -0.3037 -0.1417 -0.1945
 1149loPI   C2B18382   2.372   2.476   6.908 -0.0014 -0.0093 -0.1387
 1149loPI   C3B18383   2.356   2.510   7.385 -0.0426 -0.1776 -0.0115
 1149loPI   C4B18384   2.359   2.420   7.780 -0.0948 -0.1269  0.0604
 1150loPI    C118385   8.327   5.189   5.336  0.1509  0.1821 -0.0793
 1150loPI    C218386   8.629   5.281   5.090  0.1381 -0.0211 -0.1733
 1150loPI    C318387   8.449   4.925   5.061 -0.2425  0.1729 -0.2519
 1150loPI   PO418388   8.377   5.230   5.568 -0.1799 -0.2443  0.0036
 1150loPI   GL118389   8.280   5.405   5.884 -0.1484  0.2366  0.2170
 1150loPI   GL218390   8.473   5.587   5.955  0.0553 -0.0124 -0.0733
 1150loPI   C1A18391   8.058   5.348   6.163 -0.1475  0.0185 -0.3975
 1150loPI   C2A18392   7.971   5.396   6.583  0.0923 -0.0738 -0.0723
 1150loPI   C3A18393   7.945   5.391   7.022  0.0454 -0.0474  0.2190
 1150loPI   C4A18394   8.000   5.397   7.448 -0.1391  0.2105  0.1054
 1150loPI   C5A18395   7.881   5.509   7.907  0.1519  0.0989  0.2094
 1150loPI   C6A18396   7.925   5.466   8.277  0.0069 -0.0288  0.1711
 1150loPI   C1B18397   8.537   5.436   6.313  0.0378 -0.0710 -0.0033
 1150loPI   C2B18398   8.564   5.469   6.745 -0.0889  0.1946 -0.0958
 1150loPI   C3B18399   8.402   5.490   7.106  0.2040  0.1772  0.1353
 1150loPI   C4B18400   8.482   5.550   7.480  0.1596  0.2594 -0.3012
 1151loPI    C118401   5.205  13.056   5.306  0.0559 -0.0394  0.1852
 1151loPI    C218402   5.550  13.213   5.433  0.1308 -0.1073  0.0680
 1151loPI    C318403   5.417  13.294   5.064  0.0311 -0.0968  0.1062
 1151loPI   PO418404   5.119  13.057   5.579 -0.0401 -0.0469  0.0452
 1151loPI   GL118405   4.964  13.247   5.980 -0.1402  0.1275 -0.2045
 1151loPI   GL218406   5.227  13.446   5.911  0.0700 -0.2467 -0.1848
 1151loPI   C1A18407   4.982  13.309   6.395 -0.0749  0.2079  0.0111
 1151loPI   C2A18408   4.936  13.254   6.854 -0.1047  0.1616  0.0075
 1151loPI   C3A18409   4.905  13.173   7.218  0.0515 -0.1928 -0.0805
 1151loPI   C4A18410   4.905  13.166   7.690  0.1198  0.1790 -0.1345
 1151loPI   C5A18411   4.777  13.123   8.195 -0.1586 -0.1318  0.4276
 1151loPI   C6A18412   4.528  13.434   8.337 -0.2706  0.0579  0.1341
 1151loPI   C1B18413   5.560  13.461   6.315 -0.1339  0.1563  0.1210
 1151loPI   C2B18414   5.422  13.373   6.723 -0.0387  0.1936  0.2220
 1151loPI   C3B18415   5.362  13.303   7.126 -0.2656 -0.1856 -0.2003
 1151loPI   C4B18416   5.344  13.229   7.512  0.3515 -0.1647 -0.2410
 1152loPI    C118417   9.881  17.486   5.469 -0.1038 -0.0768  0.1847
 1152loPI    C218418   9.653  17.259   5.233  0.0681 -0.0734  0.0126
 1152loPI    C318419   9.814  17.596   5.090  0.2053 -0.0915  0.1230
 1152loPI   PO418420   9.831  17.462   5.742  0.0832 -0.0731 -0.2738
 1152loPI   GL118421  10.094  17.335   5.973  0.1777  0.1134  0.2517
 1152loPI   GL218422  10.344  17.377   5.971  0.0171 -0.0989  0.2929
 1152loPI   C1A18423   9.964  17.288   6.442  0.1281  0.0478 -0.1676
 1152loPI   C2A18424   9.793  17.092   6.729  0.1538  0.2816  0.0201
 1152loPI   C3A18425   9.686  17.064   7.106 -0.2256  0.1244 -0.1005
 1152loPI   C4A18426   9.689  16.957   7.507  0.0222 -0.0698  0.1480
 1152loPI   C5A18427   9.726  16.976   8.011 -0.0545  0.0241  0.2016
 1152loPI   C6A18428   9.890  17.114   8.307  0.0481 -0.2403 -0.0254
 1152loPI   C1B18429  10.465  17.579   6.395  0.0602 -0.0289 -0.0035
 1152loPI   C2B18430  10.563  17.694   6.796  0.1577  0.2082  0.0596
 1152loPI   C3B18431  10.470  17.591   7.266  0.3637  0.2299  0.2037
 1152loPI   C4B18432  10.398  17.531   7.620  0.1251 -0.0270  0.0225
 1153loPI    C118433  10.702  16.189   5.804 -0.1926  0.1962 -0.0638
 1153loPI    C218434  10.610  16.499   5.569 -0.1335  0.0300 -0.3103
 1153loPI    C318435  10.913  16.257   5.471 -0.0085  0.0474  0.0205
 1153loPI   PO418436  10.713  16.217   5.957 -0.2493 -0.5785 -0.2967
 1153loPI   GL118437  10.530  16.174   6.308  0.2681  0.1420 -0.1587
 1153loPI   GL218438  10.758  15.918   6.344  0.0811 -0.0583  0.2485
 1153loPI   C1A18439  10.433  16.256   6.701  0.0701  0.0491  0.1109
 1153loPI   C2A18440  10.378  16.166   7.177  0.0152  0.0655 -0.1726
 1153loPI   C3A18441  10.409  16.157   7.583  0.0654  0.0525 -0.0326
 1153loPI   C4A18442  10.337  16.148   8.083 -0.1416 -0.2715  0.0079
 1153loPI   C5A18443  10.366  16.339   8.431 -0.1668 -0.0647  0.1005
 1153loPI   C6A18444  10.261  16.493   8.800  0.5216  0.1108  0.3447
 1153loPI   C1B18445  10.650  15.822   6.690 -0.0215 -0.1280 -0.1823
 1153loPI   C2B18446  10.669  15.828   7.062  0.0085  0.0519 -0.1561
 1153loPI   C3B18447  10.693  15.752   7.500  0.0524 -0.0845 -0.0535
 1153loPI   C4B18448  10.612  15.780   7.855  0.2170 -0.3049 -0.3197
 1154loPI    C118449  12.274   6.371   5.760  0.0002  0.0628  0.1560
 1154loPI    C218450  12.663   6.287   5.718 -0.0069  0.0908  0.0288
 1154loPI    C318451  12.472   6.497   5.436 -0.1664 -0.1115 -0.0162
 1154loPI   PO418452  12.248   6.456   5.908  0.0213 -0.2407 -0.0772
 1154loPI   GL118453  12.201   6.492   6.351  0.2353 -0.0991  0.0020
 1154loPI   GL218454  12.384   6.846   6.353 -0.2263 -0.2140  0.2660
 1154loPI   C1A18455  12.158   6.483   6.750 -0.2924  0.0869  0.6600
 1154loPI   C2A18456  12.104   6.470   7.148 -0.2298  0.0536 -0.0710
 1154loPI   C3A18457  12.159   6.573   7.518 -0.2109  0.1273  0.0096
 1154loPI   C4A18458  12.151   6.507   7.955 -0.0529  0.0684  0.2180
 1154loPI   C5A18459  12.245   6.618   8.329  0.0325  0.0782 -0.0358
 1154loPI   C6A18460  12.158   6.708   8.781  0.0579  0.2446  0.0508
 1154loPI   C1B18461  12.362   6.932   6.822 -0.0195  0.1290 -0.0685
 1154loPI   C2B18462  12.360   7.003   7.299 -0.2449  0.2213  0.1008
 1154loPI   C3B18463  12.367   7.040   7.750 -0.3443 -0.1202 -0.2530
 1154loPI   C4B18464  12.360   7.016   8.121 -0.0615  0.2219 -0.3506
 1155loPI    C118465  17.074   2.881   5.269 -0.0335 -0.1224  0.0416
 1155loPI    C218466  16.797   2.946   4.988 -0.2292 -0.1600  0.2243
 1155loPI    C318467  17.161   3.107   4.950 -0.3101 -0.0177  0.0380
 1155loPI   PO418468  16.881   2.967   5.496  0.1092  0.1234  0.1207
 1155loPI   GL118469  16.742   2.860   5.865  0.0127  0.0518  0.1240
 1155loPI   GL218470  16.431   2.870   5.916  0.1831 -0.6357 -0.1869
 1155loPI   C1A18471  16.778   2.673   6.285 -0.1451  0.0300 -0.1007
 1155loPI   C2A18472  16.704   2.615   6.756 -0.1481 -0.0398  0.4322
 1155loPI   C3A18473  16.693   2.647   7.197  0.0713  0.0039 -0.3531
 1155loPI   C4A18474  16.657   2.767   7.598 -0.0714 -0.1029  0.0906
 1155loPI   C5A18475  16.804   2.725   7.995  0.0212  0.0453  0.0364
 1155loPI   C6A18476  16.880   2.801   8.442  0.2464 -0.0680 -0.2861
 1155loPI   C1B18477  16.416   3.030   6.349  0.0252  0.0043 -0.2926
 1155loPI   C2B18478  16.438   3.081   6.728 -0.0326 -0.1344  0.0460
 1155loPI   C3B18479  16.376   3.076   7.189 -0.0929 -0.0175 -0.1836
 1155loPI   C4B18480  16.367   3.150   7.570 -0.1005 -0.2381 -0.2169
 1156loPI    C118481   2.325  13.230   5.666 -0.1224 -0.2060 -0.0310
 1156loPI    C218482   2.051  13.134   5.391 -0.1394 -0.1019 -0.0507
 1156loPI    C318483   2.399  13.295   5.278 -0.1745  0.0060 -0.0066
 1156loPI   PO418484   2.224  13.319   5.858 -0.1679  0.1928  0.2341
 1156loPI   GL118485   2.065  13.252   6.226 -0.1222  0.2088 -0.0752
 1156loPI   GL218486   1.931  12.982   6.216  0.0702  0.1574 -0.3642
 1156loPI   C1A18487   2.061  13.235   6.669 -0.2213  0.2496 -0.0185
 1156loPI   C2A18488   2.134  13.293   7.073  0.3304  0.3693 -0.1379
 1156loPI   C3A18489   1.932  13.258   7.420  0.2290  0.1573 -0.1189
 1156loPI   C4A18490   2.004  13.223   7.870 -0.2567  0.0980 -0.0594
 1156loPI   C5A18491   2.109  13.285   8.311  0.4432 -0.1221 -0.1155
 1156loPI   C6A18492   2.423  13.491   8.599  0.2878  0.1129  0.2423
 1156loPI   C1B18493   1.871  12.778   6.658 -0.1477  0.0889  0.3534
 1156loPI   C2B18494   1.885  12.775   7.028  0.2309  0.4055  0.0549
 1156loPI   C3B18495   1.759  12.789   7.381 -0.1407  0.1789 -0.0864
 1156loPI   C4B18496   1.749  12.768   7.824 -0.1385 -0.0266  0.0378
 1157loPI    C118497  15.880   1.892   5.292 -0.0141 -0.0970  0.1057
 1157loPI    C218498  16.137   1.586   5.271 -0.0835 -0.1524  0.0522
 1157loPI    C318499  15.928   1.694   4.948  0.0978  0.0902  0.0123
 1157loPI   PO418500  16.065   2.005   5.562  0.0185 -0.2104  0.2047
 1157loPI   GL118501  16.019   2.091   5.986  0.2604 -0.0444  0.2535
 1157loPI   GL218502  16.290   1.804   6.123  0.0653  0.1028 -0.0748
 1157loPI   C1A18503  15.956   2.141   6.442 -0.0947 -0.0673  0.2127
 1157loPI   C2A18504  15.982   2.149   6.905 -0.1095  0.3265 -0.2417
 1157loPI   C3A18505  16.050   2.135   7.310  0.0405  0.0112 -0.1811
 1157loPI   C4A18506  15.996   2.224   7.772 -0.1800  0.2075 -0.2315
 1157loPI   C5A18507  15.931   2.207   8.256 -0.0114  0.1978  0.1534
 1157loPI   C6A18508  16.011   1.981   8.662 -0.3678  0.0890 -0.0648
 1157loPI   C1B18509  16.219   1.752   6.548 -0.1045  0.0425  0.1189
 1157loPI   C2B18510  16.245   1.686   6.920 -0.2551 -0.0255  0.3905
 1157loPI   C3B18511  16.248   1.723   7.242  0.0519  0.0323 -0.1444
 1157loPI   C4B18512  16.187   1.686   7.761 -0.1073  0.0531 -0.2879
 1158loPI    C118513   2.230  10.918   5.316 -0.0405 -0.0379 -0.0091
 1158loPI    C218514   2.446  11.255   5.302  0.0771 -0.1155 -0.0727
 1158loPI    C318515   2.054  11.266   5.226  0.0750  0.0116 -0.0461
 1158loPI   PO418516   2.231  10.838   5.585 -0.0434 -0.0469 -0.1395
 1158loPI   GL118517   2.189  10.590   5.971 -0.0828  0.1600  0.0779
 1158loPI   GL218518   2.443  10.717   6.028  0.0600  0.1063 -0.3041
 1158loPI   C1A18519   2.185  10.282   6.274  0.0802 -0.0955 -0.1954
 1158loPI   C2A18520   2.224  10.183   6.732 -0.1804  0.1009  0.3009
 1158loPI   C3A18521   2.253  10.134   7.080  0.2748 -0.2003 -0.2074
 1158loPI   C4A18522   2.232  10.148   7.518  0.3391 -0.1127  0.0776
 1158loPI   C5A18523   2.094  10.111   7.929  0.0668 -0.0655 -0.1386
 1158loPI   C6A18524   2.060  10.138   8.389 -0.2621 -0.1159 -0.1229
 1158loPI   C1B18525   2.464  10.620   6.469 -0.1836 -0.0010  0.0352
 1158loPI   C2B18526   2.414  10.657   6.866 -0.1072 -0.0217  0.1244
 1158loPI   C3B18527   2.350  10.661   7.264 -0.1810 -0.2891 -0.0673
 1158loPI   C4B18528   2.200  10.581   7.756  0.0787  0.0836  0.0676
 1159loPI    C118529   5.341   2.200   5.431 -0.0880 -0.2379  0.2153
 1159loPI    C218530   5.076   2.487   5.346  0.1490 -0.0743  0.0154
 1159loPI    C318531   5.014   2.113   5.217 -0.0409 -0.0630  0.0704
 1159loPI   PO418532   5.445   2.254   5.709 -0.0644  0.2764 -0.1084
 1159loPI   GL118533   5.427   2.495   6.057 -0.0083  0.2326  0.0224
 1159loPI   GL218534   5.461   2.788   6.148  0.1884  0.4025 -0.3230
 1159loPI   C1A18535   5.281   2.386   6.459  0.1965  0.1961 -0.0991
 1159loPI   C2A18536   5.284   2.489   6.925 -0.2171  0.1632 -0.0825
 1159loPI   C3A18537   5.328   2.387   7.428  0.1088  0.0016 -0.0405
 1159loPI   C4A18538   5.371   2.380   7.875  0.0225  0.2337  0.0391
 1159loPI   C5A18539   5.423   2.160   8.188  0.0468 -0.0416 -0.0389
 1159loPI   C6A18540   5.298   2.034   8.606 -0.1014 -0.3345 -0.0139
 1159loPI   C1B18541   5.553   2.811   6.607 -0.0549  0.0531  0.0512
 1159loPI   C2B18542   5.486   2.830   7.127 -0.1291 -0.0043 -0.0677
 1159loPI   C3B18543   5.515   2.803   7.606  0.1768  0.0805 -0.2268
 1159loPI   C4B18544   5.502   2.884   7.961 -0.0963  0.0157  0.3125
 1160loPI    C118545   3.286   3.839   5.418  0.0330  0.0801 -0.0700
 1160loPI    C218546   3.137   3.948   5.064 -0.0421  0.2080  0.0004
 1160loPI    C318547   3.393   3.642   5.087 -0.0693  0.1724 -0.1585
 1160loPI   PO418548   3.162   3.798   5.606 -0.0763  0.0723 -0.1861
 1160loPI   GL118549   3.252   3.868   5.995  0.0804  0.0328 -0.2328
 1160loPI   GL218550   3.289   3.523   6.080 -0.2253  0.2220  0.2857
 1160loPI   C1A18551   3.447   3.966   6.337 -0.0415 -0.3102 -0.3564
 1160loPI   C2A18552   3.444   3.965   6.757 -0.0220  0.0198  0.0062
 1160loPI   C3A18553   3.457   3.921   7.156 -0.1864  0.0911 -0.3258
 1160loPI   C4A18554   3.296   3.963   7.657  0.0545 -0.1036  0.2244
 1160loPI   C5A18555   2.841   3.739   7.735 -0.3195 -0.1024 -0.0257
 1160loPI   C6A18556   2.806   3.423   7.544 -0.0946  0.0148  0.1111
 1160loPI   C1B18557   3.222   3.557   6.512  0.3549  0.0136  0.0970
 1160loPI   C2B18558   3.350   3.494   6.928  0.1755  0.1300 -0.0442
 1160loPI   C3B18559   3.308   3.470   7.431  0.1103  0.1490 -0.2011
 1160loPI   C4B18560   3.201   3.427   7.872 -0.1469  0.0840  0.1046
 1161loPI    C118561   3.911   3.853   5.319  0.1705 -0.0798  0.0906
 1161loPI    C218562   3.866   3.470   5.210 -0.4104 -0.0138  0.0673
 1161loPI    C318563   3.863   3.759   4.933 -0.1337  0.0239  0.1007
 1161loPI   PO418564   3.779   3.822   5.557 -0.2722 -0.0343 -0.0555
 1161loPI   GL118565   3.770   3.889   5.940 -0.0938 -0.1251  0.0517
 1161loPI   GL218566   3.792   3.597   6.069 -0.0350 -0.2740 -0.1095
 1161loPI   C1A18567   3.963   4.052   6.333  0.1495 -0.0804 -0.1390
 1161loPI   C2A18568   4.048   3.990   6.726 -0.4475  0.0429  0.0113
 1161loPI   C3A18569   3.942   4.015   7.147  0.0885  0.1045 -0.1826
 1161loPI   C4A18570   4.041   4.003   7.598  0.0186  0.0942 -0.0176
 1161loPI   C5A18571   4.034   3.877   8.051  0.3648  0.1224  0.0075
 1161loPI   C6A18572   4.097   3.802   8.514  0.4336  0.1995  0.1130
 1161loPI   C1B18573   3.799   3.593   6.558 -0.0117  0.1764  0.1598
 1161loPI   C2B18574   3.824   3.560   7.012 -0.1123  0.1315 -0.0467
 1161loPI   C3B18575   3.827   3.543   7.446  0.2070 -0.0497  0.0768
 1161loPI   C4B18576   3.722   3.509   7.866  0.1352 -0.0147 -0.1070
 1162loPI    C118577  13.464   4.973   5.782  0.4862 -0.1771 -0.0330
 1162loPI    C218578  13.397   5.244   5.495  0.0483 -0.1842  0.0545
 1162loPI    C318579  13.257   4.872   5.455  0.1905 -0.2518  0.1735
 1162loPI   PO418580  13.294   5.196   5.962  0.2973  0.0018 -0.0796
 1162loPI   GL118581  13.295   5.632   6.251 -0.0260  0.1477  0.2395
 1162loPI   GL218582  13.097   5.355   6.356  0.0205  0.0909  0.2762
 1162loPI   C1A18583  13.372   5.724   6.735  0.0557 -0.3930 -0.0562
 1162loPI   C2A18584  13.277   5.756   7.130  0.3110  0.0720 -0.0862
 1162loPI   C3A18585  13.306   5.778   7.550 -0.0851 -0.3471 -0.0231
 1162loPI   C4A18586  13.212   5.833   7.899 -0.1093 -0.1497 -0.0189
 1162loPI   C5A18587  13.355   5.919   8.310 -0.0547  0.1544 -0.0222
 1162loPI   C6A18588  13.675   5.977   8.653  0.0073 -0.1601  0.1491
 1162loPI   C1B18589  13.171   5.210   6.768  0.0275  0.0572 -0.0234
 1162loPI   C2B18590  13.061   5.312   7.302 -0.1064 -0.0327  0.0496
 1162loPI   C3B18591  13.114   5.380   7.793 -0.0037  0.1930 -0.2078
 1162loPI   C4B18592  13.154   5.424   8.169  0.0495  0.1557 -0.1282
 1163loPI    C118593   6.565  11.890   5.132  0.2246  0.0310  0.0021
 1163loPI    C218594   6.704  11.620   4.872  0.2961  0.0634  0.0062
 1163loPI    C318595   6.493  11.934   4.741 -0.0555 -0.1576  0.0299
 1163loPI   PO418596   6.612  11.821   5.373 -0.0160  0.0806 -0.1124
 1163loPI   GL118597   6.652  11.966   5.839 -0.3163  0.0882  0.0147
 1163loPI   GL218598   6.741  11.705   6.148 -0.0344 -0.2725  0.0078
 1163loPI   C1A18599   6.451  12.097   6.224 -0.1243 -0.1229 -0.3456
 1163loPI   C2A18600   6.373  12.058   6.606 -0.3337 -0.1168  0.2895
 1163loPI   C3A18601   6.313  12.093   6.954  0.0177 -0.2617 -0.1342
 1163loPI   C4A18602   6.251  11.961   7.313  0.0322  0.1630  0.2596
 1163loPI   C5A18603   6.256  11.995   7.759  0.1356 -0.1140 -0.3707
 1163loPI   C6A18604   6.296  11.859   8.127 -0.0950 -0.1786 -0.1230
 1163loPI   C1B18605   6.615  11.509   6.411  0.0964  0.0844  0.0195
 1163loPI   C2B18606   6.583  11.613   6.733 -0.2347  0.1830  0.2416
 1163loPI   C3B18607   6.671  11.513   7.145  0.0258 -0.1289 -0.1015
 1163loPI   C4B18608   6.595  11.619   7.614 -0.0380  0.0320  0.1051
 1164loPI    C118609  14.699   2.826   5.478 -0.2521  0.0840  0.2540
 1164loPI    C218610  14.405   2.723   5.227  0.0078 -0.0613  0.0041
 1164loPI    C318611  14.757   2.847   5.083  0.1155 -0.0157  0.2996
 1164loPI   PO418612  14.553   2.965   5.667  0.0718  0.0705  0.1319
 1164loPI   GL118613  14.608   3.040   6.109 -0.0004 -0.3495  0.0375
 1164loPI   GL218614  14.834   2.844   6.204 -0.0897 -0.0769 -0.0166
 1164loPI   C1A18615  14.570   3.322   6.451  0.1098  0.4898  0.0218
 1164loPI   C2A18616  14.551   3.346   6.866  0.2412 -0.0765 -0.0596
 1164loPI   C3A18617  14.622   3.355   7.265  0.0362  0.4177  0.3402
 1164loPI   C4A18618  14.543   3.353   7.713  0.1515 -0.2697 -0.4627
 1164loPI   C5A18619  14.391   3.501   8.140 -0.2066 -0.1250  0.1126
 1164loPI   C6A18620  14.232   3.339   8.509 -0.4145  0.1179 -0.0047
 1164loPI   C1B18621  14.904   2.996   6.644  0.1015  0.0256  0.1294
 1164loPI   C2B18622  14.882   2.923   7.012  0.0129 -0.1165  0.0220
 1164loPI   C3B18623  14.817   2.923   7.449  0.0600  0.0669  0.1883
 1164loPI   C4B18624  14.835   2.907   7.878 -0.1652 -0.1356 -0.0126
 1165loPI    C118625  13.646   4.549   5.757 -0.1439 -0.0292  0.0050
 1165loPI    C218626  13.685   4.161   5.669 -0.3084 -0.0623  0.0738
 1165loPI    C318627  13.374   4.368   5.527 -0.1235  0.0903 -0.1143
 1165loPI   PO418628  13.732   4.522   6.090 -0.0729 -0.3618  0.2029
 1165loPI   GL118629  13.732   4.523   6.626  0.1266  0.1836 -0.0734
 1165loPI   GL218630  14.019   4.260   6.429 -0.1841  0.0078  0.1893
 1165loPI   C1A18631  13.472   4.854   6.898  0.2262  0.0539 -0.1523
 1165loPI   C2A18632  13.134   4.859   7.137 -0.0641 -0.2617  0.2100
 1165loPI   C3A18633  12.959   4.849   7.580  0.2853 -0.1668 -0.1428
 1165loPI   C4A18634  13.016   4.840   8.087  0.2095  0.1934 -0.0419
 1165loPI   C5A18635  13.225   4.443   8.278  0.0694 -0.3516 -0.1100
 1165loPI   C6A18636  12.990   4.079   8.368 -0.2634  0.0264  0.2591
 1165loPI   C1B18637  13.962   4.140   6.830 -0.0312  0.1316 -0.0954
 1165loPI   C2B18638  13.859   4.015   7.197 -0.2917 -0.0790  0.1199
 1165loPI   C3B18639  13.615   3.975   7.612  0.0737  0.0210 -0.1512
 1165loPI   C4B18640  13.342   4.058   7.938 -0.1393 -0.3349 -0.2009
 1166loPI    C118641   5.870   9.915   5.344  0.1007 -0.0078 -0.0621
 1166loPI    C218642   5.849  10.240   5.111  0.1542 -0.0789 -0.1669
 1166loPI    C318643   5.792   9.877   4.953  0.1589 -0.1253 -0.0627
 1166loPI   PO418644   5.677   9.859   5.601  0.1858 -0.4142 -0.2164
 1166loPI   GL118645   5.501   9.921   5.873  0.0690 -0.1293 -0.1443
 1166loPI   GL218646   5.409   9.690   6.087 -0.4149 -0.0633 -0.1376
 1166loPI   C1A18647   5.470  10.098   6.364 -0.0676 -0.3461 -0.0678
 1166loPI   C2A18648   5.536  10.074   6.842 -0.2601  0.2310 -0.2685
 1166loPI   C3A18649   5.546  10.057   7.259  0.4835 -0.1186 -0.2721
 1166loPI   C4A18650   5.481  10.014   7.680 -0.0731  0.3198  0.3475
 1166loPI   C5A18651   5.377   9.974   8.056 -0.1064  0.0409  0.4038
 1166loPI   C6A18652   5.411   9.887   8.476  0.2658  0.1401  0.2373
 1166loPI   C1B18653   5.363   9.658   6.530  0.1915  0.2664 -0.0934
 1166loPI   C2B18654   5.346   9.532   6.948  0.0352 -0.1011  0.0028
 1166loPI   C3B18655   5.430   9.501   7.405  0.0731 -0.1559  0.0314
 1166loPI   C4B18656   5.276   9.436   7.782 -0.1944  0.0401 -0.0677
 1167loPI    C118657   5.563  15.841   5.427  0.4070  0.0847  0.1773
 1167loPI    C218658   5.409  16.164   5.249  0.1190 -0.0862  0.1097
 1167loPI    C318659   5.805  16.126   5.286  0.1632  0.1749 -0.0684
 1167loPI   PO418660   5.483  15.813   5.653 -0.1051  0.1031  0.1295
 1167loPI   GL118661   5.703  15.535   5.966  0.0033  0.1123  0.0736
 1167loPI   GL218662   5.817  15.154   6.073 -0.0588 -0.0557 -0.1239
 1167loPI   C1A18663   5.919  15.719   6.336  0.0943  0.5289  0.1351
 1167loPI   C2A18664   5.874  15.642   6.831  0.1675  0.1855 -0.1504
 1167loPI   C3A18665   5.922  15.583   7.294  0.1826 -0.1289 -0.1448
 1167loPI   C4A18666   5.878  15.615   7.765  0.0795  0.1437 -0.1257
 1167loPI   C5A18667   6.141  15.607   8.079 -0.1537  0.0233  0.0381
 1167loPI   C6A18668   6.290  15.589   8.472  0.0152  0.1702 -0.2808
 1167loPI   C1B18669   5.771  15.277   6.502  0.1452  0.1107 -0.0532
 1167loPI   C2B18670   5.727  15.115   6.895 -0.3784 -0.4403  0.4378
 1167loPI   C3B18671   5.723  15.116   7.329  0.1095  0.0810 -0.2420
 1167loPI   C4B18672   5.685  15.121   7.718  0.1172  0.1510  0.1228
 1168loPI    C118673  15.691   3.685   5.347 -0.2839  0.0973 -0.1008
 1168loPI    C218674  15.857   4.035   5.250  0.0720 -0.0689 -0.1084
 1168loPI    C318675  15.759   3.774   4.963  0.0585 -0.0870 -0.0874
 1168loPI   PO418676  15.799   3.609   5.614 -0.0240  0.1448 -0.1468
 1168loPI   GL118677  15.687   3.642   6.020  0.1013  0.1763  0.0200
 1168loPI   GL218678  15.599   3.423   6.141  0.3586 -0.1484  0.0214
 1168loPI   C1A18679  15.820   3.836   6.489 -0.1204  0.2953  0.0402
 1168loPI   C2A18680  15.831   3.882   6.839 -0.2752 -0.2384 -0.1020
 1168loPI   C3A18681  15.727   3.914   7.303  0.1316 -0.1202 -0.0792
 1168loPI   C4A18682  15.784   3.929   7.678 -0.0138 -0.1540  0.1869
 1168loPI   C5A18683  15.871   3.895   8.017 -0.1932 -0.1128  0.0445
 1168loPI   C6A18684  16.120   3.516   8.194 -0.0817 -0.0440  0.0390
 1168loPI   C1B18685  15.596   3.400   6.639 -0.1737 -0.2196  0.1342
 1168loPI   C2B18686  15.591   3.470   7.070 -0.0240 -0.0011  0.0926
 1168loPI   C3B18687  15.606   3.471   7.539 -0.1269  0.1060 -0.2107
 1168loPI   C4B18688  15.575   3.483   8.030  0.3761  0.2128  0.2275
 1169loPI    C118689  16.099   3.195   5.410  0.1250 -0.1668 -0.1466
 1169loPI    C218690  16.390   3.191   5.135  0.0357 -0.0898 -0.2427
 1169loPI    C318691  16.021   3.310   5.035 -0.0023 -0.0812 -0.0947
 1169loPI   PO418692  16.111   3.008   5.554  0.1918  0.0130  0.0418
 1169loPI   GL118693  15.892   2.875   6.042  0.0078  0.0916  0.0188
 1169loPI   GL218694  16.068   3.268   5.988 -0.2450  0.0757 -0.0940
 1169loPI   C1A18695  15.933   3.039   6.481 -0.2385 -0.0141 -0.0634
 1169loPI   C2A18696  15.875   3.045   6.960 -0.2128  0.0735 -0.0518
 1169loPI   C3A18697  15.880   3.015   7.380  0.1033 -0.3054  0.0121
 1169loPI   C4A18698  15.942   3.064   7.766 -0.1742 -0.1534 -0.0378
 1169loPI   C5A18699  15.820   3.091   8.282  0.0161  0.0049 -0.1481
 1169loPI   C6A18700  15.711   2.937   8.706  0.3319 -0.2524  0.0746
 1169loPI   C1B18701  16.159   3.467   6.415 -0.0354 -0.2295 -0.0030
 1169loPI   C2B18702  16.107   3.469   6.852 -0.2775  0.0097 -0.2146
 1169loPI   C3B18703  16.090   3.500   7.268 -0.2802 -0.1634 -0.3436
 1169loPI   C4B18704  16.112   3.540   7.734  0.0957  0.1355  0.0248
 1170loPI    C118705  16.881   9.205   5.551 -0.0349 -0.0597  0.0994
 1170loPI    C218706  16.684   9.468   5.323 -0.0104 -0.0735  0.0623
 1170loPI    C318707  16.562   9.087   5.341  0.2360 -0.1718 -0.2585
 1170loPI   PO418708  16.902   9.251   5.840  0.0285  0.2519 -0.3125
 1170loPI   GL118709  16.649   9.244   6.240 -0.1100 -0.4105 -0.0691
 1170loPI   GL218710  16.525   8.870   6.345 -0.0863 -0.3475 -0.0134
 1170loPI   C1A18711  16.713   9.265   6.636 -0.0847 -0.0010 -0.1477
 1170loPI   C2A18712  16.620   9.279   7.090  0.1628 -0.1177  0.3133
 1170loPI   C3A18713  16.667   9.304   7.538  0.1202  0.3888 -0.3957
 1170loPI   C4A18714  16.625   9.282   7.895  0.0875 -0.0348 -0.1506
 1170loPI   C5A18715  16.718   9.415   8.191  0.0255 -0.0844  0.0094
 1170loPI   C6A18716  16.560   9.541   8.586  0.4094  0.1828  0.1663
 1170loPI   C1B18717  16.563   8.814   6.786  0.2100  0.0247  0.2051
 1170loPI   C2B18718  16.508   8.851   7.271 -0.0424  0.0479  0.1258
 1170loPI   C3B18719  16.510   8.842   7.621  0.0060  0.2153 -0.1348
 1170loPI   C4B18720  16.511   8.800   8.113 -0.0745  0.0603 -0.2555
 1171loPI    C118721   6.385  10.130   5.318 -0.1351  0.0968  0.1139
 1171loPI    C218722   6.310  10.400   5.032  0.0919  0.1623  0.1144
 1171loPI    C318723   6.285  10.009   4.950 -0.2181  0.1806  0.1082
 1171loPI   PO418724   6.213  10.253   5.504 -0.0790  0.0676  0.0823
 1171loPI   GL118725   6.055  10.332   5.938 -0.0476 -0.0075 -0.3097
 1171loPI   GL218726   5.969  10.060   6.028 -0.2199  0.1127  0.1257
 1171loPI   C1A18727   6.315  10.507   6.311 -0.0109  0.0085  0.2455
 1171loPI   C2A18728   6.189  10.630   6.782 -0.0891 -0.2390 -0.3106
 1171loPI   C3A18729   6.198  10.623   7.279 -0.1563 -0.0749 -0.1645
 1171loPI   C4A18730   6.324  10.520   7.727  0.0639 -0.0807 -0.1260
 1171loPI   C5A18731   6.150  10.525   8.153 -0.1414 -0.0589  0.1744
 1171loPI   C6A18732   6.235  10.276   8.514  0.0674  0.2425  0.0317
 1171loPI   C1B18733   5.989  10.164   6.494  0.0015 -0.3702 -0.2639
 1171loPI   C2B18734   6.055  10.098   6.925  0.5017 -0.1249  0.2458
 1171loPI   C3B18735   6.112  10.060   7.323 -0.1132 -0.1300 -0.0166
 1171loPI   C4B18736   5.979  10.036   7.786  0.1753  0.0289 -0.0752
 1172loPI    C118737  11.323   4.196   5.714  0.0127 -0.1720 -0.2820
 1172loPI    C218738  11.691   4.291   5.588  0.0132  0.0161 -0.1432
 1172loPI    C318739  11.380   4.523   5.490 -0.0360 -0.0222 -0.0784
 1172loPI   PO418740  11.380   4.186   5.976 -0.1209  0.3621 -0.1127
 1172loPI   GL118741  11.152   4.215   6.317  0.0766 -0.1611 -0.1342
 1172loPI   GL218742  11.219   4.514   6.324  0.0802  0.0783 -0.0560
 1172loPI   C1A18743  10.839   3.946   6.552 -0.0803 -0.2336  0.0654
 1172loPI   C2A18744  10.756   3.920   6.970 -0.0251 -0.2278  0.1342
 1172loPI   C3A18745  10.829   4.055   7.449  0.2228  0.2913 -0.1680
 1172loPI   C4A18746  10.814   4.152   7.829  0.1486  0.1113  0.1181
 1172loPI   C5A18747  10.649   4.253   8.274 -0.1669  0.3471 -0.0956
 1172loPI   C6A18748  10.580   4.529   8.639 -0.2004 -0.0679 -0.0383
 1172loPI   C1B18749  10.921   4.514   6.701  0.1695 -0.0200 -0.1151
 1172loPI   C2B18750  10.962   4.518   7.134 -0.0547 -0.2145 -0.3215
 1172loPI   C3B18751  10.998   4.545   7.615 -0.0045 -0.1949 -0.1357
 1172loPI   C4B18752  10.950   4.666   8.086  0.2047 -0.4449 -0.0864
 1173loPI    C118753  17.457  16.571   5.319 -0.0732 -0.0252 -0.1269
 1173loPI    C218754  17.469  16.243   5.091  0.0517  0.0317 -0.2035
 1173loPI    C318755  17.151  16.485   5.076 -0.0172 -0.0571 -0.1861
 1173loPI   PO418756  17.509  16.499   5.567  0.0449 -0.0543 -0.1135
 1173loPI   GL118757  17.384  16.361   5.945  0.0586  0.0313  0.0703
 1173loPI   GL218758  17.685  16.452   6.073 -0.2150  0.1259  0.0007
 1173loPI   C1A18759  17.320  16.490   6.453  0.1677 -0.1803 -0.2466
 1173loPI   C2A18760  17.325  16.558   6.944 -0.2013  0.3375 -0.0374
 1173loPI   C3A18761  17.380  16.535   7.394 -0.0636  0.2147  0.3157
 1173loPI   C4A18762  17.329  16.567   7.831 -0.0851  0.0737 -0.0440
 1173loPI   C5A18763  17.209  16.636   8.271 -0.1435  0.0397 -0.0126
 1173loPI   C6A18764  17.443  16.490   8.605 -0.2131 -0.3575  0.1360
 1173loPI   C1B18765  17.855  16.408   6.398  0.2558  0.0533 -0.1525
 1173loPI   C2B18766  17.833  16.487   6.836 -0.2831  0.0175  0.0503
 1173loPI   C3B18767  17.902  16.590   7.240  0.0689  0.1441 -0.0593
 1173loPI   C4B18768  17.866  16.606   7.659  0.1592  0.1475  0.2418
 1174loPI    C118769   6.277   6.041   5.246 -0.2930  0.1998  0.0702
 1174loPI    C218770   6.331   5.697   5.443  0.1939  0.1745 -0.0943
 1174loPI    C318771   6.101   5.706   5.115  0.1438  0.0155 -0.0645
 1174loPI   PO418772   6.258   6.212   5.465 -0.2979 -0.2289  0.0314
 1174loPI   GL118773   6.427   6.009   5.788 -0.0426 -0.1002 -0.2885
 1174loPI   GL218774   6.433   6.246   5.955  0.0016  0.4239 -0.1310
 1174loPI   C1A18775   6.642   5.779   6.158 -0.0103 -0.0676 -0.0341
 1174loPI   C2A18776   6.673   5.704   6.631  0.0035  0.0638  0.0926
 1174loPI   C3A18777   6.581   5.776   7.050  0.1627 -0.1094  0.2640
 1174loPI   C4A18778   6.608   5.671   7.518 -0.1431 -0.0374 -0.0768
 1174loPI   C5A18779   6.573   5.667   7.939  0.2433 -0.4174  0.0238
 1174loPI   C6A18780   6.399   5.753   8.392 -0.0125 -0.1340 -0.1995
 1174loPI   C1B18781   6.394   6.140   6.443  0.0473 -0.0834 -0.0755
 1174loPI   C2B18782   6.316   6.181   6.888 -0.1842  0.3094  0.1670
 1174loPI   C3B18783   6.264   6.084   7.320  0.2182  0.1016 -0.1423
 1174loPI   C4B18784   6.219   6.020   7.710 -0.1964 -0.1716  0.1334
 1175loPI    C118785  16.255   3.791   5.625 -0.0478  0.2566 -0.0257
 1175loPI    C218786  16.638   3.805   5.509 -0.0098 -0.3365 -0.0028
 1175loPI    C318787  16.359   3.659   5.262 -0.1678 -0.2225  0.1066
 1175loPI   PO418788  16.321   3.771   5.859  0.3111  0.1860 -0.0829
 1175loPI   GL118789  16.418   3.947   6.240 -0.1819  0.1184 -0.1410
 1175loPI   GL218790  16.762   4.057   6.422  0.0561 -0.2278 -0.0743
 1175loPI   C1A18791  16.324   3.954   6.644 -0.1943  0.0655  0.1764
 1175loPI   C2A18792  16.304   3.950   7.074  0.3889 -0.0609 -0.1052
 1175loPI   C3A18793  16.312   4.001   7.535  0.3499 -0.0364 -0.3095
 1175loPI   C4A18794  16.364   4.029   8.006 -0.1099  0.1275  0.0129
 1175loPI   C5A18795  16.572   4.172   8.474  0.0953 -0.0255 -0.0887
 1175loPI   C6A18796  16.865   4.028   8.704  0.0580 -0.0934 -0.1348
 1175loPI   C1B18797  16.835   3.979   6.838  0.0753  0.1487 -0.2826
 1175loPI   C2B18798  16.765   4.083   7.239  0.1473 -0.4111 -0.0131
 1175loPI   C3B18799  16.859   3.953   7.639 -0.0149 -0.0655  0.1336
 1175loPI   C4B18800  16.841   4.126   8.046  0.1417 -0.0356 -0.4237
 1176loPI    C118801  11.047   8.083   5.432  0.0149 -0.1958  0.0110
 1176loPI    C218802  10.902   7.722   5.343 -0.2372 -0.0699 -0.0993
 1176loPI    C318803  10.813   8.036   5.112  0.1357  0.0303 -0.1133
 1176loPI   PO418804  10.977   8.209   5.640  0.2484  0.1307 -0.3408
 1176loPI   GL118805  10.727   8.306   6.057 -0.0749 -0.0792 -0.2836
 1176loPI   GL218806  10.654   8.618   6.242 -0.2090 -0.1218 -0.2554
 1176loPI   C1A18807  10.815   8.069   6.388 -0.2226  0.2083 -0.1054
 1176loPI   C2A18808  10.920   8.065   6.792 -0.1795 -0.1572  0.0694
 1176loPI   C3A18809  10.961   8.132   7.182  0.0568  0.3072 -0.3871
 1176loPI   C4A18810  10.899   8.144   7.650 -0.0150 -0.1575 -0.1149
 1176loPI   C5A18811  10.912   8.122   8.030 -0.1711  0.1734 -0.1809
 1176loPI   C6A18812  11.078   7.982   8.411 -0.0028  0.0463 -0.1216
 1176loPI   C1B18813  10.685   8.478   6.681 -0.1567 -0.0988  0.1397
 1176loPI   C2B18814  10.638   8.528   7.037  0.1260 -0.2154 -0.1471
 1176loPI   C3B18815  10.591   8.585   7.500 -0.1699  0.1028 -0.1468
 1176loPI   C4B18816  10.617   8.566   7.852 -0.0593 -0.1933 -0.0916
 1177loPI    C118817  14.133  14.927   5.306 -0.0294  0.0859 -0.0800
 1177loPI    C218818  14.441  14.823   5.073 -0.0797  0.0673 -0.1382
 1177loPI    C318819  14.086  14.644   5.028 -0.0522 -0.0350  0.0461
 1177loPI   PO418820  14.244  14.893   5.638  0.1510  0.2563 -0.1248
 1177loPI   GL118821  14.356  14.973   6.094 -0.2306 -0.1125  0.2088
 1177loPI   GL218822  14.325  15.331   6.048  0.0066 -0.2586  0.1282
 1177loPI   C1A18823  14.122  14.857   6.575  0.0643  0.1542  0.0801
 1177loPI   C2A18824  14.067  14.871   7.001 -0.0052  0.0013  0.0197
 1177loPI   C3A18825  14.165  14.772   7.406 -0.2352 -0.1898 -0.0367
 1177loPI   C4A18826  14.158  14.819   7.810 -0.1694  0.1983  0.0996
 1177loPI   C5A18827  14.024  14.825   8.235 -0.0993 -0.1144  0.1707
 1177loPI   C6A18828  14.134  14.889   8.646 -0.2818 -0.1787 -0.1083
 1177loPI   C1B18829  14.382  15.409   6.549  0.3539  0.0044 -0.0220
 1177loPI   C2B18830  14.289  15.317   6.926 -0.1774  0.1362  0.1582
 1177loPI   C3B18831  14.324  15.352   7.430 -0.1532 -0.0122  0.0836
 1177loPI   C4B18832  14.302  15.283   7.872 -0.2185  0.2832  0.0077
 1178loPI    C118833  17.387  13.496   5.602 -0.1117  0.4372 -0.0075
 1178loPI    C218834  17.097  13.293   5.415  0.1221 -0.0197  0.1129
 1178loPI    C318835  17.340  13.532   5.206  0.1169 -0.2012 -0.1050
 1178loPI   PO418836  17.288  13.525   5.818  0.0904 -0.0550 -0.1518
 1178loPI   GL118837  17.046  13.393   6.292  0.2964  0.1352  0.2492
 1178loPI   GL218838  16.887  13.214   6.430  0.1303  0.0153  0.0396
 1178loPI   C1A18839  17.076  13.622   6.633 -0.0444 -0.0209  0.4680
 1178loPI   C2A18840  17.082  13.840   7.001  0.0234  0.1612  0.1006
 1178loPI   C3A18841  17.184  13.830   7.383 -0.0517 -0.1055  0.0992
 1178loPI   C4A18842  17.079  13.855   7.817 -0.0689 -0.1382 -0.1056
 1178loPI   C5A18843  17.068  13.842   8.171  0.5093 -0.1048 -0.4416
 1178loPI   C6A18844  17.079  13.944   8.581  0.0681  0.1383 -0.0091
 1178loPI   C1B18845  16.870  13.292   6.972 -0.2514  0.3785  0.1439
 1178loPI   C2B18846  16.965  13.352   7.312  0.1408  0.1766 -0.1763
 1178loPI   C3B18847  16.961  13.362   7.672 -0.1268 -0.0716 -0.3311
 1178loPI   C4B18848  16.811  13.424   8.062 -0.1549 -0.0295  0.0027
 1179loPI    C118849   8.382  16.566   5.526 -0.2141 -0.2061 -0.2094
 1179loPI    C218850   8.112  16.860   5.507 -0.0473 -0.0544 -0.2571
 1179loPI    C318851   8.411  16.847   5.243  0.1784 -0.0352 -0.0071
 1179loPI   PO418852   8.407  16.516   5.786  0.0188  0.0347  0.1758
 1179loPI   GL118853   8.484  16.428   6.169  0.2434 -0.1512  0.2553
 1179loPI   GL218854   8.723  16.526   6.336  0.1578  0.3220 -0.1565
 1179loPI   C1A18855   8.163  16.378   6.510 -0.3064 -0.0639  0.4535
 1179loPI   C2A18856   7.991  16.469   6.893 -0.1553 -0.0289  0.2351
 1179loPI   C3A18857   8.022  16.442   7.351  0.0173  0.2221 -0.2050
 1179loPI   C4A18858   8.126  16.276   7.774  0.3863 -0.3378  0.0790
 1179loPI   C5A18859   8.375  16.165   8.122  0.2244  0.1595 -0.0084
 1179loPI   C6A18860   8.245  15.938   8.550  0.0439 -0.0326  0.0004
 1179loPI   C1B18861   8.588  16.453   6.746  0.1172 -0.0587 -0.1230
 1179loPI   C2B18862   8.504  16.493   7.239  0.0977  0.0521  0.0822
 1179loPI   C3B18863   8.549  16.387   7.627  0.0772 -0.0440 -0.1635
 1179loPI   C4B18864   8.358  16.660   8.016  0.0302 -0.1270 -0.2425
 1180loPI    C118865   9.013  17.170   5.724 -0.0480  0.1180  0.0545
 1180loPI    C218866   9.400  17.228   5.641 -0.0707  0.2346  0.0289
 1180loPI    C318867   9.119  17.357   5.387 -0.1285  0.2123  0.0811
 1180loPI   PO418868   9.023  17.170   5.974 -0.0234  0.0853 -0.1546
 1180loPI   GL118869   9.092  17.334   6.375  0.3595 -0.3894  0.2646
 1180loPI   GL218870   8.890  17.581   6.270 -0.1390  0.3157 -0.1079
 1180loPI   C1A18871   8.948  17.417   6.753 -0.1463  0.0591 -0.0499
 1180loPI   C2A18872   8.918  17.359   7.176  0.2595  0.0757  0.1398
 1180loPI   C3A18873   8.935  17.356   7.626 -0.0866 -0.0553  0.2371
 1180loPI   C4A18874   8.971  17.381   8.048 -0.2398 -0.2829  0.1743
 1180loPI   C5A18875   9.082  17.368   8.481 -0.2364 -0.0949 -0.0708
 1180loPI   C6A18876   9.121  16.904   8.689 -0.1766  0.1054 -0.0386
 1180loPI   C1B18877   9.105  17.871   6.607  0.2127  0.0825 -0.2717
 1180loPI   C2B18878   9.155  17.931   7.033  0.2138 -0.1440 -0.1207
 1180loPI   C3B18879   9.109  17.800   7.424  0.0203 -0.0207 -0.0399
 1180loPI   C4B18880   9.054  17.845   7.874 -0.0255 -0.0236 -0.0111
 1181loPI    C118881  15.176   3.087   5.353 -0.0821  0.5840 -0.1195
 1181loPI    C218882  15.550   3.169   5.237  0.0034  0.2678 -0.0762
 1181loPI    C318883  15.299   2.980   4.988  0.0972 -0.1535  0.1410
 1181loPI   PO418884  15.205   3.057   5.584  0.0244 -0.0770  0.0327
 1181loPI   GL118885  15.218   3.101   6.041  0.1319 -0.1146  0.1507
 1181loPI   GL218886  15.369   2.935   6.136  0.0121 -0.0351 -0.0230
 1181loPI   C1A18887  15.110   3.379   6.374 -0.0357  0.0911  0.1372
 1181loPI   C2A18888  15.117   3.351   6.835 -0.1396  0.0373  0.1999
 1181loPI   C3A18889  15.096   3.418   7.244 -0.3506 -0.1404 -0.1120
 1181loPI   C4A18890  15.061   3.392   7.599 -0.1670 -0.0021  0.1823
 1181loPI   C5A18891  15.006   3.413   7.990 -0.1459 -0.3477  0.5218
 1181loPI   C6A18892  14.793   3.307   8.369 -0.0941 -0.2797  0.0452
 1181loPI   C1B18893  15.373   2.982   6.563  0.1535 -0.1307 -0.1252
 1181loPI   C2B18894  15.377   3.025   7.048  0.0713  0.1697  0.1143
 1181loPI   C3B18895  15.394   3.022   7.560  0.0035  0.3101  0.0533
 1181loPI   C4B18896  15.308   3.047   7.962 -0.0812 -0.0495 -0.0025
 1182loPI    C118897   3.897   1.163   5.434 -0.0629  0.0797  0.0638
 1182loPI    C218898   4.173   0.990   5.201  0.0099  0.0729  0.1543
 1182loPI    C318899   3.837   1.136   5.040 -0.0024 -0.0547  0.0630
 1182loPI   PO418900   3.939   0.925   5.686  0.1639  0.2941 -0.0777
 1182loPI   GL118901   3.737   0.680   5.960 -0.2409  0.1547 -0.0771
 1182loPI   GL218902   4.032   0.406   6.200  0.0050  0.2908  0.0672
 1182loPI   C1A18903   3.628   0.886   6.294  0.3168  0.1046  0.1487
 1182loPI   C2A18904   3.691   0.838   6.671 -0.2633  0.1241  0.1941
 1182loPI   C3A18905   3.670   0.838   7.066  0.3639 -0.1730  0.0152
 1182loPI   C4A18906   3.643   0.701   7.450 -0.1590 -0.1942  0.1014
 1182loPI   C5A18907   3.696   0.842   7.866 -0.0676  0.1303 -0.1080
 1182loPI   C6A18908   3.737   1.093   8.294 -0.1113  0.0380 -0.1889
 1182loPI   C1B18909   3.923   0.389   6.539 -0.0521 -0.1639 -0.0428
 1182loPI   C2B18910   4.056   0.447   6.995  0.2068 -0.1907  0.3062
 1182loPI   C3B18911   4.059   0.409   7.396 -0.0665  0.0943  0.0578
 1182loPI   C4B18912   3.971   0.421   7.795 -0.1823  0.2858 -0.1368
 1183loPI    C118913  16.083  10.871   5.763 -0.1783 -0.3545 -0.0871
 1183loPI    C218914  16.225  10.679   5.442 -0.1086  0.0170 -0.2848
 1183loPI    C318915  16.462  10.926   5.648 -0.1916 -0.1178 -0.0231
 1183loPI   PO418916  15.981  10.701   5.954  0.0123  0.1009  0.2323
 1183loPI   GL118917  15.944  10.354   6.208 -0.0167 -0.2924 -0.1793
 1183loPI   GL218918  16.252  10.116   6.189 -0.2747 -0.0868  0.2217
 1183loPI   C1A18919  15.842  10.247   6.652  0.1624 -0.0959 -0.1939
 1183loPI   C2A18920  16.065  10.188   7.025  0.0713  0.0057  0.0236
 1183loPI   C3A18921  16.031  10.126   7.413 -0.0604  0.0655 -0.3029
 1183loPI   C4A18922  16.073  10.136   7.889  0.2141  0.1372 -0.0187
 1183loPI   C5A18923  16.507  10.304   8.096 -0.3075 -0.1523 -0.0779
 1183loPI   C6A18924  16.758  10.642   8.356  0.1041  0.1699  0.0217
 1183loPI   C1B18925  16.350  10.314   6.593 -0.0763 -0.0891 -0.0146
 1183loPI   C2B18926  16.593  10.128   6.857  0.1865 -0.0530  0.1784
 1183loPI   C3B18927  16.650  10.144   7.241  0.0710  0.2506  0.1176
 1183loPI   C4B18928  16.548  10.164   7.598  0.2186 -0.0390 -0.1189
 1184loPI    C118929   9.843  11.255   5.641 -0.4335  0.0226  0.3310
 1184loPI    C218930   9.660  11.124   5.310  0.0374 -0.0680  0.0977
 1184loPI    C318931   9.838  11.482   5.311  0.2478 -0.1712  0.1723
 1184loPI   PO418932   9.990  11.066   5.716 -0.1565 -0.1272 -0.3939
 1184loPI   GL118933   9.910  10.837   6.069 -0.0109  0.2093  0.1908
 1184loPI   GL218934   9.608  10.727   6.232  0.0599  0.0415 -0.0568
 1184loPI   C1A18935  10.012  10.828   6.504  0.0028 -0.2731 -0.2164
 1184loPI   C2A18936  10.063  10.780   6.927 -0.2426  0.3601 -0.2044
 1184loPI   C3A18937   9.995  10.734   7.265  0.2589 -0.1317 -0.3638
 1184loPI   C4A18938   9.983  10.785   7.677 -0.1309  0.0454  0.1876
 1184loPI   C5A18939   9.940  10.867   8.146  0.0375  0.1610 -0.0701
 1184loPI   C6A18940  10.202  10.729   8.471 -0.0696  0.0612  0.0495
 1184loPI   C1B18941   9.592  10.666   6.709  0.2277  0.1647 -0.0234
 1184loPI   C2B18942   9.490  10.702   7.122  0.0954  0.0138  0.2595
 1184loPI   C3B18943   9.525  10.605   7.530 -0.1886  0.0627  0.2579
 1184loPI   C4B18944   9.492  10.654   7.957  0.0500 -0.2210 -0.1324
 1185loPI    C118945  12.049  11.991   5.536 -0.0390  0.1818  0.1392
 1185loPI    C218946  12.406  12.128   5.418 -0.0650  0.2354  0.1227
 1185loPI    C318947  12.084  12.366   5.401 -0.1375  0.1278 -0.0395
 1185loPI   PO418948  12.160  11.843   5.731 -0.0034 -0.0184 -0.0780
 1185loPI   GL118949  12.110  11.762   6.152  0.0955 -0.1189 -0.0499
 1185loPI   GL218950  12.199  11.482   6.129 -0.0712  0.2471 -0.1503
 1185loPI   C1A18951  11.974  11.887   6.518  0.0240  0.0179  0.2314
 1185loPI   C2A18952  12.025  11.859   7.000 -0.0378 -0.1700 -0.0743
 1185loPI   C3A18953  11.943  11.909   7.418 -0.0223 -0.2466  0.2652
 1185loPI   C4A18954  11.950  11.836   7.841 -0.2051 -0.0322  0.0245
 1185loPI   C5A18955  11.833  11.899   8.286 -0.2398 -0.1606  0.0155
 1185loPI   C6A18956  11.878  12.035   8.786  0.2217  0.2274 -0.1250
 1185loPI   C1B18957  12.214  11.506   6.616 -0.1809  0.1378  0.1791
 1185loPI   C2B18958  12.310  11.419   7.052 -0.1535  0.0082  0.2727
 1185loPI   C3B18959  12.305  11.452   7.536  0.0278  0.1937 -0.0331
 1185loPI   C4B18960  12.197  11.455   7.983  0.1958  0.0634 -0.2619
 1186loPI    C118961  13.369  17.458   5.600  0.0018  0.1240  0.0666
 1186loPI    C218962  13.334  17.204   5.293 -0.0241  0.0019  0.1692
 1186loPI    C318963  13.343  17.598   5.227  0.0844 -0.0273  0.0031
 1186loPI   PO418964  13.295  17.396   5.806 -0.3548 -0.3283  0.0337
 1186loPI   GL118965  13.498  17.501   6.184  0.3035 -0.1809  0.2305
 1186loPI   GL218966  13.593  17.716   6.349  0.2392 -0.1991 -0.0473
 1186loPI   C1A18967  13.415  17.439   6.683 -0.1530  0.1164  0.0447
 1186loPI   C2A18968  13.361  17.473   7.152  0.0313  0.0086  0.0967
 1186loPI   C3A18969  13.333  17.384   7.633 -0.1035 -0.2390  0.0523
 1186loPI   C4A18970  13.294  17.405   8.005  0.0633  0.0585 -0.1311
 1186loPI   C5A18971  13.165  17.504   8.447 -0.0904 -0.3959  0.1614
 1186loPI   C6A18972  13.078  17.491   8.872 -0.1692  0.0792  0.0667
 1186loPI   C1B18973  13.614  17.954   6.747  0.0094  0.1192  0.1418
 1186loPI   C2B18974  13.558  17.942   7.279 -0.1384  0.3262  0.0312
 1186loPI   C3B18975  13.497  17.902   7.683 -0.2225 -0.1657 -0.3581
 1186loPI   C4B18976  13.480  17.858   8.155 -0.1710  0.1087  0.0351
 1187loPI    C118977   0.057   5.367   5.299 -0.1708 -0.0687  0.0530
 1187loPI    C218978   0.316   5.405   4.997 -0.0715  0.1613  0.1647
 1187loPI    C318979  -0.077   5.419   4.925 -0.0541 -0.0927  0.0076
 1187loPI   PO418980   0.115   5.533   5.465  0.0430 -0.0738 -0.1755
 1187loPI   GL118981   0.161   5.507   5.923 -0.0569 -0.0132  0.1413
 1187loPI   GL218982   0.276   5.317   6.191  0.1053 -0.0612 -0.2763
 1187loPI   C1A18983   0.017   5.847   6.227 -0.0857 -0.1508  0.1134
 1187loPI   C2A18984  -0.147   5.852   6.585 -0.4832  0.3522  0.0590
 1187loPI   C3A18985  -0.141   5.841   6.941  0.1568  0.1137 -0.2040
 1187loPI   C4A18986  -0.127   5.952   7.347 -0.1114  0.0233  0.3697
 1187loPI   C5A18987  -0.175   5.968   7.739 -0.2721  0.2044 -0.2097
 1187loPI   C6A18988  -0.066   6.260   8.082  0.0065 -0.0628  0.0802
 1187loPI   C1B18989   0.167   5.444   6.602  0.2533 -0.1442  0.2819
 1187loPI   C2B18990   0.131   5.478   7.099 -0.2032  0.0837  0.2601
 1187loPI   C3B18991   0.136   5.539   7.476 -0.0077 -0.2643 -0.0964
 1187loPI   C4B18992   0.191   5.576   7.902 -0.1587  0.0232 -0.0500
 1188loPI    C118993   2.700  16.010   5.699  0.1412  0.1117  0.0428
 1188loPI    C218994   2.464  16.155   5.411  0.0503  0.2691  0.1948
 1188loPI    C318995   2.599  15.779   5.389 -0.0805  0.2311  0.0247
 1188loPI   PO418996   2.645  16.090   5.945  0.3093 -0.1615 -0.1736
 1188loPI   GL118997   2.529  15.837   6.256  0.2222 -0.1981 -0.0316
 1188loPI   GL218998   2.266  15.924   6.282  0.3395  0.1439 -0.0774
 1188loPI   C1A18999   2.714  15.846   6.692  0.4157  0.1850  0.0752
 1188loPI   C2A19000   2.737  15.993   7.092  0.0883  0.2335  0.2681
 1188loPI   C3A19001   2.766  15.971   7.501 -0.1860 -0.3100  0.1983
 1188loPI   C4A19002   2.718  16.007   7.906 -0.1220  0.1330 -0.3721
 1188loPI   C5A19003   2.635  15.825   8.288  0.0143 -0.0752  0.1812
 1188loPI   C6A19004   2.429  15.395   8.495  0.1008  0.1632  0.0589
 1188loPI   C1B19005   2.221  15.932   6.680  0.0292  0.0567 -0.0851
 1188loPI   C2B19006   2.266  15.857   7.148  0.0689  0.1566 -0.3123
 1188loPI   C3B19007   2.222  15.902   7.557  0.1895 -0.2011  0.0737
 1188loPI   C4B19008   2.253  15.964   7.923  0.1999 -0.2937 -0.0233
 1189loPI    C119009   2.473   2.493   5.445 -0.2061  0.2745  0.1097
 1189loPI    C219010   2.528   2.824   5.227  0.0077  0.2160  0.0724
 1189loPI    C319011   2.574   2.464   5.059 -0.0604  0.1685  0.1547
 1189loPI   PO419012   2.485   2.562   5.659 -0.3005 -0.1504  0.0986
 1189loPI   GL119013   2.790   2.817   5.984  0.1204  0.1100 -0.4910
 1189loPI   GL219014   2.911   2.555   6.294 -0.1643 -0.5028 -0.0556
 1189loPI   C1A19015   2.550   2.994   6.359  0.2973 -0.1017  0.3885
 1189loPI   C2A19016   2.639   2.972   6.843 -0.1466  0.2918  0.0744
 1189loPI   C3A19017   2.569   3.015   7.247  0.2039 -0.2056  0.1247
 1189loPI   C4A19018   2.572   2.861   7.653 -0.1197 -0.0471 -0.0160
 1189loPI   C5A19019   2.462   2.767   8.059  0.0374  0.1559  0.0619
 1189loPI   C6A19020   2.373   2.667   8.587 -0.0736 -0.2812 -0.1422
 1189loPI   C1B19021   2.885   2.534   6.730 -0.1539  0.0462 -0.1671
 1189loPI   C2B19022   2.891   2.619   7.135  0.1217  0.2070  0.0396
 1189loPI   C3B19023   2.911   2.501   7.606  0.1485  0.1122 -0.2166
 1189loPI   C4B19024   2.824   2.438   7.985 -0.0577 -0.0037 -0.0225
 1190loPI    C119025  12.354  14.355   6.027  0.1340  0.0524 -0.0979
 1190loPI    C219026  12.088  14.332   5.730 -0.0802 -0.1740  0.1061
 1190loPI    C319027  11.968  14.430   6.098  0.1738  0.0453  0.1337
 1190loPI   PO419028  12.553  14.116   6.066 -0.1178  0.1141 -0.2361
 1190loPI   GL119029  12.528  13.820   6.423 -0.2060  0.0417 -0.0827
 1190loPI   GL219030  12.829  13.934   6.587  0.1501  0.0439 -0.0295
 1190loPI   C1A19031  12.285  13.716   6.707  0.2647 -0.1721  0.0297
 1190loPI   C2A19032  12.237  13.678   7.087  0.0664  0.1195 -0.0804
 1190loPI   C3A19033  12.160  13.725   7.523 -0.1829  0.0124 -0.0368
 1190loPI   C4A19034  12.202  13.700   7.981 -0.1479 -0.1020 -0.0966
 1190loPI   C5A19035  12.369  13.690   8.449 -0.0060  0.1945 -0.1115
 1190loPI   C6A19036  12.525  14.124   8.603  0.0311 -0.1019  0.0313
 1190loPI   C1B19037  12.704  13.715   6.926 -0.2633  0.4343 -0.2367
 1190loPI   C2B19038  12.700  13.700   7.346  0.2057 -0.0295  0.2541
 1190loPI   C3B19039  12.742  13.724   7.729  0.0375  0.0250 -0.4075
 1190loPI   C4B19040  12.695  13.686   8.097  0.0506  0.1627  0.0906
 1191loPI    C119041  14.488  13.584   5.785 -0.0100 -0.1285  0.1209
 1191loPI    C219042  14.647  13.324   5.526 -0.1696 -0.1056 -0.0018
 1191loPI    C319043  14.294  13.494   5.447 -0.0881  0.1149  0.0993
 1191loPI   PO419044  14.465  13.468   6.049 -0.0831  0.0122 -0.3709
 1191loPI   GL119045  14.799  13.619   6.384 -0.4103 -0.1102 -0.0510
 1191loPI   GL219046  15.127  13.515   6.561  0.2285  0.0896  0.1992
 1191loPI   C1A19047  14.544  13.546   6.773 -0.1697 -0.2638 -0.0175
 1191loPI   C2A19048  14.560  13.541   7.214 -0.2102  0.0748 -0.2858
 1191loPI   C3A19049  14.632  13.516   7.624 -0.0617 -0.2361 -0.2262
 1191loPI   C4A19050  14.546  13.474   8.085 -0.0462  0.1096  0.5093
 1191loPI   C5A19051  14.443  13.655   8.478  0.1355  0.3232 -0.0320
 1191loPI   C6A19052  14.421  13.735   8.982 -0.2733  0.0975  0.0556
 1191loPI   C1B19053  15.108  13.594   6.923 -0.4152 -0.0789  0.0749
 1191loPI   C2B19054  15.120  13.520   7.347  0.0418 -0.1879  0.2696
 1191loPI   C3B19055  15.091  13.497   7.819  0.2908  0.1356 -0.2306
 1191loPI   C4B19056  14.981  13.647   8.147  0.1811  0.2267 -0.1919
 1192loPI    C119057   0.449   3.764   5.506  0.0466 -0.0192  0.0267
 1192loPI    C219058   0.423   3.415   5.313  0.0676  0.0972 -0.1896
 1192loPI    C319059   0.497   3.751   5.109  0.1805  0.2097  0.0333
 1192loPI   PO419060   0.251   3.656   5.776 -0.4952  0.0030  0.1685
 1192loPI   GL119061   0.231   3.474   6.120  0.0838  0.1205  0.1592
 1192loPI   GL219062   0.331   3.172   6.302  0.1609  0.1680 -0.2645
 1192loPI   C1A19063  -0.028   3.642   6.453 -0.0843  0.0840  0.1786
 1192loPI   C2A19064  -0.144   3.636   6.928  0.0174  0.4599  0.0911
 1192loPI   C3A19065  -0.114   3.627   7.346  0.0847  0.0812 -0.2799
 1192loPI   C4A19066  -0.095   3.657   7.781  0.0129  0.2403  0.2966
 1192loPI   C5A19067   0.005   3.698   8.184  0.0135  0.1447 -0.1124
 1192loPI   C6A19068   0.031   3.591   8.659  0.3360 -0.0604  0.0234
 1192loPI   C1B19069   0.191   3.233   6.708 -0.2092 -0.2588  0.0247
 1192loPI   C2B19070   0.197   3.219   7.177 -0.0989 -0.1351 -0.0738
 1192loPI   C3B19071   0.180   3.202   7.631 -0.2343 -0.1309  0.0716
 1192loPI   C4B19072   0.235   3.305   8.050  0.1869  0.0281 -0.3131
 1193loPI    C119073  17.050   3.530   5.649 -0.1161  0.0396  0.1499
 1193loPI    C219074  17.303   3.320   5.421 -0.0786 -0.1058  0.3228
 1193loPI    C319075  16.945   3.428   5.277  0.1424  0.2456  0.0168
 1193loPI   PO419076  17.084   3.391   5.856 -0.1133  0.0117  0.0263
 1193loPI   GL119077  16.700   3.371   6.115  0.0173  0.2122 -0.0349
 1193loPI   GL219078  16.924   3.139   6.205 -0.3505 -0.1985  0.1024
 1193loPI   C1A19079  16.611   3.559   6.539 -0.0012 -0.2191 -0.1332
 1193loPI   C2A19080  16.646   3.463   6.985  0.0506  0.1050 -0.1446
 1193loPI   C3A19081  16.615   3.604   7.369  0.0777 -0.1184 -0.0711
 1193loPI   C4A19082  16.585   3.554   7.820  0.0694  0.2340 -0.1941
 1193loPI   C5A19083  16.595   3.682   8.277  0.0082 -0.0621 -0.1644
 1193loPI   C6A19084  16.555   3.572   8.725 -0.0021  0.1496 -0.0084
 1193loPI   C1B19085  16.929   3.156   6.600 -0.1052 -0.3187 -0.0731
 1193loPI   C2B19086  16.961   3.051   6.993  0.2291  0.3554 -0.1916
 1193loPI   C3B19087  16.894   3.205   7.424 -0.1323 -0.2526  0.2534
 1193loPI   C4B19088  16.889   3.200   7.909 -0.3545 -0.0528  0.4147
 1194loPI    C119089   2.871  11.878   5.495  0.1547  0.2043 -0.0713
 1194loPI    C219090   2.563  12.083   5.342  0.0629 -0.0384 -0.2164
 1194loPI    C319091   2.702  11.759   5.152  0.3325  0.0012 -0.0905
 1194loPI   PO419092   2.867  11.943   5.759 -0.2115 -0.1758  0.0265
 1194loPI   GL119093   2.844  12.112   6.169 -0.1383  0.2095 -0.1053
 1194loPI   GL219094   2.611  12.107   6.293  0.0981  0.1702 -0.1577
 1194loPI   C1A19095   3.049  12.091   6.559 -0.0812 -0.1076  0.0316
 1194loPI   C2A19096   3.022  12.124   7.008  0.4759  0.1521  0.1145
 1194loPI   C3A19097   2.935  12.015   7.433 -0.3886 -0.2373  0.2547
 1194loPI   C4A19098   2.897  11.984   7.871 -0.2208 -0.1809  0.1196
 1194loPI   C5A19099   3.028  12.293   8.217  0.0235 -0.0978  0.2018
 1194loPI   C6A19100   2.906  12.550   8.509 -0.0941 -0.2018  0.0417
 1194loPI   C1B19101   2.498  12.012   6.708  0.2163 -0.0065  0.1005
 1194loPI   C2B19102   2.389  11.940   7.206 -0.1088  0.3005  0.0696
 1194loPI   C3B19103   2.364  12.011   7.667  0.1424 -0.2081 -0.1291
 1194loPI   C4B19104   2.443  11.817   8.086  0.3220 -0.1328  0.0720
 1195loPI    C119105  10.271  16.093   5.510 -0.0685  0.0999 -0.1490
 1195loPI    C219106  10.217  15.697   5.487 -0.1578  0.1075 -0.0750
 1195loPI    C319107  10.585  15.851   5.455 -0.1321  0.0250 -0.1841
 1195loPI   PO419108  10.181  16.127   5.752 -0.2606 -0.0004  0.1484
 1195loPI   GL119109   9.957  16.046   6.225  0.0284  0.0474  0.1139
 1195loPI   GL219110  10.164  15.773   6.420 -0.2155  0.1862  0.2300
 1195loPI   C1A19111   9.958  16.196   6.579 -0.2877  0.1109  0.4179
 1195loPI   C2A19112   9.894  16.163   7.022 -0.1518 -0.1051  0.0377
 1195loPI   C3A19113   9.848  16.075   7.455 -0.1603 -0.0816  0.1405
 1195loPI   C4A19114   9.836  16.083   7.910  0.1385 -0.0445  0.1945
 1195loPI   C5A19115   9.847  16.074   8.230  0.1601  0.1917  0.1147
 1195loPI   C6A19116  10.028  15.973   8.567 -0.2830 -0.1398  0.5371
 1195loPI   C1B19117  10.189  15.764   6.814  0.1617  0.0836 -0.3859
 1195loPI   C2B19118  10.230  15.698   7.320 -0.1426  0.2202  0.0092
 1195loPI   C3B19119  10.138  15.755   7.695  0.0568 -0.1416 -0.3012
 1195loPI   C4B19120  10.154  15.635   8.197 -0.0032  0.0940  0.1206
 1196loPI    C119121  11.898   0.227   5.864  0.2141 -0.1331  0.0571
 1196loPI    C219122  11.888   0.396   5.501  0.1733 -0.0062  0.1167
 1196loPI    C319123  11.548   0.329   5.701  0.1910 -0.1370  0.1044
 1196loPI   PO419124  12.092   0.091   5.871  0.1187  0.1921  0.0211
 1196loPI   GL119125  12.157  -0.072   6.208  0.1128 -0.0722 -0.1311
 1196loPI   GL219126  12.156   0.154   6.397  0.2818 -0.3050  0.1875
 1196loPI   C1A19127  11.871  -0.296   6.520  0.1898  0.1071  0.0973
 1196loPI   C2A19128  11.800  -0.422   6.913 -0.1844  0.0947  0.2039
 1196loPI   C3A19129  11.788  -0.368   7.408  0.0155  0.0783 -0.0370
 1196loPI   C4A19130  11.725  -0.573   7.909 -0.3840  0.2359  0.1697
 1196loPI   C5A19131  11.771  -0.672   8.325 -0.2692 -0.0050  0.2313
 1196loPI   C6A19132  11.622  -0.606   8.734 -0.1116  0.1575 -0.4022
 1196loPI   C1B19133  12.131   0.088   6.822  0.1461 -0.0042 -0.0645
 1196loPI   C2B19134  12.070   0.048   7.206  0.1797  0.0071  0.0872
 1196loPI   C3B19135  11.875   0.077   7.597  0.1024 -0.0751 -0.0411
 1196loPI   C4B19136  11.773   0.069   7.979 -0.2378  0.0588 -0.2384
 1197loPI    C119137   3.941   4.422   5.292 -0.0955 -0.1307 -0.2050
 1197loPI    C219138   3.942   4.822   5.275 -0.3093 -0.1199 -0.0135
 1197loPI    C319139   3.979   4.608   4.939 -0.0445  0.0583 -0.1014
 1197loPI   PO419140   4.017   4.370   5.499  0.1775 -0.1380  0.0189
 1197loPI   GL119141   3.899   4.381   5.919  0.1058 -0.0554 -0.1380
 1197loPI   GL219142   3.603   4.383   6.135 -0.2395 -0.0262  0.1239
 1197loPI   C1A19143   4.191   4.559   6.307  0.1200  0.2513 -0.0650
 1197loPI   C2A19144   4.208   4.529   6.723  0.0141  0.0223 -0.0010
 1197loPI   C3A19145   4.145   4.438   7.145 -0.0528 -0.2060 -0.0218
 1197loPI   C4A19146   4.132   4.499   7.561  0.0614 -0.1821  0.1056
 1197loPI   C5A19147   4.267   4.351   7.936 -0.0355 -0.0878 -0.3505
 1197loPI   C6A19148   4.275   4.316   8.389 -0.0520 -0.2478 -0.4630
 1197loPI   C1B19149   3.699   4.395   6.556  0.2575  0.0674  0.0009
 1197loPI   C2B19150   3.649   4.407   7.011  0.2839  0.0481  0.1593
 1197loPI   C3B19151   3.668   4.313   7.425  0.0656  0.2333 -0.1140
 1197loPI   C4B19152   3.714   4.334   7.838 -0.0653  0.1224  0.0525
 1198loPI    C119153   9.936  14.875   5.422 -0.1363 -0.1004  0.2495
 1198loPI    C219154   9.756  15.145   5.188 -0.1613 -0.0504  0.3263
 1198loPI    C319155  10.074  14.943   5.052 -0.2960 -0.1645  0.1773
 1198loPI   PO419156   9.719  14.885   5.608  0.0141 -0.1696  0.1406
 1198loPI   GL119157   9.838  14.744   6.100  0.1174 -0.0505  0.1585
 1198loPI   GL219158  10.148  14.467   6.086 -0.2730 -0.0997  0.0926
 1198loPI   C1A19159   9.842  14.859   6.503  0.0003 -0.3050 -0.1786
 1198loPI   C2A19160   9.796  14.809   6.906 -0.2306  0.0706  0.1638
 1198loPI   C3A19161   9.812  14.809   7.314  0.1541 -0.2543  0.0925
 1198loPI   C4A19162   9.764  14.831   7.753 -0.0057  0.1566 -0.0739
 1198loPI   C5A19163   9.708  14.692   8.183 -0.1561  0.1958  0.1202
 1198loPI   C6A19164   9.744  14.497   8.645  0.1963 -0.1661 -0.1011
 1198loPI   C1B19165  10.099  14.437   6.532 -0.0604 -0.2182 -0.3069
 1198loPI   C2B19166  10.156  14.400   6.948 -0.2538  0.1001 -0.1965
 1198loPI   C3B19167  10.077  14.445   7.358 -0.3226  0.5571  0.0351
 1198loPI   C4B19168  10.162  14.369   7.807 -0.0796  0.0119 -0.0349
 1199loPI    C119169   7.582   8.374   5.342 -0.1304 -0.0921  0.0194
 1199loPI    C219170   7.549   8.031   5.140  0.2537 -0.0663 -0.0954
 1199loPI    C319171   7.295   8.330   5.067 -0.0928 -0.3265  0.0157
 1199loPI   PO419172   7.703   8.333   5.585 -0.0321 -0.3486  0.2093
 1199loPI   GL119173   7.762   8.114   5.931  0.2141  0.2342 -0.0376
 1199loPI   GL219174   8.054   8.045   5.941  0.0036 -0.1148 -0.1894
 1199loPI   C1A19175   7.627   8.038   6.450 -0.3297 -0.0674  0.0478
 1199loPI   C2A19176   7.652   8.077   6.988 -0.1399  0.1258 -0.0690
 1199loPI   C3A19177   7.572   8.086   7.393 -0.0950  0.1346  0.2610
 1199loPI   C4A19178   7.600   8.140   7.901  0.1545 -0.2873  0.2234
 1199loPI   C5A19179   7.572   7.939   8.233  0.1231  0.0447 -0.1454
 1199loPI   C6A19180   7.469   7.971   8.570  0.0922 -0.0908  0.0720
 1199loPI   C1B19181   8.180   8.082   6.364 -0.3146  0.0926  0.0934
 1199loPI   C2B19182   8.163   8.146   6.816  0.1878 -0.1857 -0.0069
 1199loPI   C3B19183   8.072   8.167   7.244  0.1114  0.2733 -0.0980
 1199loPI   C4B19184   8.051   8.179   7.707 -0.0160  0.2056 -0.0144
 1200loPI    C119185   4.647  13.754   5.313  0.0156 -0.0898  0.1996
 1200loPI    C219186   4.796  14.053   5.094 -0.0390 -0.0826  0.1720
 1200loPI    C319187   4.620  13.743   4.914 -0.3077  0.0420  0.2151
 1200loPI   PO419188   4.648  13.876   5.552 -0.0316 -0.1450 -0.0167
 1200loPI   GL119189   4.926  13.818   5.874  0.1218 -0.2849 -0.1227
 1200loPI   GL219190   4.618  13.790   6.099 -0.2662 -0.0610 -0.1582
 1200loPI   C1A19191   5.126  13.747   6.304  0.1125 -0.1016 -0.0002
 1200loPI   C2A19192   5.141  13.721   6.657  0.3069 -0.0302  0.2951
 1200loPI   C3A19193   5.073  13.709   7.087  0.1604 -0.0176 -0.1451
 1200loPI   C4A19194   5.051  13.720   7.499 -0.0318  0.2544 -0.1617
 1200loPI   C5A19195   5.089  13.620   7.906  0.1827  0.0904  0.2906
 1200loPI   C6A19196   5.278  13.215   8.110 -0.0424  0.0396  0.0594
 1200loPI   C1B19197   4.618  13.621   6.551  0.0905 -0.0737  0.4113
 1200loPI   C2B19198   4.592  13.599   7.094  0.0478 -0.1072  0.0400
 1200loPI   C3B19199   4.627  13.550   7.480  0.2409 -0.3729  0.1404
 1200loPI   C4B19200   4.583  13.504   7.815 -0.1716  0.1008 -0.0092
 1201loPI    C119201   9.377   9.947   5.495 -0.1204  0.1064 -0.1119
 1201loPI    C219202   9.115   9.747   5.268  0.0191 -0.1505 -0.0504
 1201loPI    C319203   9.315  10.058   5.116 -0.2129 -0.0434 -0.1415
 1201loPI   PO419204   9.273   9.946   5.741  0.0948 -0.0937 -0.2114
 1201loPI   GL119205   9.041  10.291   6.013  0.1846 -0.0981 -0.1972
 1201loPI   GL219206   9.058  10.628   6.150  0.1947  0.0246 -0.0347
 1201loPI   C1A19207   8.839  10.198   6.463 -0.3018 -0.2911 -0.1554
 1201loPI   C2A19208   8.838  10.032   6.800  0.0606 -0.0996 -0.0433
 1201loPI   C3A19209   8.805  10.126   7.239 -0.3139 -0.2351 -0.1785
 1201loPI   C4A19210   8.844  10.100   7.609 -0.0668 -0.0932  0.0060
 1201loPI   C5A19211   8.905  10.074   7.955  0.2401 -0.0894  0.3986
 1201loPI   C6A19212   9.015   9.922   8.351  0.1965 -0.0047 -0.3904
 1201loPI   C1B19213   9.018  10.643   6.555 -0.3271  0.2354 -0.0385
 1201loPI   C2B19214   9.041  10.611   6.956  0.1591  0.3307 -0.0183
 1201loPI   C3B19215   9.018  10.591   7.463  0.2660  0.2707 -0.0790
 1201loPI   C4B19216   8.950  10.546   7.896 -0.2317 -0.1971 -0.2241
 1202loPI    C119217   9.614   1.133   5.759 -0.0362  0.0047 -0.1429
 1202loPI    C219218   9.279   1.117   5.977  0.0698 -0.2682  0.0059
 1202loPI    C319219   9.263   1.063   5.581 -0.0856 -0.0776 -0.0151
 1202loPI   PO419220   9.834   1.078   5.998 -0.4745  0.1399 -0.1622
 1202loPI   GL119221   9.659   1.067   6.316  0.1285 -0.1017 -0.0485
 1202loPI   GL219222   9.548   0.767   6.468  0.0985 -0.0242 -0.0451
 1202loPI   C1A19223   9.336   1.382   6.559  0.0817  0.0853  0.0186
 1202loPI   C2A19224   9.208   1.530   6.895  0.0447  0.1385  0.1408
 1202loPI   C3A19225   9.201   1.531   7.331 -0.1550 -0.1395  0.0043
 1202loPI   C4A19226   9.268   1.472   7.734 -0.0968 -0.0241 -0.2894
 1202loPI   C5A19227   9.377   1.343   8.125  0.0659 -0.1120 -0.1462
 1202loPI   C6A19228   9.556   1.477   8.641 -0.3018  0.0753  0.1033
 1202loPI   C1B19229   9.357   0.627   6.817  0.0788 -0.1660 -0.0319
 1202loPI   C2B19230   9.286   0.637   7.299  0.3238  0.0403  0.2742
 1202loPI   C3B19231   9.250   0.497   7.649  0.0658  0.2151  0.1610
 1202loPI   C4B19232   9.446   0.557   7.979  0.3207 -0.0780  0.2290
 1203loPI    C119233  14.986  12.612   5.745 -0.1702  0.1890  0.2063
 1203loPI    C219234  14.638  12.560   5.555 -0.0736 -0.1678  0.1195
 1203loPI    C319235  14.882  12.859   5.448 -0.1619 -0.1748 -0.1060
 1203loPI   PO419236  14.925  12.642   6.025  0.1066 -0.2042 -0.2866
 1203loPI   GL119237  15.159  12.695   6.428  0.0380 -0.1191 -0.1854
 1203loPI   GL219238  15.293  13.014   6.327 -0.0474 -0.2111  0.2249
 1203loPI   C1A19239  15.145  12.621   6.855  0.0302  0.1344 -0.0731
 1203loPI   C2A19240  15.205  12.700   7.278 -0.1021  0.2521  0.1396
 1203loPI   C3A19241  15.194  12.609   7.707  0.3159 -0.0110  0.2907
 1203loPI   C4A19242  15.227  12.330   8.023 -0.0731 -0.0073  0.3836
 1203loPI   C5A19243  15.573  12.199   8.320  0.0298 -0.1109  0.2270
 1203loPI   C6A19244  15.472  12.082   8.738  0.1986 -0.3987 -0.2616
 1203loPI   C1B19245  15.397  13.178   6.774 -0.1124 -0.1530 -0.2892
 1203loPI   C2B19246  15.453  13.150   7.213 -0.3138  0.1431  0.2290
 1203loPI   C3B19247  15.374  13.090   7.673  0.0089 -0.0412  0.6381
 1203loPI   C4B19248  15.412  13.103   8.156 -0.1926 -0.0003  0.0402
 1204loPI    C119249   8.512   9.979   5.068  0.0892 -0.1186  0.0269
 1204loPI    C219250   8.121   9.962   4.989  0.0674  0.1471  0.0681
 1204loPI    C319251   8.382   9.783   4.744 -0.0669  0.1260 -0.0613
 1204loPI   PO419252   8.485  10.176   5.286 -0.2417 -0.1240 -0.0158
 1204loPI   GL119253   8.381  10.206   5.703  0.2399  0.0384 -0.1029
 1204loPI   GL219254   8.583  10.386   5.846 -0.2736  0.0435 -0.0001
 1204loPI   C1A19255   8.061   9.983   6.048 -0.2098 -0.1166 -0.2344
 1204loPI   C2A19256   7.850   9.848   6.520 -0.2071 -0.4526  0.0953
 1204loPI   C3A19257   7.900   9.935   6.986 -0.2821 -0.0256  0.0881
 1204loPI   C4A19258   7.891   9.942   7.449 -0.2446 -0.0667 -0.2130
 1204loPI   C5A19259   7.910  10.007   7.930  0.0538 -0.2060  0.0775
 1204loPI   C6A19260   7.738  10.062   8.348 -0.1608 -0.1462 -0.1947
 1204loPI   C1B19261   8.573  10.581   6.237 -0.1900 -0.1587 -0.0961
 1204loPI   C2B19262   8.539  10.595   6.635 -0.1177 -0.1861 -0.0255
 1204loPI   C3B19263   8.482  10.532   6.985  0.0831 -0.1230 -0.0654
 1204loPI   C4B19264   8.513  10.556   7.414  0.0008 -0.1451 -0.0961
 1205loPI    C119265  11.685   0.860   5.671 -0.1132 -0.1659 -0.1722
 1205loPI    C219266  11.876   0.967   5.336  0.0347  0.1376  0.0054
 1205loPI    C319267  11.503   1.095   5.403  0.0363  0.1469 -0.0039
 1205loPI   PO419268  11.842   0.764   5.849  0.1179  0.0829  0.0183
 1205loPI   GL119269  11.735   0.580   6.215 -0.3894  0.0558  0.3971
 1205loPI   GL219270  11.484   0.660   6.112 -0.0215 -0.1537  0.0686
 1205loPI   C1A19271  11.826   0.495   6.575 -0.1038 -0.1869 -0.0571
 1205loPI   C2A19272  11.791   0.479   7.003  0.0844  0.2420 -0.1151
 1205loPI   C3A19273  11.612   0.422   7.334 -0.2277 -0.0680 -0.0592
 1205loPI   C4A19274  11.619   0.438   7.749  0.1033 -0.2165  0.1684
 1205loPI   C5A19275  11.449   0.598   8.168 -0.4357 -0.1019  0.1845
 1205loPI   C6A19276  11.299   0.807   8.429 -0.0679 -0.2207  0.3368
 1205loPI   C1B19277  11.325   0.555   6.581  0.2081 -0.0374 -0.0729
 1205loPI   C2B19278  11.212   0.459   7.044  0.1059  0.0213  0.3229
 1205loPI   C3B19279  11.085   0.402   7.478  0.1821  0.0906  0.1687
 1205loPI   C4B19280  10.991   0.412   7.862  0.0783  0.0682 -0.4182
 1206loPI    C119281  15.277   5.776   5.322 -0.1581  0.2364 -0.1007
 1206loPI    C219282  15.053   5.700   4.999 -0.0317 -0.0608 -0.1215
 1206loPI    C319283  15.412   5.528   5.039  0.0099  0.0766  0.1161
 1206loPI   PO419284  15.162   5.725   5.546 -0.2137  0.1017  0.1939
 1206loPI   GL119285  15.322   5.807   5.905  0.0638 -0.1717  0.0388
 1206loPI   GL219286  15.105   5.609   6.073  0.2540 -0.2332 -0.0182
 1206loPI   C1A19287  15.261   5.935   6.418  0.0532  0.1223  0.0131
 1206loPI   C2A19288  15.280   6.067   6.799 -0.0015  0.0841 -0.0833
 1206loPI   C3A19289  15.268   6.065   7.319 -0.2159 -0.2140 -0.2625
 1206loPI   C4A19290  15.251   6.123   7.751  0.2985  0.1313  0.3705
 1206loPI   C5A19291  15.154   5.939   8.093  0.0152 -0.3804  0.2086
 1206loPI   C6A19292  15.046   5.599   8.292 -0.1124  0.0510  0.3189
 1206loPI   C1B19293  15.087   5.454   6.435  0.3476  0.1201 -0.3681
 1206loPI   C2B19294  15.139   5.561   6.861  0.2104 -0.1155  0.1079
 1206loPI   C3B19295  15.095   5.578   7.333  0.2728  0.0844  0.2229
 1206loPI   C4B19296  15.084   5.567   7.796 -0.0282  0.1427 -0.2087
 1207loPI    C119297  11.936   8.954   5.233  0.0454  0.0730 -0.0425
 1207loPI    C219298  11.566   9.063   5.336  0.0869 -0.0116  0.2039
 1207loPI    C319299  11.622   8.804   5.037 -0.0345  0.2553 -0.0563
 1207loPI   PO419300  12.013   9.007   5.579 -0.1076  0.1800  0.1416
 1207loPI   GL119301  12.018   8.925   6.058 -0.1045 -0.1764 -0.0966
 1207loPI   GL219302  11.836   9.159   6.319 -0.0644 -0.2600  0.0005
 1207loPI   C1A19303  12.109   8.658   6.502  0.0790  0.0530 -0.2405
 1207loPI   C2A19304  12.078   8.757   6.858  0.0148  0.0704 -0.3471
 1207loPI   C3A19305  12.093   8.728   7.294  0.0284  0.1911 -0.0715
 1207loPI   C4A19306  12.104   8.789   7.740 -0.0384 -0.1176 -0.0184
 1207loPI   C5A19307  12.033   8.759   8.145 -0.1960 -0.1124  0.0802
 1207loPI   C6A19308  12.307   8.842   8.456  0.0790 -0.1265 -0.0717
 1207loPI   C1B19309  11.813   9.165   6.696  0.1649 -0.1999  0.2767
 1207loPI   C2B19310  11.768   9.183   7.076 -0.0905 -0.0892  0.0287
 1207loPI   C3B19311  11.789   9.117   7.499 -0.0570  0.1587 -0.0407
 1207loPI   C4B19312  11.765   9.188   7.896  0.3476 -0.1374  0.0616
 1208loPI    C119313  15.450  15.860   5.782 -0.0067 -0.0574  0.0397
 1208loPI    C219314  15.423  15.647   5.444 -0.0536  0.0607 -0.0314
 1208loPI    C319315  15.108  15.674   5.689 -0.0852  0.1443 -0.0809
 1208loPI   PO419316  15.730  15.876   5.790  0.3407 -0.1480 -0.1592
 1208loPI   GL119317  15.862  16.118   6.132  0.1653  0.3249 -0.0773
 1208loPI   GL219318  15.527  16.112   6.213 -0.2295  0.2725 -0.0351
 1208loPI   C1A19319  16.107  16.107   6.467 -0.1101 -0.1583  0.0464
 1208loPI   C2A19320  16.101  15.843   6.824 -0.2289  0.0501  0.1221
 1208loPI   C3A19321  16.195  15.999   7.221  0.5210  0.2181 -0.2184
 1208loPI   C4A19322  16.016  15.930   7.656  0.1839  0.0199 -0.3557
 1208loPI   C5A19323  16.092  16.061   8.047 -0.0531  0.1258 -0.0091
 1208loPI   C6A19324  16.160  16.161   8.482 -0.0527  0.1649  0.1573
 1208loPI   C1B19325  15.643  15.974   6.652  0.2431  0.0215 -0.0873
 1208loPI   C2B19326  15.632  15.827   7.140  0.0851  0.1826 -0.1608
 1208loPI   C3B19327  15.510  15.812   7.506  0.0322  0.0259  0.2811
 1208loPI   C4B19328  15.599  15.940   7.914  0.2203  0.3491 -0.0186
 1209loPI    C119329  10.862  11.475   5.408 -0.0447 -0.1626 -0.1438
 1209loPI    C219330  10.720  11.810   5.240 -0.0237 -0.0882 -0.0144
 1209loPI    C319331  11.105  11.711   5.195  0.0449  0.0698  0.2081
 1209loPI   PO419332  10.813  11.502   5.661 -0.0217 -0.0773 -0.1297
 1209loPI   GL119333  10.832  11.514   5.989 -0.1066  0.0290 -0.0898
 1209loPI   GL219334  10.732  11.173   6.108  0.0355 -0.2576 -0.3327
 1209loPI   C1A19335  10.955  11.791   6.402  0.3802 -0.1097 -0.0360
 1209loPI   C2A19336  11.019  11.822   6.736 -0.0555  0.1250  0.0606
 1209loPI   C3A19337  10.970  11.695   7.167 -0.2470  0.4500  0.3025
 1209loPI   C4A19338  10.900  11.767   7.609 -0.1557  0.0688  0.2880
 1209loPI   C5A19339  10.947  11.677   8.040 -0.1753  0.0582  0.0554
 1209loPI   C6A19340  10.961  11.415   8.473 -0.1696 -0.0464  0.2369
 1209loPI   C1B19341  10.812  11.318   6.471 -0.0533  0.2761  0.0064
 1209loPI   C2B19342  10.759  11.333   6.869 -0.0163 -0.0382 -0.2705
 1209loPI   C3B19343  10.698  11.318   7.388 -0.5726 -0.0441  0.1398
 1209loPI   C4B19344  10.690  11.311   7.807  0.0322 -0.5399 -0.0511
 1210loPI    C119345   6.784   9.749   5.147  0.0605  0.0927  0.0397
 1210loPI    C219346   6.527   9.528   4.936  0.0010  0.1405  0.0619
 1210loPI    C319347   6.750   9.805   4.753 -0.1544  0.2811  0.0831
 1210loPI   PO419348   6.711   9.588   5.350 -0.0704 -0.1605  0.0990
 1210loPI   GL119349   6.775   9.622   5.851 -0.0307 -0.0066  0.0287
 1210loPI   GL219350   6.775   9.247   5.991 -0.1319 -0.0331  0.0585
 1210loPI   C1A19351   6.874   9.710   6.307 -0.0086  0.0095  0.0664
 1210loPI   C2A19352   6.898   9.774   6.741 -0.3787  0.1405 -0.0358
 1210loPI   C3A19353   6.915   9.736   7.142 -0.1990 -0.1294  0.0310
 1210loPI   C4A19354   6.912   9.823   7.604 -0.0172  0.0925  0.0534
 1210loPI   C5A19355   6.799   9.723   7.972 -0.0391  0.0501 -0.2440
 1210loPI   C6A19356   6.475   9.493   8.114  0.0206  0.2108  0.0990
 1210loPI   C1B19357   6.687   9.287   6.429 -0.2333 -0.5440 -0.4194
 1210loPI   C2B19358   6.679   9.310   6.893 -0.2257  0.1984 -0.1609
 1210loPI   C3B19359   6.708   9.240   7.284 -0.1455 -0.1447 -0.1596
 1210loPI   C4B19360   6.730   9.252   7.775 -0.2424 -0.1934  0.0091
 1211loPI    C119361   3.319  14.746   5.571 -0.2629  0.1183  0.0272
 1211loPI    C219362   3.526  14.929   5.283  0.0468 -0.0560  0.1342
 1211loPI    C319363   3.468  14.534   5.267  0.1467 -0.0811  0.3566
 1211loPI   PO419364   3.444  14.812   5.889  0.4446 -0.2607 -0.0623
 1211loPI   GL119365   3.760  14.764   6.134  0.0955  0.1289  0.0343
 1211loPI   GL219366   4.151  14.903   6.183  0.2211  0.1819  0.2008
 1211loPI   C1A19367   3.673  14.767   6.554 -0.0437 -0.2128 -0.0556
 1211loPI   C2A19368   3.738  14.819   6.996  0.1185  0.0506  0.1634
 1211loPI   C3A19369   3.694  14.746   7.446  0.1072  0.0013  0.1459
 1211loPI   C4A19370   3.558  14.836   7.837  0.3958 -0.3374 -0.0243
 1211loPI   C5A19371   3.615  14.781   8.190 -0.0134  0.0151  0.0516
 1211loPI   C6A19372   3.624  14.719   8.692  0.0287 -0.2356  0.1216
 1211loPI   C1B19373   4.228  14.825   6.612  0.1946 -0.3821 -0.1095
 1211loPI   C2B19374   4.206  14.890   7.030  0.2644  0.1411  0.1635
 1211loPI   C3B19375   4.252  14.931   7.446  0.0106 -0.1133  0.1561
 1211loPI   C4B19376   4.059  14.770   7.833 -0.2214  0.0686 -0.0484
 1212loPI    C119377   6.030   1.862   5.454 -0.1900 -0.0334 -0.1073
 1212loPI    C219378   5.822   2.193   5.368 -0.0216  0.0598 -0.1591
 1212loPI    C319379   5.814   1.881   5.118 -0.1437  0.0416 -0.1330
 1212loPI   PO419380   6.098   1.885   5.774 -0.0433 -0.1525  0.0964
 1212loPI   GL119381   5.820   2.065   6.067  0.1566 -0.2138 -0.0672
 1212loPI   GL219382   5.606   1.950   6.184  0.2798  0.0466  0.1657
 1212loPI   C1A19383   5.874   2.405   6.425  0.2412 -0.0025  0.0437
 1212loPI   C2A19384   5.758   2.423   6.828  0.0612  0.1053  0.2869
 1212loPI   C3A19385   5.775   2.467   7.242 -0.3132  0.2209 -0.0857
 1212loPI   C4A19386   5.821   2.396   7.620  0.0821  0.0847 -0.1248
 1212loPI   C5A19387   5.871   2.417   8.031  0.1551  0.2990 -0.0958
 1212loPI   C6A19388   6.126   2.146   8.152  0.1713  0.0509 -0.0502
 1212loPI   C1B19389   5.613   1.965   6.630 -0.0613 -0.0962 -0.0593
 1212loPI   C2B19390   5.579   1.992   7.050 -0.2708  0.0264 -0.0754
 1212loPI   C3B19391   5.619   1.981   7.501 -0.2076  0.1068 -0.3205
 1212loPI   C4B19392   5.699   1.857   7.908 -0.1205  0.2501  0.3320
 1213loPI    C119393  10.333  12.060   5.375  0.2779 -0.4041 -0.0594
 1213loPI    C219394  10.180  11.844   5.075  0.1437 -0.1104 -0.2070
 1213loPI    C319395  10.388  12.177   4.997  0.2288 -0.1075  0.0223
 1213loPI   PO419396  10.161  12.190   5.509  0.1752 -0.1094  0.1941
 1213loPI   GL119397  10.113  12.214   5.954  0.1132 -0.2285  0.3453
 1213loPI   GL219398  10.132  11.893   6.064  0.1937 -0.0512  0.0281
 1213loPI   C1A19399   9.886  12.402   6.286 -0.1341 -0.3228  0.0044
 1213loPI   C2A19400   9.820  12.554   6.737 -0.0981 -0.2457  0.0058
 1213loPI   C3A19401   9.794  12.383   7.178 -0.2419 -0.1286 -0.1116
 1213loPI   C4A19402   9.793  12.549   7.607 -0.0640  0.0363  0.0372
 1213loPI   C5A19403   9.827  12.471   7.927  0.2109  0.0897  0.1021
 1213loPI   C6A19404  10.258  12.419   8.141  0.1645 -0.0918 -0.0719
 1213loPI   C1B19405  10.179  12.074   6.476  0.2690 -0.1154  0.1728
 1213loPI   C2B19406  10.238  12.190   6.862 -0.1295  0.2773  0.0266
 1213loPI   C3B19407  10.155  12.093   7.256 -0.1645  0.1049  0.0456
 1213loPI   C4B19408  10.136  12.149   7.712 -0.0072  0.0913 -0.3158
 1214loPI    C119409   5.750   5.456   5.346 -0.1524  0.1133 -0.0279
 1214loPI    C219410   5.446   5.262   5.520 -0.0289 -0.2112 -0.1663
 1214loPI    C319411   5.470   5.280   5.121  0.0687 -0.0811 -0.1554
 1214loPI   PO419412   5.966   5.367   5.542  0.0766  0.0085 -0.2990
 1214loPI   GL119413   6.013   5.419   5.888 -0.5171 -0.5183  0.3530
 1214loPI   GL219414   6.079   5.639   6.092 -0.2106  0.0562  0.2778
 1214loPI   C1A19415   5.936   5.178   6.192  0.1857  0.3868 -0.2200
 1214loPI   C2A19416   5.971   5.175   6.649 -0.1156  0.2372 -0.0523
 1214loPI   C3A19417   5.867   5.114   7.067 -0.4846  0.0829  0.0509
 1214loPI   C4A19418   5.852   5.058   7.506  0.0336 -0.0865 -0.3189
 1214loPI   C5A19419   5.853   5.203   7.963 -0.0314 -0.0763  0.0673
 1214loPI   C6A19420   5.630   5.403   8.235 -0.1176 -0.0715  0.1427
 1214loPI   C1B19421   6.152   5.690   6.475 -0.0997  0.1375 -0.4118
 1214loPI   C2B19422   6.058   5.686   6.879 -0.1311  0.0330  0.1112
 1214loPI   C3B19423   6.065   5.590   7.261  0.1616 -0.5874  0.1437
 1214loPI   C4B19424   6.048   5.542   7.707 -0.3586 -0.2141 -0.2960
 1215loPI    C119425   7.339   9.293   5.228 -0.1041  0.0709  0.1428
 1215loPI    C219426   7.264   9.641   5.045  0.2300  0.0119 -0.1182
 1215loPI    C319427   7.008   9.335   5.008 -0.0204  0.1981  0.0397
 1215loPI   PO419428   7.356   9.385   5.492  0.1642  0.0620  0.1671
 1215loPI   GL119429   7.263   9.535   5.841 -0.0384  0.0574 -0.2831
 1215loPI   GL219430   7.227   9.868   6.015 -0.1743 -0.2136  0.0305
 1215loPI   C1A19431   7.236   9.333   6.260  0.1104  0.0402  0.0170
 1215loPI   C2A19432   7.150   9.325   6.629 -0.1404 -0.2736 -0.0258
 1215loPI   C3A19433   7.234   9.378   7.017  0.1735 -0.0561  0.0897
 1215loPI   C4A19434   7.224   9.379   7.467 -0.1039 -0.2075  0.3109
 1215loPI   C5A19435   7.278   9.407   7.898  0.0750  0.1910 -0.0439
 1215loPI   C6A19436   7.589   9.269   8.167  0.0310 -0.0205  0.0461
 1215loPI   C1B19437   7.299   9.874   6.443 -0.1632  0.1976  0.1082
 1215loPI   C2B19438   7.425   9.853   6.818  0.1627  0.1689 -0.0399
 1215loPI   C3B19439   7.425   9.916   7.244  0.1930 -0.0250 -0.1096
 1215loPI   C4B19440   7.408   9.870   7.627 -0.2618  0.0744 -0.1004
 1216loPI    C119441   3.132   4.308   5.786 -0.1847 -0.4297  0.0407
 1216loPI    C219442   3.493   4.221   5.639  0.0218  0.2156  0.1319
 1216loPI    C319443   3.199   4.335   5.393 -0.0230  0.0186  0.0925
 1216loPI   PO419444   3.183   4.479   5.938 -0.1167  0.3222  0.2420
 1216loPI   GL119445   3.150   4.615   6.291 -0.4283 -0.2087  0.0399
 1216loPI   GL219446   3.139   4.428   6.470 -0.2547  0.3384  0.0126
 1216loPI   C1A19447   2.846   4.799   6.592  0.0314  0.0391 -0.1819
 1216loPI   C2A19448   2.845   4.776   6.995  0.2671 -0.2844 -0.1614
 1216loPI   C3A19449   2.829   4.772   7.440 -0.1182  0.3806 -0.2288
 1216loPI   C4A19450   2.724   4.667   7.874  0.0156 -0.0815  0.0158
 1216loPI   C5A19451   2.957   4.630   8.229  0.1116 -0.1940 -0.2851
 1216loPI   C6A19452   3.057   4.526   8.646  0.4025  0.2304  0.0295
 1216loPI   C1B19453   3.344   4.843   6.704 -0.3364  0.3279 -0.0069
 1216loPI   C2B19454   3.356   4.925   7.079 -0.0786 -0.1138  0.0665
 1216loPI   C3B19455   3.336   5.017   7.470  0.0407  0.0844  0.3319
 1216loPI   C4B19456   3.110   4.971   7.827  0.1778 -0.2061 -0.2085
 1217loPI    C119457   8.553  14.432   5.506  0.1700  0.3594 -0.0287
 1217loPI    C219458   8.227  14.554   5.310 -0.0112 -0.2225 -0.1071
 1217loPI    C319459   8.569  14.494   5.112  0.0729  0.1182 -0.0718
 1217loPI   PO419460   8.416  14.341   5.743  0.1089 -0.1130 -0.2239
 1217loPI   GL119461   8.428  14.343   6.018 -0.2834  0.0376 -0.1299
 1217loPI   GL219462   8.675  14.185   6.142  0.1203  0.0457  0.1030
 1217loPI   C1A19463   8.360  14.555   6.401 -0.0508  0.0680 -0.1609
 1217loPI   C2A19464   8.404  14.587   6.809 -0.0846  0.1426  0.0894
 1217loPI   C3A19465   8.246  14.678   7.209  0.0456 -0.0092  0.1462
 1217loPI   C4A19466   8.228  14.661   7.736  0.1377 -0.1501  0.1289
 1217loPI   C5A19467   8.107  14.376   8.115  0.1258 -0.0358 -0.0172
 1217loPI   C6A19468   8.129  14.350   8.608 -0.1513  0.1918 -0.0242
 1217loPI   C1B19469   8.686  14.228   6.582 -0.0889 -0.0143  0.1254
 1217loPI   C2B19470   8.693  14.160   7.008 -0.0568 -0.1609  0.1087
 1217loPI   C3B19471   8.571  14.271   7.429 -0.0049  0.1021 -0.1864
 1217loPI   C4B19472   8.493  14.154   7.876  0.0242 -0.0290  0.2721
 1218loPI    C119473   6.875   6.446   5.459 -0.4737  0.1837 -0.2505
 1218loPI    C219474   6.750   6.076   5.374 -0.2639  0.1022 -0.2107
 1218loPI    C319475   7.021   6.255   5.140  0.1733 -0.0495  0.1657
 1218loPI   PO419476   6.676   6.557   5.617 -0.0510 -0.2259 -0.0645
 1218loPI   GL119477   6.571   6.703   6.012 -0.1238  0.2133 -0.4865
 1218loPI   GL219478   6.619   7.086   5.887 -0.2724 -0.0831 -0.3650
 1218loPI   C1A19479   6.541   6.565   6.394  0.1910 -0.2511  0.1768
 1218loPI   C2A19480   6.528   6.645   6.795  0.0702  0.1217 -0.3318
 1218loPI   C3A19481   6.484   6.553   7.263 -0.1118  0.2016  0.0106
 1218loPI   C4A19482   6.346   6.560   7.756 -0.1988 -0.2676 -0.1372
 1218loPI   C5A19483   6.313   6.592   8.186  0.1548 -0.1608  0.1006
 1218loPI   C6A19484   5.936   6.577   8.471 -0.0579 -0.1388 -0.2412
 1218loPI   C1B19485   6.770   7.106   6.332  0.0803 -0.2851 -0.0207
 1218loPI   C2B19486   6.745   7.077   6.872 -0.2236  0.0163 -0.1629
 1218loPI   C3B19487   6.638   7.019   7.340 -0.0064  0.0276 -0.2202
 1218loPI   C4B19488   6.609   7.004   7.703  0.1314 -0.0059 -0.2273
 1219loPI    C119489   2.591   2.008   5.519  0.0229 -0.0892 -0.3355
 1219loPI    C219490   2.531   1.728   5.239 -0.0858 -0.4549  0.0427
 1219loPI    C319491   2.278   2.036   5.272  0.1145 -0.2253 -0.4688
 1219loPI   PO419492   2.711   1.825   5.729 -0.0180 -0.2283  0.0592
 1219loPI   GL119493   2.504   1.678   6.079  0.1032  0.1250  0.0071
 1219loPI   GL219494   2.313   1.508   6.027 -0.1293 -0.0804 -0.0391
 1219loPI   C1A19495   2.422   1.610   6.510 -0.0537  0.0598 -0.2404
 1219loPI   C2A19496   2.517   1.650   7.026 -0.0595 -0.0566 -0.0901
 1219loPI   C3A19497   2.535   1.525   7.530  0.0641  0.1300  0.1252
 1219loPI   C4A19498   2.503   1.455   8.000  0.0674 -0.1149  0.3974
 1219loPI   C5A19499   2.259   1.601   8.348  0.2165 -0.1184  0.0967
 1219loPI   C6A19500   1.847   1.924   8.413 -0.1121  0.0291  0.0652
 1219loPI   C1B19501   1.976   1.604   6.312  0.0886 -0.4209 -0.0319
 1219loPI   C2B19502   1.943   1.578   6.745 -0.2431  0.0010  0.1076
 1219loPI   C3B19503   1.900   1.548   7.164 -0.1091  0.1922  0.3151
 1219loPI   C4B19504   1.740   1.619   7.541 -0.3298 -0.1045 -0.1203
 1220loPI    C119505   4.535   4.158   5.429  0.1376  0.0691  0.0726
 1220loPI    C219506   4.729   4.259   5.094  0.0366  0.1298  0.0319
 1220loPI    C319507   4.423   4.482   5.223 -0.1064 -0.0516  0.0115
 1220loPI   PO419508   4.690   4.118   5.611 -0.2277 -0.1006 -0.0079
 1220loPI   GL119509   4.686   4.143   6.038 -0.1070 -0.3636  0.0167
 1220loPI   GL219510   4.448   4.192   6.122  0.0727 -0.0006 -0.3452
 1220loPI   C1A19511   5.016   4.133   6.311 -0.3941  0.0293 -0.0375
 1220loPI   C2A19512   5.099   4.130   6.718 -0.3104 -0.1680 -0.1626
 1220loPI   C3A19513   4.975   4.117   7.158 -0.1565  0.0976  0.1643
 1220loPI   C4A19514   5.016   4.090   7.674 -0.0125  0.0635 -0.1054
 1220loPI   C5A19515   5.057   4.024   8.063 -0.0118  0.1751  0.4257
 1220loPI   C6A19516   5.044   4.171   8.496 -0.0430 -0.1227  0.0033
 1220loPI   C1B19517   4.571   4.117   6.559  0.1918 -0.0875  0.2753
 1220loPI   C2B19518   4.457   4.059   6.990 -0.0523 -0.0556  0.3733
 1220loPI   C3B19519   4.479   4.102   7.370 -0.0998 -0.0450  0.0656
 1220loPI   C4B19520   4.536   3.985   7.809 -0.1257 -0.1337  0.1146
 1221loPI    C119521  13.942   5.318   5.467  0.2380 -0.0751  0.1512
 1221loPI    C219522  13.726   5.409   5.143  0.0918  0.0640  0.2860
 1221loPI    C319523  14.083   5.235   5.103  0.0516  0.0327  0.0527
 1221loPI   PO419524  13.870   5.353   5.603  0.2380 -0.0513  0.1190
 1221loPI   GL119525  14.006   5.458   6.001 -0.0737  0.0589  0.0068
 1221loPI   GL219526  13.775   5.225   6.135  0.3620  0.1862  0.1477
 1221loPI   C1A19527  14.155   5.492   6.414  0.0322 -0.2142  0.1135
 1221loPI   C2A19528  14.124   5.415   6.956 -0.0980  0.1259  0.3163
 1221loPI   C3A19529  14.159   5.516   7.372  0.1098 -0.0030  0.1940
 1221loPI   C4A19530  14.065   5.604   7.782 -0.1582  0.0594 -0.1140
 1221loPI   C5A19531  14.152   5.416   8.159 -0.1707 -0.0323  0.0956
 1221loPI   C6A19532  14.537   5.516   8.454 -0.1930  0.1434  0.1190
 1221loPI   C1B19533  13.632   5.337   6.532 -0.0470 -0.3868  0.1006
 1221loPI   C2B19534  13.603   5.335   6.951  0.1060 -0.0631  0.1053
 1221loPI   C3B19535  13.606   5.387   7.470  0.0426  0.3238  0.0233
 1221loPI   C4B19536  13.641   5.387   7.945  0.0372  0.1431  0.0146
 1222loPI    C119537  14.830  11.310   5.807  0.0436 -0.1630  0.1948
 1222loPI    C219538  14.944  11.156   5.456 -0.1764  0.0550  0.0240
 1222loPI    C319539  15.213  11.330   5.695 -0.0529  0.0505 -0.1103
 1222loPI   PO419540  14.661  11.115   6.075 -0.2973  0.2377 -0.1247
 1222loPI   GL119541  14.524  10.797   6.521  0.2702  0.1469  0.2042
 1222loPI   GL219542  14.341  11.072   6.745  0.2918  0.0778  0.3532
 1222loPI   C1A19543  14.720  10.787   6.859 -0.2462  0.0992 -0.2295
 1222loPI   C2A19544  14.862  10.814   7.249  0.1776  0.0964  0.1895
 1222loPI   C3A19545  14.947  11.198   7.538  0.0948 -0.0872 -0.0620
 1222loPI   C4A19546  14.747  11.457   7.860  0.2822  0.0604 -0.0594
 1222loPI   C5A19547  14.598  11.538   8.179  0.0271 -0.1812 -0.0482
 1222loPI   C6A19548  14.578  11.556   8.568  0.0622  0.1117 -0.3684
 1222loPI   C1B19549  14.057  10.748   6.736  0.0206 -0.1255 -0.1377
 1222loPI   C2B19550  13.838  10.748   7.074  0.2780  0.0054 -0.2048
 1222loPI   C3B19551  13.892  10.775   7.514 -0.1376 -0.4621  0.0680
 1222loPI   C4B19552  13.916  10.823   7.903  0.0047  0.0538 -0.0552
 1223loPI    C119553   7.672   4.875   5.315 -0.0107 -0.1710 -0.0061
 1223loPI    C219554   7.537   4.890   4.939  0.0299  0.1765 -0.0098
 1223loPI    C319555   7.283   4.820   5.239  0.0049 -0.1494 -0.1037
 1223loPI   PO419556   7.869   4.946   5.352  0.2243 -0.0362  0.1194
 1223loPI   GL119557   7.962   5.002   5.792  0.2814 -0.0798 -0.1096
 1223loPI   GL219558   8.273   4.955   6.030 -0.0972  0.0722 -0.1028
 1223loPI   C1A19559   7.795   4.914   6.207  0.1556 -0.0561  0.2314
 1223loPI   C2A19560   7.748   4.983   6.667  0.0297  0.0909  0.0093
 1223loPI   C3A19561   7.832   4.898   7.113  0.2119 -0.4433 -0.5030
 1223loPI   C4A19562   7.751   4.973   7.604  0.0643  0.0692  0.1265
 1223loPI   C5A19563   7.755   5.034   8.085 -0.2803 -0.0050 -0.0656
 1223loPI   C6A19564   7.752   5.047   8.495 -0.1390 -0.2758 -0.1412
 1223loPI   C1B19565   8.238   4.970   6.466 -0.0723 -0.2182  0.2961
 1223loPI   C2B19566   8.315   5.003   6.876 -0.0426  0.1570 -0.0332
 1223loPI   C3B19567   8.339   5.017   7.416 -0.1337 -0.1018  0.0036
 1223loPI   C4B19568   8.265   5.193   7.785 -0.0593 -0.0596  0.0070
 1224loPI    C119569  17.420   6.851   5.414 -0.0922  0.0505  0.0373
 1224loPI    C219570  17.708   6.869   5.137 -0.1405  0.2306 -0.0020
 1224loPI    C319571  17.366   6.678   5.058 -0.0698  0.0980  0.0107
 1224loPI   PO419572  17.378   7.072   5.558  0.0224 -0.1796  0.0060
 1224loPI   GL119573  17.555   7.260   6.003 -0.2505 -0.1239 -0.0943
 1224loPI   GL219574  17.253   7.101   6.014  0.0675  0.0167  0.2041
 1224loPI   C1A19575  17.677   7.235   6.437  0.2612  0.3047 -0.0466
 1224loPI   C2A19576  17.755   7.203   6.850  0.4992  0.2039  0.0204
 1224loPI   C3A19577  17.686   7.207   7.277 -0.0805 -0.1195  0.2642
 1224loPI   C4A19578  17.676   7.220   7.689  0.1055 -0.1826 -0.1094
 1224loPI   C5A19579  17.852   7.164   8.045 -0.1694  0.2701 -0.2008
 1224loPI   C6A19580  18.039   6.793   8.338  0.2518 -0.0499  0.1908
 1224loPI   C1B19581  17.158   7.052   6.483 -0.1682 -0.0704 -0.1116
 1224loPI   C2B19582  17.223   7.167   6.905  0.1540 -0.0399 -0.0583
 1224loPI   C3B19583  17.175   7.128   7.247  0.2317 -0.4083  0.1884
 1224loPI   C4B19584  17.122   7.228   7.707  0.2237 -0.0351  0.1143
 1225loPI    C119585   6.317   1.491   5.198  0.0977  0.0649  0.0232
 1225loPI    C219586   6.449   1.436   4.824  0.2037  0.2078  0.0390
 1225loPI    C319587   6.056   1.439   4.900  0.1827  0.1482 -0.0661
 1225loPI   PO419588   6.460   1.316   5.359 -0.4291  0.3583  0.0733
 1225loPI   GL119589   6.587   1.312   5.866 -0.0829  0.0324  0.1512
 1225loPI   GL219590   6.443   1.517   5.831  0.0499  0.0128 -0.1030
 1225loPI   C1A19591   6.796   1.253   6.334 -0.1300  0.0183 -0.0453
 1225loPI   C2A19592   6.714   1.184   6.742  0.0865  0.2602  0.0638
 1225loPI   C3A19593   6.657   1.137   7.142 -0.0731 -0.0181 -0.1652
 1225loPI   C4A19594   6.709   1.260   7.594  0.1368  0.0311 -0.3248
 1225loPI   C5A19595   6.638   1.191   8.005  0.2188  0.2227 -0.3195
 1225loPI   C6A19596   6.735   0.967   8.420 -0.0860 -0.1505 -0.0524
 1225loPI   C1B19597   6.357   1.542   6.262 -0.1403  0.0585  0.1810
 1225loPI   C2B19598   6.436   1.641   6.647  0.0211  0.0148 -0.0796
 1225loPI   C3B19599   6.349   1.610   7.028  0.1872  0.1650  0.0489
 1225loPI   C4B19600   6.412   1.671   7.386 -0.1510 -0.2221  0.0584
 1226loPI    C119601  11.693   6.381   5.854  0.2392  0.0371 -0.0682
 1226loPI    C219602  11.571   6.714   5.670 -0.0980 -0.0873 -0.0770
 1226loPI    C319603  11.872   6.499   5.516 -0.0872  0.0437 -0.2424
 1226loPI   PO419604  11.766   6.411   6.053 -0.1062  0.1443 -0.1054
 1226loPI   GL119605  11.679   6.277   6.398  0.1759 -0.1668  0.0551
 1226loPI   GL219606  11.336   6.249   6.390 -0.0541  0.1761  0.1200
 1226loPI   C1A19607  11.706   6.351   6.822  0.3633 -0.1009 -0.0005
 1226loPI   C2A19608  11.610   6.422   7.278  0.2497  0.0762 -0.2776
 1226loPI   C3A19609  11.665   6.432   7.761  0.0643 -0.0333 -0.1167
 1226loPI   C4A19610  11.603   6.539   8.257  0.0755 -0.1046 -0.0145
 1226loPI   C5A19611  11.664   6.341   8.597  0.0498  0.0838 -0.1422
 1226loPI   C6A19612  11.835   6.147   8.916 -0.0961 -0.2353 -0.0774
 1226loPI   C1B19613  11.159   6.323   6.791  0.2544  0.1629 -0.1576
 1226loPI   C2B19614  11.133   6.372   7.282  0.2197 -0.2797 -0.1480
 1226loPI   C3B19615  11.155   6.326   7.681  0.1168  0.2484 -0.0135
 1226loPI   C4B19616  11.103   6.455   8.080 -0.0073 -0.2104 -0.1152
 1227loPI    C119617   9.764   3.303   5.075  0.0196 -0.1383  0.0858
 1227loPI    C219618  10.088   3.082   4.996  0.0067 -0.0733 -0.1561
 1227loPI    C319619   9.817   3.151   4.709 -0.0668  0.1285 -0.0404
 1227loPI   PO419620   9.821   3.389   5.367 -0.0653  0.0704 -0.0745
 1227loPI   GL119621   9.625   3.255   5.727  0.1696 -0.0596  0.0246
 1227loPI   GL219622   9.469   3.214   5.959  0.0708 -0.0884  0.0123
 1227loPI   C1A19623   9.773   3.622   6.025  0.3138 -0.1630 -0.2458
 1227loPI   C2A19624   9.845   3.776   6.419 -0.1044 -0.1353 -0.1177
 1227loPI   C3A19625   9.712   3.855   6.862  0.3199 -0.0567 -0.0673
 1227loPI   C4A19626   9.744   3.856   7.272  0.0733  0.0902 -0.3912
 1227loPI   C5A19627   9.762   3.955   7.798 -0.3724 -0.0230 -0.0035
 1227loPI   C6A19628   9.744   3.994   8.162 -0.0209 -0.0161 -0.1044
 1227loPI   C1B19629   9.560   3.308   6.339  0.2061 -0.0316 -0.1586
 1227loPI   C2B19630   9.555   3.366   6.803 -0.2201  0.0296  0.1489
 1227loPI   C3B19631   9.521   3.417   7.243 -0.0067  0.2132 -0.1176
 1227loPI   C4B19632   9.490   3.421   7.713  0.0729  0.0370 -0.0989
 1228loPI    C119633  12.948  11.590   5.877  0.0957  0.1379 -0.0298
 1228loPI    C219634  12.634  11.682   5.647  0.0348 -0.2030 -0.0885
 1228loPI    C319635  13.002  11.672   5.489  0.0473 -0.0290 -0.0726
 1228loPI   PO419636  12.875  11.682   6.125  0.0259 -0.2103  0.0273
 1228loPI   GL119637  12.613  11.679   6.364  0.1082  0.1149 -0.1213
 1228loPI   GL219638  12.532  11.879   6.515 -0.0785 -0.1335  0.1012
 1228loPI   C1A19639  12.835  11.513   6.891  0.2960 -0.0358  0.0111
 1228loPI   C2A19640  12.822  11.495   7.260  0.0762 -0.1420 -0.0494
 1228loPI   C3A19641  12.752  11.531   7.824 -0.2872  0.1338  0.0615
 1228loPI   C4A19642  12.785  11.522   8.244  0.0127 -0.0812 -0.1090
 1228loPI   C5A19643  12.715  11.222   8.560  0.1515 -0.1580  0.2949
 1228loPI   C6A19644  12.588  10.794   8.803 -0.0835 -0.0057  0.0583
 1228loPI   C1B19645  12.520  11.930   6.933 -0.0705  0.1952 -0.2889
 1228loPI   C2B19646  12.450  11.890   7.341  0.0162  0.1135 -0.2506
 1228loPI   C3B19647  12.403  11.975   7.726 -0.1851  0.1389 -0.2611
 1228loPI   C4B19648  12.423  11.946   8.196 -0.0937  0.3283  0.0493
 1229loPI    C119649  13.208   8.419   5.241 -0.0283 -0.1294 -0.1290
 1229loPI    C219650  12.833   8.402   5.104 -0.0575 -0.1186 -0.0511
 1229loPI    C319651  13.137   8.288   4.870 -0.0720  0.2544 -0.2601
 1229loPI   PO419652  13.276   8.362   5.463 -0.1292  0.1241 -0.0806
 1229loPI   GL119653  13.164   8.263   6.009  0.1208  0.0261  0.0126
 1229loPI   GL219654  13.209   8.044   6.118  0.2164  0.3489 -0.3068
 1229loPI   C1A19655  13.511   8.458   6.298  0.2085  0.3131  0.1121
 1229loPI   C2A19656  13.426   8.497   6.709  0.0947 -0.1515  0.0374
 1229loPI   C3A19657  13.440   8.447   7.159 -0.2386  0.2722  0.1174
 1229loPI   C4A19658  13.372   8.517   7.564 -0.2897  0.0524 -0.0955
 1229loPI   C5A19659  13.391   8.484   7.978  0.0630 -0.0922  0.2301
 1229loPI   C6A19660  13.503   8.660   8.344  0.1652  0.1286 -0.2951
 1229loPI   C1B19661  13.248   7.978   6.542 -0.0955  0.0180 -0.0121
 1229loPI   C2B19662  13.239   8.001   6.957 -0.1761 -0.1116  0.0494
 1229loPI   C3B19663  13.202   8.050   7.313  0.1692 -0.1596 -0.0640
 1229loPI   C4B19664  13.183   8.084   7.803  0.0029  0.1186  0.2431
 1230loPI    C119665  11.958   5.533   5.827 -0.2446  0.0276  0.3104
 1230loPI    C219666  11.655   5.375   5.619 -0.0446  0.2425 -0.1592
 1230loPI    C319667  11.987   5.494   5.430  0.2571  0.1957  0.3228
 1230loPI   PO419668  11.852   5.530   6.054  0.3778 -0.3352  0.2982
 1230loPI   GL119669  11.901   5.343   6.428 -0.3451 -0.1402  0.0265
 1230loPI   GL219670  12.128   5.033   6.400 -0.2763  0.1638  0.0833
 1230loPI   C1A19671  11.851   5.482   6.906  0.0012  0.1339 -0.0665
 1230loPI   C2A19672  11.765   5.542   7.316 -0.3430  0.1208 -0.0543
 1230loPI   C3A19673  11.760   5.519   7.777  0.2860  0.3572  0.1068
 1230loPI   C4A19674  11.779   5.458   8.193  0.1850 -0.3451 -0.0206
 1230loPI   C5A19675  11.495   5.169   8.415 -0.4961  0.2495 -0.0878
 1230loPI   C6A19676  11.091   5.094   8.407  0.2348  0.0414 -0.0593
 1230loPI   C1B19677  12.217   5.085   6.755  0.0352  0.1544 -0.0817
 1230loPI   C2B19678  12.124   5.002   7.202 -0.2352 -0.0067  0.2484
 1230loPI   C3B19679  12.075   5.099   7.634 -0.1547  0.0371 -0.0402
 1230loPI   C4B19680  12.221   5.210   8.060 -0.0020 -0.0245  0.1802
 1231loPI    C119681  17.172  15.814   5.684  0.1006  0.0107  0.2502
 1231loPI    C219682  17.140  16.131   5.441 -0.2513 -0.2769 -0.0919
 1231loPI    C319683  17.285  15.785   5.301 -0.1995 -0.3690  0.1845
 1231loPI   PO419684  17.244  15.868   5.872  0.2639 -0.3929 -0.1336
 1231loPI   GL119685  17.323  15.577   6.224  0.1568 -0.2765 -0.0613
 1231loPI   GL219686  17.310  15.263   6.393  0.0025 -0.1229  0.1897
 1231loPI   C1A19687  17.381  15.640   6.653  0.0445 -0.1812 -0.1835
 1231loPI   C2A19688  17.390  15.625   7.117 -0.0102 -0.2263 -0.1593
 1231loPI   C3A19689  17.393  15.657   7.547  0.4012  0.2615 -0.0367
 1231loPI   C4A19690  17.308  15.688   8.041 -0.0631  0.1998  0.1810
 1231loPI   C5A19691  17.316  15.665   8.411 -0.2291 -0.0479 -0.0477
 1231loPI   C6A19692  17.209  15.823   8.777 -0.1202 -0.0334  0.1428
 1231loPI   C1B19693  17.228  15.125   6.815 -0.0709 -0.2064 -0.0985
 1231loPI   C2B19694  17.218  15.125   7.277 -0.1120  0.1313 -0.1398
 1231loPI   C3B19695  17.138  15.238   7.661 -0.0645 -0.1429 -0.1120
 1231loPI   C4B19696  17.091  15.237   8.108 -0.1534  0.0394  0.2592
 1232loPI    C119697   4.982  17.470   5.519 -0.0130 -0.0867  0.0595
 1232loPI    C219698   5.102  17.627   5.171 -0.1607 -0.0891  0.0066
 1232loPI    C319699   5.130  17.233   5.233  0.1071 -0.0576  0.0973
 1232loPI   PO419700   5.072  17.680   5.652  0.1121  0.2030  0.2246
 1232loPI   GL119701   5.214  17.731   6.068 -0.1915 -0.0385 -0.2670
 1232loPI   GL219702   5.457  17.555   6.037 -0.1249 -0.1340 -0.1841
 1232loPI   C1A19703   5.252  17.857   6.482  0.0141 -0.0076 -0.1549
 1232loPI   C2A19704   5.182  17.838   6.807 -0.0547 -0.0917  0.1031
 1232loPI   C3A19705   5.295  17.930   7.168  0.0205 -0.1198  0.1858
 1232loPI   C4A19706   5.254  17.754   7.599  0.1591  0.0120 -0.0495
 1232loPI   C5A19707   5.316  17.605   8.068  0.1657 -0.0431 -0.0138
 1232loPI   C6A19708   5.263  17.634   8.506  0.2786 -0.1067 -0.1300
 1232loPI   C1B19709   5.595  17.382   6.461  0.0064 -0.0835  0.2404
 1232loPI   C2B19710   5.659  17.474   6.868  0.0120  0.2677  0.1468
 1232loPI   C3B19711   5.640  17.408   7.306 -0.0166  0.0321 -0.0053
 1232loPI   C4B19712   5.602  17.349   7.668 -0.4381 -0.2729  0.0350
 1233loPI    C119713   2.557   3.587   5.497 -0.1182  0.0667  0.0645
 1233loPI    C219714   2.393   3.283   5.294 -0.0630  0.0751  0.0069
 1233loPI    C319715   2.650   3.529   5.112 -0.1904  0.2216  0.0229
 1233loPI   PO419716   2.344   3.657   5.698  0.1357 -0.2213 -0.1408
 1233loPI   GL119717   2.382   3.424   6.128  0.0119 -0.0012 -0.4695
 1233loPI   GL219718   2.242   3.737   6.226 -0.0148 -0.1904 -0.0798
 1233loPI   C1A19719   2.272   3.314   6.618 -0.1858  0.3496  0.2720
 1233loPI   C2A19720   2.215   3.411   7.023 -0.0795  0.0003  0.0403
 1233loPI   C3A19721   2.293   3.429   7.460 -0.1143  0.1131  0.2180
 1233loPI   C4A19722   2.345   3.307   7.816  0.3217  0.1904  0.3065
 1233loPI   C5A19723   2.724   3.418   8.075 -0.0111 -0.0182  0.0720
 1233loPI   C6A19724   2.968   3.835   8.209 -0.1879 -0.1198  0.3613
 1233loPI   C1B19725   1.987   3.744   6.599 -0.2534 -0.1529  0.3486
 1233loPI   C2B19726   1.882   3.813   6.952  0.3452 -0.0588  0.1717
 1233loPI   C3B19727   1.980   3.831   7.360 -0.0434  0.2130 -0.0342
 1233loPI   C4B19728   2.000   3.854   7.776 -0.1973 -0.3026 -0.0775
 1234loPI    C119729  11.375   7.606   5.417  0.3793 -0.1653  0.1804
 1234loPI    C219730  11.558   7.922   5.255 -0.1062 -0.0414 -0.1484
 1234loPI    C319731  11.718   7.558   5.217  0.2786  0.1144 -0.0672
 1234loPI   PO419732  11.304   7.727   5.713 -0.2120  0.0202 -0.0890
 1234loPI   GL119733  11.510   7.660   6.132 -0.0248 -0.0862  0.4121
 1234loPI   GL219734  11.164   7.538   6.167 -0.1008  0.3909 -0.0790
 1234loPI   C1A19735  11.787   7.635   6.456  0.1572 -0.1447 -0.1650
 1234loPI   C2A19736  11.740   7.661   6.886 -0.0583 -0.1869 -0.0282
 1234loPI   C3A19737  11.770   7.776   7.268 -0.0453  0.0269  0.2592
 1234loPI   C4A19738  11.765   7.810   7.700  0.1709  0.1766 -0.0944
 1234loPI   C5A19739  11.544   7.904   8.133  0.1111  0.2088 -0.4425
 1234loPI   C6A19740  11.405   8.311   8.289  0.1178  0.0267  0.3592
 1234loPI   C1B19741  11.215   7.662   6.568  0.2342  0.1289 -0.0556
 1234loPI   C2B19742  11.235   7.729   7.012 -0.0615  0.0886 -0.1934
 1234loPI   C3B19743  11.265   7.695   7.449  0.0424 -0.1026 -0.0645
 1234loPI   C4B19744  11.193   7.751   7.819 -0.3642 -0.1756 -0.1554
 1235loPI    C119745  11.751   7.240   5.587 -0.0214 -0.0882  0.0774
 1235loPI    C219746  11.445   7.094   5.375 -0.1259  0.0456  0.1352
 1235loPI    C319747  11.820   7.047   5.243 -0.1782 -0.0262  0.0105
 1235loPI   PO419748  11.638   7.216   5.863  0.0454  0.3452 -0.1293
 1235loPI   GL119749  11.654   7.167   6.302  0.1185 -0.1311 -0.2075
 1235loPI   GL219750  11.858   6.929   6.481  0.2050  0.0976 -0.1111
 1235loPI   C1A19751  11.565   7.267   6.713 -0.1401 -0.2050  0.0944
 1235loPI   C2A19752  11.506   7.316   7.150  0.1628 -0.1799  0.4396
 1235loPI   C3A19753  11.478   7.221   7.581 -0.2923 -0.0272  0.0620
 1235loPI   C4A19754  11.515   7.405   7.965 -0.2223 -0.0329  0.0800
 1235loPI   C5A19755  11.574   7.304   8.382  0.2454 -0.1819  0.3809
 1235loPI   C6A19756  11.969   7.146   8.623  0.1218 -0.2309  0.1187
 1235loPI   C1B19757  11.853   6.889   6.954 -0.2220 -0.3421  0.3957
 1235loPI   C2B19758  11.799   6.830   7.347 -0.0940 -0.2893 -0.1525
 1235loPI   C3B19759  11.833   6.899   7.780  0.2705  0.0137  0.0214
 1235loPI   C4B19760  11.850   6.925   8.201  0.3034 -0.0582 -0.0238
 1236loPI    C119761   0.467   9.210   5.205 -0.2457  0.0497  0.2816
 1236loPI    C219762   0.258   8.871   5.165 -0.0600 -0.0364  0.0134
 1236loPI    C319763   0.591   8.928   4.949  0.0629  0.2007  0.2594
 1236loPI   PO419764   0.540   9.407   5.484  0.1488 -0.2552  0.2900
 1236loPI   GL119765   0.532   9.454   5.933  0.0834 -0.3263  0.1431
 1236loPI   GL219766   0.330   9.616   5.989  0.2150 -0.0889  0.1789
 1236loPI   C1A19767   0.728   9.138   6.195  0.1159  0.0395  0.1680
 1236loPI   C2A19768   0.824   9.150   6.717  0.0786 -0.0383 -0.2287
 1236loPI   C3A19769   0.801   9.057   7.201 -0.1085  0.1815  0.0773
 1236loPI   C4A19770   0.714   9.062   7.608 -0.3140 -0.2359 -0.0622
 1236loPI   C5A19771   0.719   8.891   8.037  0.1905  0.0576  0.2101
 1236loPI   C6A19772   0.557   8.671   8.239  0.0087  0.2114  0.0388
 1236loPI   C1B19773   0.459   9.592   6.465 -0.1961 -0.0194 -0.1502
 1236loPI   C2B19774   0.556   9.500   6.931 -0.0990  0.1096 -0.3448
 1236loPI   C3B19775   0.355   9.544   7.339  0.3039 -0.0004 -0.0675
 1236loPI   C4B19776   0.421   9.430   7.746 -0.0832  0.0833 -0.1085
 1237loPI    C119777   8.933   4.945   5.250  0.0128 -0.0972  0.0070
 1237loPI    C219778   8.938   4.648   4.982 -0.0161  0.0350 -0.1409
 1237loPI    C319779   9.277   4.758   5.165  0.0337  0.0514 -0.2421
 1237loPI   PO419780   8.755   4.901   5.457 -0.0713 -0.1691 -0.2112
 1237loPI   GL119781   8.713   5.013   5.849 -0.2020 -0.3812  0.1438
 1237loPI   GL219782   8.745   4.629   5.891 -0.4103  0.2862 -0.3158
 1237loPI   C1A19783   8.775   5.030   6.276  0.0060  0.0051  0.2570
 1237loPI   C2A19784   8.876   5.076   6.696 -0.1660  0.2123  0.2250
 1237loPI   C3A19785   8.781   5.148   7.158 -0.0625  0.0699  0.0290
 1237loPI   C4A19786   8.791   5.103   7.598 -0.0764 -0.1309  0.0007
 1237loPI   C5A19787   8.774   5.081   8.045  0.1321 -0.1492 -0.3187
 1237loPI   C6A19788   8.976   4.933   8.425 -0.2441 -0.1777  0.1043
 1237loPI   C1B19789   8.635   4.483   6.323 -0.5310 -0.0784  0.3154
 1237loPI   C2B19790   8.578   4.601   6.737 -0.0883 -0.4350  0.1172
 1237loPI   C3B19791   8.652   4.653   7.152  0.2389 -0.4434  0.0999
 1237loPI   C4B19792   8.538   4.555   7.582  0.3373 -0.0335 -0.3042
 1238loPI    C119793   0.913  10.681   5.335  0.0530  0.2095  0.0212
 1238loPI    C219794   0.809  10.996   5.111  0.0195  0.1254 -0.0823
 1238loPI    C319795   0.672  10.632   5.020  0.2053  0.0519 -0.0726
 1238loPI   PO419796   0.963  10.708   5.585  0.2291 -0.0015 -0.1951
 1238loPI   GL119797   0.883  10.883   6.020 -0.3144  0.0002  0.0033
 1238loPI   GL219798   0.584  10.700   6.260 -0.1749  0.1412 -0.3158
 1238loPI   C1A19799   1.200  10.871   6.307 -0.1774  0.0955 -0.1604
 1238loPI   C2A19800   1.113  10.994   6.674 -0.4133  0.0396 -0.0233
 1238loPI   C3A19801   1.052  10.911   7.099  0.0575 -0.2187 -0.0031
 1238loPI   C4A19802   1.017  10.934   7.508  0.4340  0.1238  0.0272
 1238loPI   C5A19803   0.998  10.860   7.991  0.1260  0.2644 -0.3099
 1238loPI   C6A19804   0.858  10.620   8.385  0.5229  0.0034 -0.1621
 1238loPI   C1B19805   0.540  10.871   6.689 -0.1202  0.4794 -0.0403
 1238loPI   C2B19806   0.516  10.905   7.126 -0.3831  0.0749 -0.0372
 1238loPI   C3B19807   0.532  10.906   7.619  0.0735 -0.0477  0.0705
 1238loPI   C4B19808   0.457  10.828   7.980  0.3296  0.1630 -0.0796
 1239loPI    C119809  11.032  15.322   5.606 -0.2171  0.1049  0.1026
 1239loPI    C219810  11.038  15.052   5.312  0.2345  0.0294  0.1736
 1239loPI    C319811  10.822  15.386   5.272 -0.0920 -0.2003 -0.0382
 1239loPI   PO419812  11.021  15.267   5.777 -0.0065 -0.4510 -0.0661
 1239loPI   GL119813  11.298  15.361   6.093 -0.0111 -0.0659  0.0547
 1239loPI   GL219814  11.144  15.147   6.233 -0.0934 -0.0980 -0.0278
 1239loPI   C1A19815  11.537  15.547   6.468 -0.0717 -0.0322  0.2215
 1239loPI   C2A19816  11.593  15.582   6.842 -0.0545 -0.0736 -0.1618
 1239loPI   C3A19817  11.550  15.457   7.255 -0.1344 -0.1955  0.0068
 1239loPI   C4A19818  11.486  15.413   7.668 -0.3137  0.0726 -0.0370
 1239loPI   C5A19819  11.499  15.395   8.079  0.2691  0.1912 -0.0530
 1239loPI   C6A19820  11.365  15.149   8.357 -0.0405 -0.1149 -0.0787
 1239loPI   C1B19821  11.316  15.065   6.566 -0.0019 -0.0273  0.0977
 1239loPI   C2B19822  11.325  15.010   7.058 -0.3136 -0.2896  0.2330
 1239loPI   C3B19823  11.306  14.950   7.495 -0.2770  0.0481  0.1011
 1239loPI   C4B19824  11.341  14.907   7.914  0.0180  0.1890  0.4510
 1240loPI    C119825  17.009  16.806   5.439 -0.2520 -0.2594  0.3496
 1240loPI    C219826  16.638  16.951   5.474 -0.2129 -0.0873  0.0810
 1240loPI    C319827  16.784  16.861   5.113  0.0803  0.0427  0.1643
 1240loPI   PO419828  17.067  16.673   5.670 -0.0672 -0.0299 -0.2138
 1240loPI   GL119829  17.384  16.864   6.051 -0.0153  0.1152 -0.0545
 1240loPI   GL219830  17.025  16.836   6.264 -0.0267  0.2597 -0.0201
 1240loPI   C1A19831  17.625  16.868   6.328 -0.1143 -0.2914  0.5241
 1240loPI   C2A19832  17.604  16.941   6.667  0.0166 -0.0449  0.0698
 1240loPI   C3A19833  17.481  17.018   7.150 -0.1414 -0.0410  0.1232
 1240loPI   C4A19834  17.533  16.966   7.576  0.0849  0.2353  0.0054
 1240loPI   C5A19835  17.632  16.951   7.997 -0.3464  0.0228  0.2140
 1240loPI   C6A19836  17.773  16.586   8.153 -0.0560 -0.3353 -0.0250
 1240loPI   C1B19837  17.081  16.893   6.651 -0.0978  0.2078  0.2914
 1240loPI   C2B19838  16.980  16.946   7.034 -0.2978 -0.0741  0.2527
 1240loPI   C3B19839  17.019  16.926   7.461  0.0871  0.2612 -0.0944
 1240loPI   C4B19840  16.990  16.974   7.857  0.2035  0.0324 -0.2271
 1241loPI    C119841   5.090   9.053   5.439  0.2971 -0.2268  0.0896
 1241loPI    C219842   5.026   9.018   5.046 -0.0596  0.0154  0.1212
 1241loPI    C319843   5.295   9.281   5.182  0.2081 -0.2085  0.0344
 1241loPI   PO419844   4.876   9.074   5.577  0.3744 -0.0637 -0.2641
 1241loPI   GL119845   4.900   9.031   6.040  0.2893  0.1491 -0.2024
 1241loPI   GL219846   5.215   9.029   5.952  0.0896  0.1188 -0.1239
 1241loPI   C1A19847   4.659   9.082   6.445  0.2175 -0.3371  0.3707
 1241loPI   C2A19848   4.632   9.100   6.892 -0.1179  0.1329  0.0260
 1241loPI   C3A19849   4.568   9.067   7.275  0.0371  0.2070 -0.2282
 1241loPI   C4A19850   4.617   8.965   7.741  0.1769  0.1876  0.1040
 1241loPI   C5A19851   4.907   9.015   7.963 -0.3069 -0.0840 -0.3065
 1241loPI   C6A19852   4.871   9.134   8.420 -0.1444  0.1692 -0.0040
 1241loPI   C1B19853   5.301   9.033   6.336 -0.2109 -0.3888 -0.4221
 1241loPI   C2B19854   5.153   9.156   6.695  0.1051 -0.0200  0.3141
 1241loPI   C3B19855   5.127   9.054   7.104  0.0842 -0.2673 -0.3524
 1241loPI   C4B19856   5.178   9.042   7.532  0.1732 -0.0636 -0.0446
 1242loPI    C119857  12.115  16.858   5.521 -0.3446 -0.1162 -0.0150
 1242loPI    C219858  12.338  16.951   5.202  0.0322  0.0959  0.3025
 1242loPI    C319859  12.092  16.637   5.188 -0.0058  0.1407 -0.2159
 1242loPI   PO419860  12.366  16.857   5.718 -0.1275  0.2055 -0.1910
 1242loPI   GL119861  12.282  16.703   6.137 -0.2039 -0.1988  0.0928
 1242loPI   GL219862  11.942  16.524   6.292 -0.1050 -0.1807 -0.4066
 1242loPI   C1A19863  12.408  16.645   6.552  0.0434  0.0608 -0.2368
 1242loPI   C2A19864  12.437  16.463   6.979  0.2647  0.0040  0.0427
 1242loPI   C3A19865  12.372  16.486   7.382  0.2161 -0.1984 -0.0944
 1242loPI   C4A19866  12.484  16.417   7.796 -0.0243 -0.1038 -0.1352
 1242loPI   C5A19867  12.340  16.348   8.097  0.1852  0.0163 -0.1679
 1242loPI   C6A19868  12.104  16.596   8.405 -0.0975 -0.0591  0.0792
 1242loPI   C1B19869  11.919  16.559   6.679 -0.2180  0.4556  0.0170
 1242loPI   C2B19870  11.932  16.375   7.131 -0.2350  0.0211  0.2212
 1242loPI   C3B19871  11.923  16.349   7.557  0.2404  0.0367 -0.0046
 1242loPI   C4B19872  11.816  16.332   8.046  0.1279 -0.1063 -0.0676
 1243loPI    C119873   4.688  14.525   5.300 -0.0140  0.0603  0.1468
 1243loPI    C219874   4.699  14.857   5.078  0.1495 -0.0412  0.0004
 1243loPI    C319875   4.843  14.514   4.931  0.2145 -0.1205  0.2453
 1243loPI   PO419876   4.748  14.690   5.568  0.0158 -0.0030  0.1207
 1243loPI   GL119877   4.667  14.720   5.992 -0.0581  0.2261  0.1901
 1243loPI   GL219878   4.707  14.942   6.202 -0.2029 -0.2346 -0.3228
 1243loPI   C1A19879   4.537  14.545   6.385 -0.1581 -0.1758  0.0564
 1243loPI   C2A19880   4.475  14.412   6.722  0.3677  0.2186 -0.0665
 1243loPI   C3A19881   4.482  14.442   7.138 -0.3392 -0.0120  0.2447
 1243loPI   C4A19882   4.384  14.465   7.591 -0.2151 -0.2337  0.1589
 1243loPI   C5A19883   4.388  14.422   8.008  0.1377 -0.2247  0.2099
 1243loPI   C6A19884   4.312  14.232   8.479  0.1155 -0.1719  0.0623
 1243loPI   C1B19885   4.726  15.024   6.625 -0.0652  0.1749 -0.3736
 1243loPI   C2B19886   4.700  14.909   7.018 -0.3877  0.1690 -0.0440
 1243loPI   C3B19887   4.735  14.961   7.360 -0.0845 -0.0244  0.4654
 1243loPI   C4B19888   4.588  14.905   7.831  0.1602 -0.0401 -0.2469
 1244loPI    C119889   6.295   8.277   5.060  0.0635  0.0147  0.0119
 1244loPI    C219890   6.145   8.612   4.901  0.0755  0.0718  0.1196
 1244loPI    C319891   6.531   8.520   4.846  0.0294 -0.0178 -0.0631
 1244loPI   PO419892   6.246   8.334   5.353 -0.1904 -0.3356 -0.0271
 1244loPI   GL119893   6.342   8.303   5.755  0.1949  0.0098  0.1162
 1244loPI   GL219894   6.713   8.228   5.852 -0.0264 -0.1024  0.2886
 1244loPI   C1A19895   6.295   8.382   6.146  0.2039 -0.2533 -0.0476
 1244loPI   C2A19896   6.351   8.333   6.601  0.0376 -0.1736 -0.3297
 1244loPI   C3A19897   6.334   8.329   7.060  0.4326 -0.1359 -0.3232
 1244loPI   C4A19898   6.285   8.310   7.478 -0.4359 -0.0292  0.0282
 1244loPI   C5A19899   6.363   8.400   7.958  0.0988  0.0278 -0.1091
 1244loPI   C6A19900   6.696   8.439   8.184 -0.0117  0.0852 -0.1211
 1244loPI   C1B19901   6.771   8.425   6.285 -0.3438  0.2062 -0.1954
 1244loPI   C2B19902   6.858   8.445   6.789  0.2177  0.0542 -0.1388
 1244loPI   C3B19903   6.766   8.431   7.214 -0.1940  0.1042  0.1838
 1244loPI   C4B19904   6.774   8.439   7.683  0.1126 -0.0124 -0.1401
 1245loPI    C119905  11.588   3.783   5.803  0.2910 -0.0159  0.2054
 1245loPI    C219906  11.639   3.523   5.504  0.0737  0.0331  0.1237
 1245loPI    C319907  11.954   3.715   5.659  0.1631  0.1756 -0.2256
 1245loPI   PO419908  11.533   3.702   5.978  0.1807  0.3124 -0.1297
 1245loPI   GL119909  11.534   3.862   6.387 -0.0427 -0.3139  0.0256
 1245loPI   GL219910  11.809   3.880   6.498 -0.1512  0.1719  0.0353
 1245loPI   C1A19911  11.315   4.030   6.722 -0.0392  0.2735 -0.1055
 1245loPI   C2A19912  11.258   4.103   7.119 -0.0183  0.0007  0.1979
 1245loPI   C3A19913  11.264   4.133   7.605 -0.0606  0.2030  0.1333
 1245loPI   C4A19914  11.331   4.045   7.998 -0.3025 -0.0290  0.0812
 1245loPI   C5A19915  11.255   4.096   8.350 -0.3211  0.3187  0.0393
 1245loPI   C6A19916  11.107   4.395   8.663 -0.1497  0.0349 -0.0020
 1245loPI   C1B19917  11.855   4.014   6.917  0.0708 -0.1822  0.0639
 1245loPI   C2B19918  11.709   4.123   7.371 -0.0624 -0.0936 -0.1517
 1245loPI   C3B19919  11.925   4.113   7.816 -0.0367  0.2501  0.0485
 1245loPI   C4B19920  11.737   4.188   8.239 -0.0355 -0.1075 -0.0062
 1246loPI    C119921   5.807   1.449   5.350  0.0488 -0.0172 -0.0051
 1246loPI    C219922   5.912   1.098   5.189  0.0331  0.0943 -0.2637
 1246loPI    C319923   5.531   1.219   5.174 -0.0595 -0.1035  0.2720
 1246loPI   PO419924   5.926   1.414   5.625 -0.2009 -0.3703 -0.1306
 1246loPI   GL119925   6.019   1.172   5.964 -0.3587  0.1350 -0.2244
 1246loPI   GL219926   6.309   1.009   6.088 -0.1580  0.2975 -0.2377
 1246loPI   C1A19927   5.720   1.007   6.267 -0.0735 -0.3779 -0.4048
 1246loPI   C2A19928   5.682   1.102   6.698  0.1761 -0.0157 -0.0073
 1246loPI   C3A19929   5.617   1.116   7.181 -0.2414  0.2556 -0.0332
 1246loPI   C4A19930   5.717   0.979   7.590  0.1433  0.0148  0.1549
 1246loPI   C5A19931   5.668   0.946   7.980 -0.0439  0.0089 -0.2130
 1246loPI   C6A19932   5.640   0.803   8.438 -0.1262 -0.0779 -0.4277
 1246loPI   C1B19933   6.228   1.151   6.547  0.1310  0.0952  0.1435
 1246loPI   C2B19934   6.082   1.141   6.957 -0.1370  0.0922  0.2051
 1246loPI   C3B19935   6.186   1.242   7.326 -0.1274 -0.0510  0.1020
 1246loPI   C4B19936   6.188   1.070   7.777  0.1534  0.0681 -0.0383
 1247loPI    C119937   9.480   1.501   5.363 -0.0596  0.0343  0.0277
 1247loPI    C219938   9.872   1.545   5.300 -0.1005 -0.0460 -0.2971
 1247loPI    C319939   9.688   1.209   5.187 -0.2443 -0.0534 -0.0474
 1247loPI   PO419940   9.452   1.579   5.661  0.0439 -0.0072  0.0335
 1247loPI   GL119941   9.553   1.559   6.107  0.0090 -0.0079  0.1577
 1247loPI   GL219942   9.322   1.798   6.341 -0.3674 -0.0825 -0.2027
 1247loPI   C1A19943   9.787   1.582   6.506  0.2923  0.2024 -0.0143
 1247loPI   C2A19944   9.740   1.558   6.908  0.1251  0.0981  0.2528
 1247loPI   C3A19945   9.721   1.542   7.359 -0.0603 -0.2121  0.0888
 1247loPI   C4A19946   9.783   1.505   7.845  0.2096  0.2458 -0.2007
 1247loPI   C5A19947   9.863   1.350   8.266 -0.3084 -0.2356 -0.1670
 1247loPI   C6A19948   9.860   0.922   8.325 -0.1252  0.1202  0.2790
 1247loPI   C1B19949   9.389   1.960   6.776  0.0594  0.1492 -0.0400
 1247loPI   C2B19950   9.406   1.974   7.229 -0.1928  0.0011 -0.1488
 1247loPI   C3B19951   9.424   2.104   7.732 -0.1918  0.0688  0.3567
 1247loPI   C4B19952   9.374   1.872   8.079  0.0518  0.0354 -0.2483
 1248loPI    C119953  16.911   6.553   5.270  0.1315 -0.2390  0.0875
 1248loPI    C219954  16.818   6.220   5.069 -0.0979  0.0054 -0.2215
 1248loPI    C319955  16.940   6.545   4.871 -0.0040  0.1481  0.0663
 1248loPI   PO419956  17.044   6.522   5.415  0.1040  0.3876 -0.2789
 1248loPI   GL119957  17.127   6.543   5.833 -0.2672 -0.1969  0.0206
 1248loPI   GL219958  17.319   6.357   6.029  0.2850 -0.0473 -0.0134
 1248loPI   C1A19959  16.972   6.679   6.239 -0.0343  0.0831 -0.3083
 1248loPI   C2A19960  16.986   6.628   6.690  0.0934  0.1699  0.0958
 1248loPI   C3A19961  16.972   6.709   7.091 -0.0008  0.3018 -0.0246
 1248loPI   C4A19962  17.018   6.742   7.511 -0.2669 -0.2988  0.2455
 1248loPI   C5A19963  16.914   6.753   7.874 -0.1819  0.1480  0.2014
 1248loPI   C6A19964  16.970   7.003   8.190  0.3106 -0.4091  0.1495
 1248loPI   C1B19965  17.317   6.300   6.501 -0.0218 -0.1396 -0.2151
 1248loPI   C2B19966  17.336   6.312   6.836 -0.2626 -0.1202 -0.0055
 1248loPI   C3B19967  17.308   6.322   7.249 -0.2670 -0.3846 -0.0637
 1248loPI   C4B19968  17.350   6.430   7.754  0.0526 -0.2059  0.1391
 1249loPI    C119969   6.992  16.112   5.542  0.2181 -0.0774  0.2523
 1249loPI    C219970   7.138  16.117   5.169  0.0655  0.0519  0.1934
 1249loPI    C319971   7.305  15.882   5.446  0.1201 -0.1165  0.0192
 1249loPI   PO419972   6.997  16.280   5.658 -0.1053  0.0164 -0.2238
 1249loPI   GL119973   6.876  16.273   6.055  0.0822 -0.0464 -0.2252
 1249loPI   GL219974   7.155  16.421   6.170  0.1116  0.0495 -0.1040
 1249loPI   C1A19975   6.552  16.273   6.377 -0.0895 -0.1703 -0.0426
 1249loPI   C2A19976   6.570  16.257   6.711 -0.4825  0.0928 -0.1418
 1249loPI   C3A19977   6.594  16.177   7.172 -0.1796  0.1807  0.1455
 1249loPI   C4A19978   6.526  16.211   7.621 -0.0584 -0.0059  0.1907
 1249loPI   C5A19979   6.428  16.171   8.108 -0.2594 -0.1268  0.0970
 1249loPI   C6A19980   6.570  15.969   8.370 -0.2910  0.0928 -0.0452
 1249loPI   C1B19981   7.055  16.386   6.550 -0.2187  0.0425 -0.0606
 1249loPI   C2B19982   7.069  16.312   7.043  0.1139  0.1399 -0.0201
 1249loPI   C3B19983   7.096  16.312   7.481 -0.0872 -0.1622  0.0484
 1249loPI   C4B19984   7.054  16.269   7.865  0.2227 -0.1076  0.0216
 1250loPI    C119985  12.567  12.743   5.592  0.0584 -0.0872  0.0417
 1250loPI    C219986  12.672  12.764   5.207  0.2382 -0.0164  0.0935
 1250loPI    C319987  12.301  12.864   5.319  0.0967 -0.3136 -0.0980
 1250loPI   PO419988  12.511  12.500   5.720  0.1648  0.2264 -0.2354
 1250loPI   GL119989  12.446  12.503   6.166 -0.3615  0.0210 -0.3322
 1250loPI   GL219990  12.436  12.828   6.262  0.0533  0.1500  0.0992
 1250loPI   C1A19991  12.234  12.415   6.509  0.3409  0.0647  0.1383
 1250loPI   C2A19992  12.174  12.363   6.994  0.0823 -0.2040 -0.1480
 1250loPI   C3A19993  12.165  12.327   7.466  0.3864 -0.0934  0.0775
 1250loPI   C4A19994  12.101  12.369   7.855  0.0266 -0.1866 -0.0249
 1250loPI   C5A19995  12.074  12.385   8.297 -0.1378  0.0273  0.3086
 1250loPI   C6A19996  12.311  12.164   8.619  0.0571 -0.2520  0.0892
 1250loPI   C1B19997  12.483  12.805   6.716  0.0007 -0.1436 -0.1037
 1250loPI   C2B19998  12.378  12.865   7.104  0.0089 -0.0481  0.1006
 1250loPI   C3B19999  12.322  12.813   7.590 -0.1511  0.1036 -0.0169
 1250loPI   C4B20000  12.345  12.822   8.020  0.0132  0.1570  0.0693
 1251loPI    C120001  13.813  11.570   5.874  0.0041 -0.0453 -0.0763
 1251loPI    C220002  13.648  11.210   5.930 -0.1649  0.0369 -0.0414
 1251loPI    C320003  13.471  11.476   5.689  0.0127  0.0606 -0.1472
 1251loPI   PO420004  13.850  11.716   6.046 -0.2612 -0.1379 -0.2801
 1251loPI   GL120005  13.890  11.811   6.457  0.1173  0.0224  0.0009
 1251loPI   GL220006  13.577  11.963   6.556  0.0656 -0.1496 -0.1185
 1251loPI   C1A20007  13.899  11.518   6.862 -0.0380  0.5442  0.2857
 1251loPI   C2A20008  14.091  11.184   7.142 -0.0092  0.1517 -0.1580
 1251loPI   C3A20009  14.297  10.793   7.284  0.4728 -0.1804 -0.1128
 1251loPI   C4A20010  14.513  10.843   7.676  0.1514  0.4018 -0.0777
 1251loPI   C5A20011  14.481  11.098   8.039 -0.1280  0.0612  0.1748
 1251loPI   C6A20012  14.139  11.304   8.196 -0.0238 -0.1001 -0.1764
 1251loPI   C1B20013  13.457  12.073   6.982  0.0811  0.1351  0.1636
 1251loPI   C2B20014  13.397  12.095   7.457 -0.1232 -0.0534  0.2355
 1251loPI   C3B20015  13.322  12.002   7.881 -0.1457 -0.2872  0.2391
 1251loPI   C4B20016  13.289  11.690   8.157  0.2750 -0.1734 -0.0399
 1252loPI    C120017   2.131   1.649   5.572 -0.0833  0.1883 -0.2609
 1252loPI    C220018   1.797   1.567   5.776  0.0677  0.2261  0.0062
 1252loPI    C320019   1.818   1.484   5.385 -0.1260 -0.1092  0.0635
 1252loPI   PO420020   2.176   1.889   5.747  0.2243 -0.3759 -0.2393
 1252loPI   GL120021   2.383   2.202   6.040 -0.2106 -0.0422 -0.2336
 1252loPI   GL220022   2.125   2.094   6.239 -0.0889 -0.0086 -0.0087
 1252loPI   C1A20023   2.697   2.074   6.358  0.0310 -0.1216 -0.0005
 1252loPI   C2A20024   2.640   2.086   6.801  0.0356 -0.1998  0.2255
 1252loPI   C3A20025   2.692   2.134   7.202 -0.2200 -0.3606 -0.1003
 1252loPI   C4A20026   2.725   1.938   7.683  0.0193 -0.1941  0.0964
 1252loPI   C5A20027   2.638   1.958   8.082 -0.2554 -0.1441 -0.1571
 1252loPI   C6A20028   2.970   2.005   8.442  0.1517 -0.0542 -0.2054
 1252loPI   C1B20029   2.175   2.048   6.679  0.0601  0.3179 -0.2986
 1252loPI   C2B20030   2.147   2.025   7.133  0.1307 -0.0630  0.1591
 1252loPI   C3B20031   2.156   1.988   7.553  0.0976 -0.1207 -0.0785
 1252loPI   C4B20032   2.131   1.869   7.969  0.1090 -0.0896 -0.0586
 1253loPI    C120033   5.281   6.926   5.324  0.1026 -0.2604  0.0956
 1253loPI    C220034   5.372   6.873   4.938 -0.4566  0.0017 -0.0822
 1253loPI    C320035   5.407   7.236   5.104  0.0913 -0.1743  0.2090
 1253loPI   PO420036   5.526   6.784   5.482 -0.0780  0.0894 -0.1394
 1253loPI   GL120037   5.466   6.660   5.919  0.0244 -0.1828 -0.2131
 1253loPI   GL220038   5.294   6.903   6.145  0.1498  0.0594  0.1344
 1253loPI   C1A20039   5.557   6.427   6.266  0.0571 -0.0529 -0.1313
 1253loPI   C2A20040   5.468   6.459   6.670 -0.1744  0.1197 -0.0792
 1253loPI   C3A20041   5.535   6.506   7.089  0.2644  0.1898 -0.1469
 1253loPI   C4A20042   5.477   6.471   7.491  0.1889 -0.1130 -0.3139
 1253loPI   C5A20043   5.450   6.282   7.948 -0.0057  0.1516  0.2262
 1253loPI   C6A20044   5.457   6.256   8.382  0.0052  0.2672  0.0689
 1253loPI   C1B20045   5.173   6.834   6.519  0.0832 -0.1944  0.0673
 1253loPI   C2B20046   5.211   6.849   6.962 -0.1081  0.1960  0.0231
 1253loPI   C3B20047   5.152   6.870   7.361 -0.1919  0.1263  0.2046
 1253loPI   C4B20048   5.190   6.772   7.778 -0.2156  0.0256 -0.2090
 1254loPI    C120049   7.073   1.922   5.208  0.1623 -0.1133 -0.0521
 1254loPI    C220050   6.763   2.110   5.039  0.1710 -0.0412  0.0112
 1254loPI    C320051   6.792   1.711   5.017  0.1469 -0.0365 -0.1145
 1254loPI   PO420052   7.104   1.905   5.580  0.0395  0.0688  0.0445
 1254loPI   GL120053   6.823   2.086   5.861  0.1164  0.0583 -0.0802
 1254loPI   GL220054   6.823   2.429   5.922 -0.0924 -0.0043  0.3742
 1254loPI   C1A20055   6.665   2.103   6.383 -0.4129  0.0071 -0.3024
 1254loPI   C2A20056   6.609   2.090   6.808 -0.2477 -0.0074  0.0654
 1254loPI   C3A20057   6.611   2.103   7.144  0.1987 -0.0788  0.0187
 1254loPI   C4A20058   6.537   2.134   7.580  0.1014 -0.1848  0.3391
 1254loPI   C5A20059   6.585   2.064   7.991 -0.2271 -0.0766 -0.1159
 1254loPI   C6A20060   6.546   2.036   8.440  0.1521 -0.0487  0.0126
 1254loPI   C1B20061   6.827   2.547   6.421 -0.0167  0.0566  0.1464
 1254loPI   C2B20062   6.749   2.598   6.868  0.0811  0.2565  0.1291
 1254loPI   C3B20063   6.754   2.709   7.285  0.0291 -0.1327 -0.1619
 1254loPI   C4B20064   6.797   2.710   7.680 -0.1576 -0.1777 -0.0630
 1255loPI    C120065   3.257   9.979   5.225 -0.1389  0.2091 -0.2259
 1255loPI    C220066   3.604   9.866   5.061 -0.1004 -0.0620  0.0323
 1255loPI    C320067   3.264   9.828   4.854  0.0236  0.2411 -0.2368
 1255loPI   PO420068   3.285   9.841   5.485  0.1715 -0.0047 -0.2725
 1255loPI   GL120069   3.311  10.054   5.799  0.0752  0.0748  0.1098
 1255loPI   GL220070   2.971   9.914   5.890  0.0572  0.0825  0.0922
 1255loPI   C1A20071   3.304  10.258   6.279  0.1859  0.3325  0.0829
 1255loPI   C2A20072   3.317  10.353   6.695  0.0857 -0.0773  0.2515
 1255loPI   C3A20073   3.175  10.300   7.124  0.0088  0.0855 -0.0596
 1255loPI   C4A20074   3.126  10.296   7.471  0.2980 -0.1671 -0.3283
 1255loPI   C5A20075   3.177  10.139   7.912  0.2306  0.1130 -0.0100
 1255loPI   C6A20076   3.406  10.020   8.297 -0.1265  0.0558 -0.1242
 1255loPI   C1B20077   3.105   9.813   6.231 -0.1386 -0.0635  0.0591
 1255loPI   C2B20078   3.075   9.784   6.632 -0.2481 -0.4258  0.1502
 1255loPI   C3B20079   3.029   9.825   7.073 -0.1186  0.0233 -0.0132
 1255loPI   C4B20080   2.931   9.820   7.546 -0.1274  0.0715 -0.1188
 1256loPI    C120081   8.785   2.939   5.402 -0.1799  0.1465 -0.1478
 1256loPI    C220082   8.530   2.851   5.107  0.0194 -0.2340 -0.2126
 1256loPI    C320083   8.820   3.120   5.047 -0.0709 -0.1539 -0.2933
 1256loPI   PO420084   8.642   2.848   5.637 -0.0753 -0.0444 -0.3102
 1256loPI   GL120085   8.362   2.932   5.963 -0.1739 -0.1422 -0.2164
 1256loPI   GL220086   8.412   3.273   5.962 -0.1388 -0.0668 -0.0950
 1256loPI   C1A20087   8.354   2.794   6.507 -0.0078  0.2194  0.2903
 1256loPI   C2A20088   8.275   2.733   6.955 -0.0036 -0.0730  0.3081
 1256loPI   C3A20089   8.295   2.872   7.394 -0.1685 -0.0814 -0.3245
 1256loPI   C4A20090   8.274   2.737   7.805  0.0595 -0.1544  0.0133
 1256loPI   C5A20091   8.258   2.699   8.333  0.0667  0.3570  0.4250
 1256loPI   C6A20092   8.177   2.435   8.722 -0.2858 -0.1180  0.3966
 1256loPI   C1B20093   8.528   3.196   6.382 -0.2444  0.3330  0.0095
 1256loPI   C2B20094   8.507   3.263   6.846  0.1682 -0.0357 -0.0802
 1256loPI   C3B20095   8.425   3.334   7.280 -0.0563 -0.1897  0.2006
 1256loPI   C4B20096   8.425   3.259   7.767  0.0630  0.2504 -0.0304
 1257loPI    C120097  12.269  13.628   5.533  0.0912 -0.2803  0.1853
 1257loPI    C220098  12.546  13.686   5.250 -0.0078 -0.0918  0.1254
 1257loPI    C320099  12.192  13.525   5.155  0.0274 -0.2005  0.1763
 1257loPI   PO420100  12.219  13.810   5.705  0.3975  0.0461  0.2757
 1257loPI   GL120101  12.097  13.827   6.127  0.2254 -0.3641  0.1927
 1257loPI   GL220102  11.983  13.608   6.293 -0.1301 -0.0395 -0.0569
 1257loPI   C1A20103  12.092  14.121   6.481 -0.4034 -0.0811  0.0041
 1257loPI   C2A20104  11.951  14.158   6.970  0.0371 -0.0791 -0.0017
 1257loPI   C3A20105  11.923  14.160   7.390 -0.0491  0.2336 -0.2291
 1257loPI   C4A20106  11.865  14.122   7.793  0.1469 -0.0837  0.2972
 1257loPI   C5A20107  11.862  14.021   8.188 -0.1078  0.3179  0.2133
 1257loPI   C6A20108  11.895  14.366   8.526 -0.1784  0.4576 -0.0240
 1257loPI   C1B20109  11.789  13.728   6.701 -0.1430 -0.0521 -0.2578
 1257loPI   C2B20110  11.781  13.635   7.176  0.1765  0.0402  0.3247
 1257loPI   C3B20111  11.673  13.668   7.642 -0.0077  0.0205  0.1060
 1257loPI   C4B20112  11.632  13.518   8.124  0.1738 -0.0877 -0.0425
 1258loPI    C120113   3.075  15.743   5.439 -0.0833  0.0390  0.0286
 1258loPI    C220114   3.304  15.562   5.166 -0.1383 -0.0564  0.0454
 1258loPI    C320115   2.907  15.574   5.117 -0.1478 -0.0692  0.1184
 1258loPI   PO420116   3.085  15.639   5.687 -0.0575  0.0540 -0.1436
 1258loPI   GL120117   3.002  15.759   6.068  0.2439 -0.2355 -0.0866
 1258loPI   GL220118   3.033  15.993   6.248 -0.1349 -0.1139  0.3472
 1258loPI   C1A20119   3.090  15.545   6.461 -0.1033  0.3004 -0.0425
 1258loPI   C2A20120   3.025  15.524   6.892 -0.0746 -0.0705  0.2106
 1258loPI   C3A20121   3.070  15.535   7.270  0.1831  0.1556  0.2853
 1258loPI   C4A20122   3.071  15.653   7.692 -0.0396  0.3288 -0.0297
 1258loPI   C5A20123   3.076  15.667   8.117  0.2013 -0.1675 -0.2452
 1258loPI   C6A20124   3.143  16.032   8.451  0.2533  0.2638 -0.1815
 1258loPI   C1B20125   3.238  15.989   6.607  0.3006  0.0848  0.2385
 1258loPI   C2B20126   3.228  16.043   7.057  0.3014  0.3341 -0.0498
 1258loPI   C3B20127   3.304  16.133   7.464 -0.1362  0.4859  0.0004
 1258loPI   C4B20128   3.258  16.068   7.887 -0.0661  0.2895 -0.2893
 1259loPI    C120129   2.477   8.694   5.322  0.0210  0.1085 -0.0489
 1259loPI    C220130   2.247   8.488   5.068 -0.1366  0.2679 -0.0378
 1259loPI    C320131   2.564   8.690   4.932  0.0472 -0.0170 -0.0424
 1259loPI   PO420132   2.383   8.553   5.585 -0.0379 -0.2316 -0.0085
 1259loPI   GL120133   2.427   8.574   6.006  0.1451 -0.1344  0.0655
 1259loPI   GL220134   2.521   8.294   6.061  0.1397  0.2164  0.0642
 1259loPI   C1A20135   2.658   8.908   6.319 -0.1041  0.1681 -0.1172
 1259loPI   C2A20136   2.700   8.816   6.742  0.2615 -0.0713  0.1038
 1259loPI   C3A20137   2.685   8.910   7.165  0.0591 -0.1864  0.3028
 1259loPI   C4A20138   2.627   8.876   7.596 -0.1836 -0.4056 -0.0429
 1259loPI   C5A20139   2.577   8.771   8.095 -0.0138 -0.4245 -0.0383
 1259loPI   C6A20140   2.513   8.935   8.522 -0.1706  0.4359 -0.0004
 1259loPI   C1B20141   2.467   8.379   6.484 -0.1183  0.3312 -0.1052
 1259loPI   C2B20142   2.411   8.327   6.902  0.1867  0.0459 -0.1180
 1259loPI   C3B20143   2.391   8.373   7.264  0.2828 -0.2172 -0.0514
 1259loPI   C4B20144   2.459   8.417   7.759  0.0714  0.1202 -0.1187
 1260loPI    C120145   5.719   8.393   5.429 -0.1094 -0.1174 -0.0154
 1260loPI    C220146   5.479   8.080   5.364  0.0188 -0.2255  0.0261
 1260loPI    C320147   5.791   8.145   5.123 -0.2446  0.1098 -0.2345
 1260loPI   PO420148   5.695   8.383   5.687  0.2880  0.0791  0.0712
 1260loPI   GL120149   5.697   8.107   5.858 -0.4109  0.0810 -0.3962
 1260loPI   GL220150   5.472   7.862   5.815 -0.0347  0.2103 -0.0750
 1260loPI   C1A20151   5.788   8.207   6.408  0.0957 -0.2080  0.1038
 1260loPI   C2A20152   5.789   8.270   6.818 -0.0516  0.3195  0.1010
 1260loPI   C3A20153   5.812   8.270   7.294 -0.0552  0.4800  0.2201
 1260loPI   C4A20154   5.777   8.139   7.765  0.0293 -0.3484 -0.1011
 1260loPI   C5A20155   6.037   8.093   8.207  0.1878  0.0313  0.1818
 1260loPI   C6A20156   5.981   8.054   8.676 -0.1354 -0.3024  0.0306
 1260loPI   C1B20157   5.532   7.792   6.255 -0.1093  0.0903  0.0595
 1260loPI   C2B20158   5.600   7.800   6.663 -0.2461  0.1169 -0.1336
 1260loPI   C3B20159   5.586   7.834   7.125  0.3863  0.1028  0.0210
 1260loPI   C4B20160   5.551   7.756   7.592  0.0903  0.1113 -0.3110
 1261loPI    C120161   5.828   9.323   5.276 -0.1484 -0.1702  0.0181
 1261loPI    C220162   5.943   9.039   5.019 -0.0275  0.1058 -0.2396
 1261loPI    C320163   5.978   9.424   4.919  0.0880  0.2213  0.2222
 1261loPI   PO420164   5.922   9.290   5.509  0.2294 -0.1619 -0.1113
 1261loPI   GL120165   5.972   9.596   5.831 -0.0605  0.3401  0.2086
 1261loPI   GL220166   6.285   9.666   5.829  0.2114 -0.1347  0.4019
 1261loPI   C1A20167   5.833   9.710   6.325  0.3016  0.0819 -0.0048
 1261loPI   C2A20168   5.861   9.600   6.743 -0.0657 -0.0599  0.1920
 1261loPI   C3A20169   5.919   9.655   7.096 -0.0922 -0.0103  0.1461
 1261loPI   C4A20170   5.861   9.644   7.508  0.1462  0.4699 -0.1890
 1261loPI   C5A20171   5.837   9.581   7.941 -0.0010  0.0408  0.2931
 1261loPI   C6A20172   5.572   9.390   8.219 -0.1994 -0.0240 -0.3628
 1261loPI   C1B20173   6.333   9.595   6.302 -0.0682  0.2578  0.0251
 1261loPI   C2B20174   6.356   9.680   6.794 -0.2199 -0.0704  0.1214
 1261loPI   C3B20175   6.379   9.619   7.237  0.1299 -0.1168 -0.2890
 1261loPI   C4B20176   6.396   9.766   7.682 -0.0260  0.0602 -0.2150
 1262loPI    C120177   7.740   7.393   5.198 -0.0296  0.0717 -0.0318
 1262loPI    C220178   7.711   7.003   5.116  0.1677  0.0618 -0.0580
 1262loPI    C320179   7.947   7.238   4.894  0.0016  0.2087 -0.0813
 1262loPI   PO420180   7.783   7.410   5.426  0.3767  0.2050  0.1422
 1262loPI   GL120181   7.782   7.438   5.832  0.1507  0.2413  0.2628
 1262loPI   GL220182   7.471   7.494   5.942  0.1083  0.2101  0.2439
 1262loPI   C1A20183   7.903   7.644   6.178 -0.1266  0.2883 -0.0424
 1262loPI   C2A20184   8.049   7.717   6.619 -0.1967 -0.0079  0.0226
 1262loPI   C3A20185   7.939   7.693   7.100 -0.1221 -0.2141 -0.3248
 1262loPI   C4A20186   7.945   7.768   7.480  0.0955  0.0821 -0.0555
 1262loPI   C5A20187   7.822   7.569   7.971 -0.0041 -0.0518 -0.1486
 1262loPI   C6A20188   7.668   7.452   8.467  0.0370  0.2883  0.1064
 1262loPI   C1B20189   7.415   7.624   6.327  0.1143 -0.2466 -0.4002
 1262loPI   C2B20190   7.474   7.636   6.797  0.1746 -0.0229  0.3024
 1262loPI   C3B20191   7.414   7.572   7.262  0.0984 -0.3731  0.2967
 1262loPI   C4B20192   7.383   7.612   7.689 -0.2862  0.1806 -0.0272
 1263loPI    C120193   5.300   5.876   5.138 -0.0654  0.0369  0.0416
 1263loPI    C220194   5.159   5.625   4.860 -0.1361 -0.0394  0.1456
 1263loPI    C320195   4.922   5.909   5.012 -0.0910  0.0163  0.1126
 1263loPI   PO420196   5.381   5.761   5.381  0.1187 -0.0060  0.2461
 1263loPI   GL120197   5.476   5.680   5.853 -0.1068  0.0279 -0.0510
 1263loPI   GL220198   5.319   5.892   5.955 -0.1103  0.1592 -0.2631
 1263loPI   C1A20199   5.673   5.605   6.322  0.0994  0.2331  0.1907
 1263loPI   C2A20200   5.574   5.522   6.711 -0.0244 -0.0217 -0.2636
 1263loPI   C3A20201   5.498   5.558   7.218  0.2004  0.0790 -0.0475
 1263loPI   C4A20202   5.543   5.481   7.666  0.1204 -0.1619 -0.2731
 1263loPI   C5A20203   5.727   5.802   7.952 -0.0244  0.0392  0.2043
 1263loPI   C6A20204   5.927   6.155   8.220 -0.0480 -0.0654  0.0764
 1263loPI   C1B20205   5.266   5.927   6.331  0.1485 -0.1673  0.0629
 1263loPI   C2B20206   5.337   5.960   6.758  0.0540  0.2536 -0.0633
 1263loPI   C3B20207   5.313   6.020   7.235  0.6979  0.0521 -0.0325
 1263loPI   C4B20208   5.229   5.892   7.659  0.1372 -0.1735 -0.0854
 1264loPI    C120209  13.609   2.657   5.664  0.1325  0.1131  0.1804
 1264loPI    C220210  13.213   2.699   5.634  0.1216  0.0750  0.2683
 1264loPI    C320211  13.455   2.918   5.403  0.0425 -0.1608 -0.0463
 1264loPI   PO420212  13.636   2.581   5.929  0.0295 -0.1012 -0.0066
 1264loPI   GL120213  13.710   2.692   6.235 -0.1171 -0.1902 -0.0156
 1264loPI   GL220214  13.654   2.375   6.462 -0.0407 -0.0362  0.0801
 1264loPI   C1A20215  13.821   2.746   6.731 -0.1564  0.2543 -0.2394
 1264loPI   C2A20216  13.858   2.902   7.066  0.1052  0.0551  0.1640
 1264loPI   C3A20217  13.736   2.848   7.420  0.1025  0.2100  0.1427
 1264loPI   C4A20218  13.774   2.893   7.878  0.0652 -0.1376  0.2490
 1264loPI   C5A20219  13.875   2.911   8.337 -0.0793  0.0876  0.1155
 1264loPI   C6A20220  13.740   2.789   8.790 -0.0340 -0.0952  0.0535
 1264loPI   C1B20221  13.633   2.378   7.006  0.0931  0.0459  0.2818
 1264loPI   C2B20222  13.470   2.385   7.401 -0.0018  0.2136  0.0085
 1264loPI   C3B20223  13.567   2.462   7.852  0.0217  0.3961 -0.0559
 1264loPI   C4B20224  13.659   2.498   8.246 -0.3640 -0.0681  0.3832
 1265loPI    C120225  16.441   7.677   5.259 -0.1274 -0.2439  0.1034
 1265loPI    C220226  16.685   7.361   5.247  0.2733  0.0653 -0.2303
 1265loPI    C320227  16.482   7.469   4.920 -0.6038 -0.3901  0.1277
 1265loPI   PO420228  16.443   7.815   5.483  0.1245 -0.1271  0.2780
 1265loPI   GL120229  16.300   7.847   5.954  0.0523 -0.2024  0.0645
 1265loPI   GL220230  16.699   7.954   6.029  0.2351  0.2814  0.0621
 1265loPI   C1A20231  16.145   7.896   6.375  0.2312 -0.0018  0.2792
 1265loPI   C2A20232  16.157   7.859   6.761 -0.0369 -0.0046 -0.0555
 1265loPI   C3A20233  16.038   7.869   7.242  0.2444  0.0381  0.0589
 1265loPI   C4A20234  15.985   7.979   7.679 -0.0836  0.1223 -0.4583
 1265loPI   C5A20235  15.966   7.874   8.154  0.0160  0.0775 -0.0574
 1265loPI   C6A20236  15.978   8.034   8.577  0.0486  0.2999 -0.2953
 1265loPI   C1B20237  16.602   7.972   6.409 -0.1662 -0.2914  0.2826
 1265loPI   C2B20238  16.640   7.939   6.825 -0.0263  0.1450  0.2708
 1265loPI   C3B20239  16.562   7.988   7.228 -0.1347  0.0154 -0.2419
 1265loPI   C4B20240  16.537   8.009   7.689 -0.1041  0.0400 -0.1417
 1266loPI    C120241   0.378   7.615   5.375  0.0557  0.0427 -0.1575
 1266loPI    C220242   0.524   7.988   5.368  0.0184  0.0556 -0.2678
 1266loPI    C320243   0.132   7.925   5.319 -0.0116  0.0191  0.0011
 1266loPI   PO420244   0.477   7.514   5.600 -0.1112  0.0869  0.0774
 1266loPI   GL120245   0.568   7.524   6.012  0.1302  0.2820 -0.1882
 1266loPI   GL220246   0.249   7.462   5.999  0.0566 -0.1777  0.1014
 1266loPI   C1A20247   0.690   7.763   6.456  0.0111  0.0394  0.0164
 1266loPI   C2A20248   0.702   7.802   6.853  0.3444  0.0871 -0.1610
 1266loPI   C3A20249   0.647   7.733   7.235 -0.2432  0.4855 -0.2811
 1266loPI   C4A20250   0.650   7.748   7.769  0.0199 -0.2280  0.0516
 1266loPI   C5A20251   0.627   7.655   8.182  0.1631  0.0105 -0.0299
 1266loPI   C6A20252   0.600   7.394   8.560  0.3207  0.1394  0.3774
 1266loPI   C1B20253   0.234   6.981   6.124 -0.1834  0.1841  0.0992
 1266loPI   C2B20254   0.213   6.765   6.520 -0.0837  0.0672  0.0787
 1266loPI   C3B20255   0.274   6.751   6.962 -0.0290  0.1073 -0.0955
 1266loPI   C4B20256   0.272   6.857   7.376 -0.0135 -0.2187  0.0723
 1267loPI    C120257   1.072  13.122   5.486 -0.0471 -0.1862  0.0702
 1267loPI    C220258   0.912  13.386   5.232  0.3680 -0.0368 -0.0446
 1267loPI    C320259   1.028  13.027   5.100  0.1482 -0.1391  0.0352
 1267loPI   PO420260   1.222  13.250   5.673 -0.2591  0.0035 -0.0292
 1267loPI   GL120261   1.295  13.239   6.029 -0.3383  0.2349 -0.1287
 1267loPI   GL220262   1.406  12.881   5.971  0.0741 -0.0100 -0.0234
 1267loPI   C1A20263   1.573  13.217   6.439 -0.0695  0.1000 -0.1375
 1267loPI   C2A20264   1.628  13.128   6.885  0.2767  0.0165 -0.4506
 1267loPI   C3A20265   1.446  13.212   7.341  0.0979 -0.1988 -0.1041
 1267loPI   C4A20266   1.527  13.188   7.688 -0.2241 -0.0946  0.2239
 1267loPI   C5A20267   1.591  13.179   8.116  0.0561  0.3145 -0.3663
 1267loPI   C6A20268   1.861  12.903   8.473 -0.1225  0.3433  0.1798
 1267loPI   C1B20269   1.395  12.779   6.424  0.0239  0.0065 -0.0925
 1267loPI   C2B20270   1.350  12.717   6.827  0.2285 -0.0657  0.0194
 1267loPI   C3B20271   1.292  12.733   7.238 -0.0707 -0.0009  0.2244
 1267loPI   C4B20272   1.295  12.707   7.625  0.2120  0.1741 -0.2000
 1268loPI    C120273   0.089  10.394   5.449 -0.0370  0.2121  0.1377
 1268loPI    C220274  -0.063  10.712   5.262 -0.1048  0.1039  0.0074
 1268loPI    C320275   0.074  10.402   5.050 -0.0550  0.0388  0.1340
 1268loPI   PO420276  -0.001  10.359   5.684  0.0363  0.0213  0.1462
 1268loPI   GL120277  -0.054  10.242   6.110 -0.1663  0.2654  0.2828
 1268loPI   GL220278   0.218  10.374   6.121  0.0255  0.0972 -0.1835
 1268loPI   C1A20279   0.185   9.956   6.314  0.1647 -0.2188  0.0316
 1268loPI   C2A20280   0.300   9.936   6.785  0.0859 -0.0146 -0.3357
 1268loPI   C3A20281   0.143   9.921   7.182  0.0331 -0.1757  0.3200
 1268loPI   C4A20282   0.088   9.943   7.668 -0.0900 -0.1551  0.1374
 1268loPI   C5A20283   0.067   9.968   8.018  0.1383  0.0835 -0.0497
 1268loPI   C6A20284   0.049   9.586   8.235 -0.0772 -0.1481  0.2057
 1268loPI   C1B20285   0.351  10.414   6.532 -0.3394  0.0394 -0.0000
 1268loPI   C2B20286   0.392  10.407   6.988 -0.2311  0.1661 -0.2073
 1268loPI   C3B20287   0.356  10.461   7.407  0.1921  0.0418 -0.2350
 1268loPI   C4B20288   0.231  10.382   7.887 -0.0773  0.1239 -0.0628
 1269loPI    C120289   9.277   5.966   5.330  0.0257 -0.1131  0.0304
 1269loPI    C220290   9.481   6.235   5.545 -0.0575  0.0672 -0.1131
 1269loPI    C320291   9.334   6.336   5.186  0.0112 -0.2064 -0.2207
 1269loPI   PO420292   9.158   5.836   5.481  0.0357  0.0628  0.0903
 1269loPI   GL120293   9.273   5.682   5.884 -0.1909 -0.1033  0.1757
 1269loPI   GL220294   8.976   5.598   6.051 -0.3166 -0.4358  0.1401
 1269loPI   C1A20295   9.486   5.679   6.292 -0.1430  0.2534 -0.0462
 1269loPI   C2A20296   9.533   5.627   6.822 -0.1367 -0.2276  0.0253
 1269loPI   C3A20297   9.494   5.650   7.236 -0.0119  0.2771  0.1212
 1269loPI   C4A20298   9.398   5.642   7.637 -0.2060 -0.0267 -0.0185
 1269loPI   C5A20299   9.403   5.663   8.117  0.0725  0.0252 -0.3165
 1269loPI   C6A20300   9.031   5.450   8.321 -0.4165  0.2474 -0.1491
 1269loPI   C1B20301   9.005   5.524   6.465 -0.0179  0.0120 -0.2018
 1269loPI   C2B20302   9.031   5.562   6.894 -0.1447 -0.0579  0.1711
 1269loPI   C3B20303   8.935   5.586   7.339  0.0725 -0.1165  0.1320
 1269loPI   C4B20304   8.909   5.572   7.809  0.1049  0.1051 -0.2447
 1270loPI    C120305   9.188   3.994   5.316  0.2578 -0.0309  0.3084
 1270loPI    C220306   9.087   3.845   4.959 -0.0321  0.0879  0.3384
 1270loPI    C320307   9.469   3.840   5.077  0.0542 -0.0244  0.0612
 1270loPI   PO420308   9.028   3.914   5.490 -0.0384  0.1782 -0.0087
 1270loPI   GL120309   9.101   3.861   5.870 -0.0438  0.2020  0.0672
 1270loPI   GL220310   8.861   4.118   5.888  0.3622 -0.0284  0.3269
 1270loPI   C1A20311   9.318   3.720   6.228 -0.1823  0.2120  0.0963
 1270loPI   C2A20312   9.251   3.841   6.641 -0.0025  0.0711 -0.0701
 1270loPI   C3A20313   9.266   3.839   7.090 -0.0583 -0.3109 -0.1624
 1270loPI   C4A20314   9.312   3.834   7.566 -0.1038 -0.1887  0.1872
 1270loPI   C5A20315   9.334   3.769   8.029 -0.1910 -0.3130 -0.0838
 1270loPI   C6A20316   9.332   3.904   8.447  0.0004  0.2768  0.1631
 1270loPI   C1B20317   8.916   4.084   6.279 -0.0175 -0.2832 -0.0185
 1270loPI   C2B20318   8.896   4.220   6.773  0.0535 -0.0395 -0.0974
 1270loPI   C3B20319   8.967   4.265   7.216  0.0736  0.0690  0.0170
 1270loPI   C4B20320   8.962   4.184   7.675 -0.0141  0.2549  0.0871
 1271loPI    C120321   3.658  12.330   5.614  0.0729  0.1558 -0.1426
 1271loPI    C220322   3.560  11.965   5.484 -0.0412  0.1242  0.0285
 1271loPI    C320323   3.635  12.257   5.221  0.0082 -0.0102 -0.1087
 1271loPI   PO420324   3.766  12.283   5.873  0.0559  0.0228 -0.1815
 1271loPI   GL120325   3.555  12.252   6.335 -0.1819 -0.4599  0.1557
 1271loPI   GL220326   3.215  12.445   6.251 -0.1108  0.2514  0.2280
 1271loPI   C1A20327   3.469  12.199   6.792  0.0107  0.3785  0.2667
 1271loPI   C2A20328   3.457  12.090   7.173  0.0995 -0.0783  0.0426
 1271loPI   C3A20329   3.451  12.030   7.656  0.0988  0.3130 -0.2830
 1271loPI   C4A20330   3.389  11.939   8.054 -0.1632 -0.2861  0.3443
 1271loPI   C5A20331   3.554  12.069   8.368 -0.0705  0.1211 -0.0233
 1271loPI   C6A20332   3.373  12.096   8.700  0.2697 -0.2457 -0.1220
 1271loPI   C1B20333   3.185  12.623   6.624  0.1171  0.2004  0.2980
 1271loPI   C2B20334   3.206  12.598   6.992  0.1648  0.0852 -0.2483
 1271loPI   C3B20335   3.186  12.440   7.368  0.0910  0.1112  0.0318
 1271loPI   C4B20336   3.119  12.524   7.738  0.1005  0.0076 -0.1190
 1272loPI    C120337  15.074  10.397   5.796  0.3208 -0.0148  0.0117
 1272loPI    C220338  15.037  10.776   5.917 -0.1105 -0.0315 -0.0524
 1272loPI    C320339  15.103  10.695   5.531  0.1015 -0.0198 -0.0198
 1272loPI   PO420340  15.038  10.270   6.023 -0.2128 -0.2767  0.2479
 1272loPI   GL120341  14.998  10.492   6.403  0.1788  0.0935  0.0198
 1272loPI   GL220342  14.732  10.306   6.513  0.1317 -0.0959 -0.0892
 1272loPI   C1A20343  15.087  10.452   6.803 -0.1040 -0.1151  0.0902
 1272loPI   C2A20344  15.199  10.354   7.234 -0.0926  0.0900 -0.0085
 1272loPI   C3A20345  15.212  10.565   7.637  0.2797  0.1726 -0.0192
 1272loPI   C4A20346  15.301  10.540   8.047 -0.0196 -0.2346 -0.1212
 1272loPI   C5A20347  15.351  10.691   8.513 -0.0095  0.1228  0.2103
 1272loPI   C6A20348  15.491  10.337   8.743  0.0047 -0.1365 -0.1423
 1272loPI   C1B20349  14.718  10.270   7.026 -0.0810 -0.2350 -0.0735
 1272loPI   C2B20350  14.714  10.366   7.426  0.1835  0.0399 -0.1452
 1272loPI   C3B20351  14.760  10.471   7.945  0.1197  0.0185 -0.0070
 1272loPI   C4B20352  14.805  10.586   8.320 -0.3387  0.0619 -0.1076
 1273loPI    C120353  10.721   3.682   5.517  0.1268 -0.0583 -0.0106
 1273loPI    C220354  11.089   3.663   5.672  0.0763  0.1389  0.1360
 1273loPI    C320355  11.006   3.471   5.331  0.2650 -0.0586  0.1991
 1273loPI   PO420356  10.593   3.618   5.777 -0.0102  0.1529  0.0747
 1273loPI   GL120357  10.596   3.564   6.215 -0.0586  0.3645  0.2771
 1273loPI   GL220358  10.529   3.273   6.118  0.3332  0.0329 -0.0497
 1273loPI   C1A20359  10.555   3.507   6.663  0.1895 -0.3708  0.1288
 1273loPI   C2A20360  10.546   3.427   7.141  0.6233 -0.0067  0.1624
 1273loPI   C3A20361  10.541   3.536   7.618  0.1961 -0.2171  0.1908
 1273loPI   C4A20362  10.627   3.773   8.076  0.0219  0.3811  0.1360
 1273loPI   C5A20363  10.708   3.822   8.498  0.1750  0.0885 -0.0081
 1273loPI   C6A20364  10.736   4.080   8.861 -0.0871  0.5431 -0.0454
 1273loPI   C1B20365  10.401   3.067   6.501 -0.1444  0.1917  0.0731
 1273loPI   C2B20366  10.317   2.984   6.906  0.1714  0.2830  0.1148
 1273loPI   C3B20367  10.296   2.811   7.365  0.1104  0.1386  0.0053
 1273loPI   C4B20368  10.238   2.927   7.793  0.2354 -0.0953  0.0046
 1274loPI    C120369   9.290  15.826   5.496  0.2313  0.0104 -0.2457
 1274loPI    C220370   9.009  16.038   5.305  0.0024 -0.0696 -0.0034
 1274loPI    C320371   9.372  15.996   5.143 -0.0628  0.1991 -0.2273
 1274loPI   PO420372   9.241  15.893   5.737  0.0265 -0.0938 -0.0763
 1274loPI   GL120373   9.393  15.769   6.105  0.1698  0.0286 -0.3942
 1274loPI   GL220374   9.644  15.697   6.262  0.0159  0.4013  0.1339
 1274loPI   C1A20375   9.214  15.608   6.525 -0.0626 -0.3073 -0.2783
 1274loPI   C2A20376   9.175  15.605   6.929  0.1469 -0.0396 -0.1205
 1274loPI   C3A20377   9.125  15.586   7.357 -0.0520  0.2524 -0.0985
 1274loPI   C4A20378   9.195  15.548   7.829  0.0967  0.1691  0.2141
 1274loPI   C5A20379   9.032  15.627   8.226 -0.0201  0.1843 -0.1029
 1274loPI   C6A20380   8.804  15.972   8.446  0.0176 -0.1002  0.3794
 1274loPI   C1B20381   9.681  15.688   6.751  0.2139  0.1214 -0.1469
 1274loPI   C2B20382   9.681  15.676   7.176  0.3240 -0.2580 -0.1557
 1274loPI   C3B20383   9.623  15.623   7.608  0.2387  0.2636 -0.0173
 1274loPI   C4B20384   9.664  15.605   8.006  0.1851  0.1568  0.2509
 1275loPI    C120385   9.056   2.392   5.645 -0.1998 -0.1579  0.0846
 1275loPI    C220386   8.798   2.430   5.341 -0.1750  0.2332  0.1069
 1275loPI    C320387   9.143   2.633   5.337 -0.0134 -0.0328  0.2330
 1275loPI   PO420388   8.931   2.370   5.840  0.1969  0.1114  0.1830
 1275loPI   GL120389   8.749   2.694   6.106 -0.2867 -0.1875  0.0259
 1275loPI   GL220390   8.905   2.804   6.343  0.0922  0.2887  0.1439
 1275loPI   C1A20391   8.662   2.342   6.426 -0.1562 -0.3397  0.2179
 1275loPI   C2A20392   8.644   2.292   6.862 -0.2345  0.0555  0.2403
 1275loPI   C3A20393   8.655   2.470   7.264 -0.5281  0.2307  0.4945
 1275loPI   C4A20394   8.610   2.384   7.611  0.0145  0.1688 -0.2353
 1275loPI   C5A20395   8.530   2.255   8.048 -0.4860 -0.1846  0.3427
 1275loPI   C6A20396   8.109   2.211   8.277 -0.0718 -0.0789 -0.0403
 1275loPI   C1B20397   8.817   2.848   6.787 -0.0330 -0.0140  0.0094
 1275loPI   C2B20398   8.802   2.880   7.246 -0.2671 -0.3228  0.3235
 1275loPI   C3B20399   8.784   2.855   7.729 -0.2548  0.2561  0.1687
 1275loPI   C4B20400   8.792   2.743   8.125  0.4307  0.0915 -0.0399
 1276loPI    C120401  11.292  17.055   5.565  0.2667  0.0763 -0.1032
 1276loPI    C220402  11.051  17.361   5.471 -0.1170 -0.1766  0.0356
 1276loPI    C320403  11.392  17.305   5.269 -0.0004  0.3858  0.0619
 1276loPI   PO420404  11.290  17.078   5.876 -0.0781  0.1808 -0.1431
 1276loPI   GL120405  11.268  16.851   6.229 -0.1428  0.1027 -0.0024
 1276loPI   GL220406  10.970  17.083   6.295 -0.3633  0.0747  0.4085
 1276loPI   C1A20407  11.104  16.834   6.728 -0.0333 -0.0823  0.0269
 1276loPI   C2A20408  11.060  16.824   7.220 -0.2908 -0.0099  0.3611
 1276loPI   C3A20409  11.039  16.710   7.619  0.0733  0.2400 -0.1530
 1276loPI   C4A20410  10.955  16.733   8.075  0.1000 -0.0773 -0.3269
 1276loPI   C5A20411  11.010  16.592   8.410 -0.1694  0.0255  0.2097
 1276loPI   C6A20412  10.879  16.294   8.675 -0.0745 -0.1004  0.1702
 1276loPI   C1B20413  10.859  17.309   6.644 -0.3420 -0.0435 -0.1572
 1276loPI   C2B20414  10.816  17.213   7.018  0.1224 -0.0067  0.2935
 1276loPI   C3B20415  10.719  17.071   7.481 -0.0081 -0.0446  0.2387
 1276loPI   C4B20416  10.649  17.139   7.867 -0.0184  0.1093 -0.1115
 1277loPI    C120417   5.284   0.579   5.387 -0.0504  0.1297 -0.0238
 1277loPI    C220418   5.187   0.896   5.162 -0.0498  0.1684  0.0303
 1277loPI    C320419   5.551   0.732   5.131 -0.1940 -0.0989 -0.3168
 1277loPI   PO420420   5.305   0.630   5.686  0.0068  0.1401  0.0459
 1277loPI   GL120421   5.279   0.930   5.973 -0.0362 -0.1181  0.0905
 1277loPI   GL220422   4.984   0.631   6.129 -0.0723  0.0608  0.0194
 1277loPI   C1A20423   5.166   1.054   6.277  0.2449  0.1665  0.0209
 1277loPI   C2A20424   5.137   1.022   6.727 -0.1757 -0.1702 -0.0923
 1277loPI   C3A20425   5.127   1.056   7.148 -0.1852 -0.0606 -0.0302
 1277loPI   C4A20426   5.203   0.971   7.654 -0.0906  0.0218 -0.2622
 1277loPI   C5A20427   5.208   0.863   8.145  0.1128 -0.0410  0.0497
 1277loPI   C6A20428   4.995   1.119   8.492  0.1097 -0.0905 -0.0134
 1277loPI   C1B20429   4.934   0.570   6.526  0.2854  0.0597 -0.0091
 1277loPI   C2B20430   4.917   0.482   6.902  0.0130 -0.1252 -0.0990
 1277loPI   C3B20431   4.986   0.600   7.351 -0.1270 -0.1431  0.1810
 1277loPI   C4B20432   4.971   0.483   7.823 -0.4325 -0.0000  0.1423
 1278loPI    C120433  15.107   2.135   5.498  0.0238  0.0242  0.0462
 1278loPI    C220434  14.941   1.788   5.390  0.0700 -0.0016  0.0576
 1278loPI    C320435  15.311   1.879   5.268 -0.0092  0.1227 -0.0938
 1278loPI   PO420436  15.085   2.145   5.759 -0.4459  0.0463 -0.0276
 1278loPI   GL120437  14.890   2.215   6.105 -0.0357  0.1277 -0.2040
 1278loPI   GL220438  14.897   2.053   6.272 -0.0101  0.1626 -0.1295
 1278loPI   C1A20439  14.643   2.487   6.481 -0.0142 -0.2738  0.1147
 1278loPI   C2A20440  14.659   2.476   6.919 -0.2256 -0.2063 -0.1880
 1278loPI   C3A20441  14.628   2.473   7.349 -0.2598  0.2977  0.1683
 1278loPI   C4A20442  14.669   2.506   7.811  0.0555 -0.0110  0.1862
 1278loPI   C5A20443  14.631   2.405   8.231 -0.0213 -0.4106 -0.0356
 1278loPI   C6A20444  14.558   2.465   8.638  0.2158  0.2846 -0.3559
 1278loPI   C1B20445  14.967   2.120   6.714  0.0038 -0.0410  0.3805
 1278loPI   C2B20446  14.903   2.071   7.208 -0.1484 -0.4287  0.0065
 1278loPI   C3B20447  15.031   2.134   7.628  0.0204 -0.0425  0.2830
 1278loPI   C4B20448  14.906   2.058   7.996 -0.0561 -0.2261 -0.0970
 1279loPI    C120449  17.171   5.998   5.400 -0.2048 -0.1393 -0.1024
 1279loPI    C220450  17.466   5.787   5.232  0.0289  0.0876  0.0170
 1279loPI    C320451  17.335   6.122   5.057 -0.2023 -0.0451 -0.0676
 1279loPI   PO420452  17.171   6.063   5.618 -0.0979 -0.2548 -0.0101
 1279loPI   GL120453  16.933   6.004   5.942  0.0543 -0.1043 -0.1954
 1279loPI   GL220454  16.706   6.144   5.984  0.0323 -0.0836  0.0431
 1279loPI   C1A20455  17.206   5.848   6.187 -0.0654 -0.1626 -0.0571
 1279loPI   C2A20456  17.127   5.846   6.703 -0.0817  0.0653 -0.4020
 1279loPI   C3A20457  17.098   5.852   7.124  0.0184 -0.0402  0.1298
 1279loPI   C4A20458  17.005   5.849   7.552 -0.1584  0.0873 -0.1827
 1279loPI   C5A20459  17.134   6.045   7.942  0.1458  0.1112 -0.2340
 1279loPI   C6A20460  17.076   5.986   8.371  0.1102  0.1717 -0.0060
 1279loPI   C1B20461  16.832   6.197   6.436 -0.3137 -0.2261  0.3090
 1279loPI   C2B20462  16.843   6.211   6.882  0.1930 -0.2003  0.0285
 1279loPI   C3B20463  16.798   6.285   7.308 -0.1428  0.0663  0.2286
 1279loPI   C4B20464  16.767   6.326   7.669 -0.2522  0.1478  0.1297
 1280loPI    C120465  11.534  15.098   5.584  0.4021 -0.1461  0.0257
 1280loPI    C220466  11.790  15.360   5.423  0.1801  0.0979  0.0648
 1280loPI    C320467  11.407  15.358   5.308  0.1829 -0.2213  0.0544
 1280loPI   PO420468  11.576  15.073   5.805  0.0774  0.1315 -0.0098
 1280loPI   GL120469  11.686  15.057   6.184  0.0351  0.1395 -0.0686
 1280loPI   GL220470  11.570  14.805   6.240 -0.3629 -0.2812 -0.1972
 1280loPI   C1A20471  11.892  15.186   6.509  0.3164  0.0427 -0.1457
 1280loPI   C2A20472  11.845  15.029   6.936 -0.0456 -0.1053 -0.1447
 1280loPI   C3A20473  11.846  15.019   7.362  0.0620  0.0649  0.0503
 1280loPI   C4A20474  11.858  15.001   7.802 -0.3495 -0.0332 -0.1489
 1280loPI   C5A20475  11.754  14.894   8.199  0.1264  0.2099  0.0838
 1280loPI   C6A20476  11.497  14.670   8.450  0.5598 -0.2230  0.0936
 1280loPI   C1B20477  11.633  14.685   6.641 -0.2000  0.1908 -0.0095
 1280loPI   C2B20478  11.627  14.608   7.146  0.0024  0.0401 -0.3202
 1280loPI   C3B20479  11.583  14.556   7.656 -0.0957  0.0855 -0.0970
 1280loPI   C4B20480  11.600  14.474   8.038  0.1078 -0.1147 -0.0993
 1281loPI    C120481  16.047   5.255   5.557  0.1909  0.1679 -0.0890
 1281loPI    C220482  15.976   5.389   5.186  0.0416 -0.0668 -0.1469
 1281loPI    C320483  16.281   5.140   5.254 -0.0109 -0.1287 -0.1365
 1281loPI   PO420484  16.089   5.387   5.753 -0.1740  0.0872  0.0958
 1281loPI   GL120485  16.299   5.378   6.147  0.1110 -0.0367  0.1208
 1281loPI   GL220486  16.109   5.585   6.392  0.1526 -0.1580 -0.0731
 1281loPI   C1A20487  16.447   5.266   6.507 -0.2436 -0.2175  0.5031
 1281loPI   C2A20488  16.314   5.312   7.003 -0.0627  0.1019  0.0298
 1281loPI   C3A20489  16.367   5.370   7.417  0.1444  0.1631  0.0811
 1281loPI   C4A20490  16.448   5.346   7.826 -0.3740  0.0315  0.0240
 1281loPI   C5A20491  16.508   5.286   8.304 -0.0642  0.0595 -0.0581
 1281loPI   C6A20492  16.649   5.373   8.682 -0.2523 -0.3505 -0.0684
 1281loPI   C1B20493  16.139   5.734   6.799 -0.1727 -0.1079  0.0823
 1281loPI   C2B20494  16.070   5.761   7.309  0.1133 -0.0384  0.0775
 1281loPI   C3B20495  16.122   5.735   7.824  0.0150 -0.0560  0.2313
 1281loPI   C4B20496  16.231   5.675   8.184 -0.0692 -0.0207 -0.1551
 1282loPI    C120497  17.366  17.475   5.382  0.0914 -0.1293 -0.2112
 1282loPI    C220498  17.009  17.295   5.377  0.0374 -0.0299 -0.0462
 1282loPI    C320499  17.100  17.566   5.097 -0.0516  0.0110 -0.0359
 1282loPI   PO420500  17.316  17.548   5.665  0.1197 -0.1859  0.0185
 1282loPI   GL120501  17.448  17.403   6.047 -0.0678  0.0134  0.0618
 1282loPI   GL220502  17.449  17.786   6.092 -0.1766  0.2664 -0.3470
 1282loPI   C1A20503  17.328  17.265   6.376 -0.1096 -0.3266  0.0943
 1282loPI   C2A20504  17.161  17.386   6.845 -0.3838 -0.0423 -0.0270
 1282loPI   C3A20505  17.174  17.389   7.272 -0.0145  0.0166 -0.0149
 1282loPI   C4A20506  17.188  17.351   7.685 -0.3130  0.0333 -0.0086
 1282loPI   C5A20507  17.179  17.362   8.070 -0.0215 -0.0894  0.0482
 1282loPI   C6A20508  17.416  17.116   8.392 -0.1734  0.0059  0.0191
 1282loPI   C1B20509  17.385  17.851   6.505  0.0829 -0.2525 -0.1715
 1282loPI   C2B20510  17.372  17.832   6.917 -0.0860 -0.0602 -0.1243
 1282loPI   C3B20511  17.409  17.802   7.417 -0.0018 -0.0452 -0.1093
 1282loPI   C4B20512  17.417  17.835   7.906 -0.0557  0.1038 -0.0567
 1283loPI    C120513   4.561  10.439   5.098  0.0359  0.1995 -0.0276
 1283loPI    C220514   4.197  10.541   4.967 -0.0394 -0.0353 -0.0058
 1283loPI    C320515   4.414  10.272   4.765  0.0691  0.0080  0.0524
 1283loPI   PO420516   4.451  10.393   5.374 -0.0165 -0.0506 -0.3023
 1283loPI   GL120517   4.176  10.270   5.685  0.2910  0.1622 -0.3914
 1283loPI   GL220518   4.112  10.092   5.869 -0.0163 -0.1436 -0.1960
 1283loPI   C1A20519   4.299  10.465   6.135 -0.1073 -0.0030  0.1149
 1283loPI   C2A20520   4.285  10.425   6.638 -0.1253 -0.3330  0.0572
 1283loPI   C3A20521   4.188  10.493   7.048 -0.1776 -0.1123  0.1830
 1283loPI   C4A20522   4.210  10.390   7.467 -0.3168 -0.2108 -0.0711
 1283loPI   C5A20523   4.095  10.174   7.788  0.1138  0.1137 -0.0558
 1283loPI   C6A20524   3.863   9.784   8.025  0.3597 -0.4109 -0.1716
 1283loPI   C1B20525   4.135   9.945   6.236  0.0609  0.3386  0.0675
 1283loPI   C2B20526   4.087   9.895   6.630  0.1704 -0.0669 -0.1247
 1283loPI   C3B20527   3.987   9.986   6.988  0.1221  0.1657  0.2976
 1283loPI   C4B20528   3.992   9.922   7.377  0.4213  0.1653  0.2729
 1284loPI    C120529  13.502   3.415   6.154  0.2180  0.1252 -0.0173
 1284loPI    C220530  13.727   3.164   5.939  0.0509 -0.0284 -0.0150
 1284loPI    C320531  13.367   3.275   5.804  0.0387  0.0494  0.0811
 1284loPI   PO420532  13.492   3.311   6.436  0.1134  0.2089  0.2276
 1284loPI   GL120533  13.541   3.138   6.826  0.1032  0.1110 -0.0037
 1284loPI   GL220534  13.371   3.434   6.864  0.1638  0.3925  0.0493
 1284loPI   C1A20535  13.272   2.901   7.094 -0.2648 -0.0397 -0.1447
 1284loPI   C2A20536  12.839   2.897   7.326 -0.1406  0.0236 -0.3127
 1284loPI   C3A20537  12.677   2.880   7.798 -0.0111 -0.1786  0.1079
 1284loPI   C4A20538  12.764   2.772   8.240  0.0191  0.1103 -0.0822
 1284loPI   C5A20539  12.556   2.746   8.667 -0.1094  0.0203 -0.0298
 1284loPI   C6A20540  12.184   2.841   8.718  0.1223  0.0091 -0.0135
 1284loPI   C1B20541  13.092   3.459   7.227  0.0500 -0.4682  0.0023
 1284loPI   C2B20542  12.914   3.459   7.618  0.2249  0.2298  0.1347
 1284loPI   C3B20543  13.032   3.317   7.979  0.0236  0.1534 -0.0299
 1284loPI   C4B20544  13.027   3.200   8.454  0.0803  0.0238  0.0524
 1285loPI    C120545   1.356  11.544   5.449 -0.1491 -0.0004 -0.0196
 1285loPI    C220546   1.598  11.483   5.136  0.1998  0.1039  0.2243
 1285loPI    C320547   1.296  11.744   5.108  0.1123 -0.0267 -0.0831
 1285loPI   PO420548   1.515  11.427   5.660  0.3608  0.3454  0.3074
 1285loPI   GL120549   1.638  11.392   6.110  0.1268  0.2784 -0.0909
 1285loPI   GL220550   1.926  11.474   6.343 -0.0873  0.1427  0.3338
 1285loPI   C1A20551   1.585  11.067   6.457 -0.1577 -0.3046 -0.1254
 1285loPI   C2A20552   1.528  10.975   6.941 -0.1976 -0.1430 -0.2200
 1285loPI   C3A20553   1.516  10.948   7.410  0.0929 -0.2103 -0.1108
 1285loPI   C4A20554   1.531  10.923   7.904  0.0098 -0.0395 -0.0170
 1285loPI   C5A20555   1.504  10.786   8.295  0.3161 -0.1431  0.0194
 1285loPI   C6A20556   1.410  10.639   8.790 -0.2063 -0.0347  0.0319
 1285loPI   C1B20557   1.700  11.445   6.788 -0.0093 -0.0492  0.1371
 1285loPI   C2B20558   1.675  11.362   7.226 -0.1282 -0.2391 -0.1803
 1285loPI   C3B20559   1.685  11.413   7.660 -0.0932  0.1570 -0.0036
 1285loPI   C4B20560   1.662  11.331   8.124 -0.3638  0.0558  0.1482
 1286loPI    C120561  15.772   8.189   5.364 -0.3157  0.0811 -0.2025
 1286loPI    C220562  15.994   7.895   5.209 -0.1208 -0.0027  0.2226
 1286loPI    C320563  15.975   8.249   5.025 -0.1015 -0.1777 -0.1236
 1286loPI   PO420564  15.731   8.106   5.592 -0.0801 -0.3770 -0.0984
 1286loPI   GL120565  15.886   8.190   5.972 -0.2020  0.0062 -0.3155
 1286loPI   GL220566  15.783   7.921   6.068  0.5125  0.0762 -0.0480
 1286loPI   C1A20567  15.849   8.341   6.444  0.0279  0.3112  0.1342
 1286loPI   C2A20568  15.842   8.317   6.952 -0.1265  0.0610 -0.0370
 1286loPI   C3A20569  15.717   8.334   7.404 -0.3305  0.2150  0.1205
 1286loPI   C4A20570  15.722   8.350   7.814  0.0290 -0.2677 -0.0620
 1286loPI   C5A20571  15.798   8.397   8.234  0.1707 -0.0319  0.0825
 1286loPI   C6A20572  15.494   8.055   8.388  0.4460  0.0868  0.1270
 1286loPI   C1B20573  15.608   7.875   6.474 -0.0546  0.2862  0.2345
 1286loPI   C2B20574  15.643   7.871   6.902 -0.1813 -0.0971 -0.2195
 1286loPI   C3B20575  15.518   7.862   7.387  0.1047  0.0381 -0.1196
 1286loPI   C4B20576  15.522   7.894   7.789 -0.0247 -0.2150 -0.0168
 1287loPI    C120577   4.785   9.473   5.258 -0.0566  0.1098  0.0375
 1287loPI    C220578   4.936   9.537   4.893 -0.2518 -0.1206 -0.0866
 1287loPI    C320579   4.596   9.330   4.935 -0.3698  0.1258  0.2094
 1287loPI   PO420580   4.921   9.595   5.390  0.2164 -0.4906 -0.0101
 1287loPI   GL120581   4.976   9.814   5.780 -0.0288 -0.1485 -0.2266
 1287loPI   GL220582   4.926   9.519   5.909  0.0256  0.2450 -0.3680
 1287loPI   C1A20583   5.016  10.028   6.176 -0.1862 -0.1861  0.1307
 1287loPI   C2A20584   4.995  10.039   6.618  0.0548 -0.0222  0.2451
 1287loPI   C3A20585   5.070   9.987   7.085  0.0747  0.1858  0.2229
 1287loPI   C4A20586   4.965   9.910   7.542 -0.1079  0.1846 -0.1016
 1287loPI   C5A20587   4.900   9.856   7.889 -0.0674 -0.0129  0.0553
 1287loPI   C6A20588   5.077   9.518   8.261  0.2317 -0.0295  0.2152
 1287loPI   C1B20589   4.995   9.467   6.271 -0.1107 -0.1554 -0.1685
 1287loPI   C2B20590   4.893   9.578   6.723  0.2046  0.0459 -0.2995
 1287loPI   C3B20591   4.900   9.499   7.147  0.0408  0.1704 -0.0935
 1287loPI   C4B20592   4.756   9.419   7.686  0.0260  0.0232  0.5098
 1288loPI    C120593  15.802   0.919   5.306 -0.0933 -0.0591 -0.0516
 1288loPI    C220594  15.922   1.183   5.031  0.0395 -0.1229 -0.0563
 1288loPI    C320595  15.549   1.038   5.021 -0.1756  0.3880  0.1996
 1288loPI   PO420596  15.841   1.101   5.608  0.1106  0.0036 -0.1108
 1288loPI   GL120597  15.610   1.244   5.957 -0.1297  0.0635 -0.5141
 1288loPI   GL220598  15.386   0.948   6.035 -0.1142  0.0536 -0.2057
 1288loPI   C1A20599  15.530   1.227   6.379 -0.2241 -0.2735 -0.0562
 1288loPI   C2A20600  15.560   1.263   6.832  0.0305  0.0193  0.0562
 1288loPI   C3A20601  15.527   1.314   7.336 -0.0762  0.2625 -0.0763
 1288loPI   C4A20602  15.473   1.218   7.690 -0.1260 -0.1638 -0.0871
 1288loPI   C5A20603  15.407   1.308   8.118 -0.1703 -0.0685  0.1710
 1288loPI   C6A20604  15.168   1.667   8.274 -0.2199  0.1898 -0.1937
 1288loPI   C1B20605  15.302   0.730   6.592 -0.2683 -0.3097  0.0474
 1288loPI   C2B20606  15.356   0.775   7.069  0.0785  0.1628  0.2109
 1288loPI   C3B20607  15.320   0.770   7.504 -0.0197 -0.2569 -0.0626
 1288loPI   C4B20608  15.231   0.852   7.951 -0.1593 -0.1581 -0.1397
 1289loPI    C120609   0.018   2.439   5.270 -0.0366 -0.0260  0.1195
 1289loPI    C220610  -0.094   2.059   5.325 -0.2669  0.0185 -0.0283
 1289loPI    C320611   0.239   2.141   5.119 -0.0259 -0.1107  0.2989
 1289loPI   PO420612  -0.242   2.552   5.540  0.1424 -0.1445 -0.0758
 1289loPI   GL120613  -0.374   2.534   6.007  0.0192  0.0788  0.0490
 1289loPI   GL220614  -0.138   2.313   6.126 -0.2017 -0.3488  0.1480
 1289loPI   C1A20615  -0.511   2.808   6.383 -0.1327  0.2195 -0.2507
 1289loPI   C2A20616  -0.441   2.708   6.782 -0.0644  0.0065 -0.0315
 1289loPI   C3A20617  -0.541   2.698   7.243  0.1868 -0.1583 -0.3551
 1289loPI   C4A20618  -0.565   2.866   7.670  0.0771 -0.1552  0.1515
 1289loPI   C5A20619  -0.480   2.726   8.103 -0.0541 -0.0401  0.0567
 1289loPI   C6A20620  -0.248   2.568   8.396 -0.0978  0.0032  0.2847
 1289loPI   C1B20621  -0.232   2.289   6.555  0.1688 -0.0543  0.1662
 1289loPI   C2B20622  -0.271   2.300   7.043 -0.2739 -0.0303 -0.1040
 1289loPI   C3B20623  -0.301   2.395   7.529 -0.0523 -0.0740  0.3821
 1289loPI   C4B20624  -0.311   2.288   7.887 -0.2007 -0.0626 -0.1756
 1290loPI    C120625   6.828   0.696   5.271  0.0331 -0.3213  0.1002
 1290loPI    C220626   6.980   0.676   4.901  0.2140  0.0546  0.1500
 1290loPI    C320627   6.626   0.508   4.981  0.1158  0.0748 -0.2238
 1290loPI   PO420628   6.720   0.932   5.516 -0.2279 -0.1006 -0.1774
 1290loPI   GL120629   6.735   0.831   5.959 -0.0822 -0.1856  0.0189
 1290loPI   GL220630   6.574   0.544   6.071  0.3292 -0.0520  0.2507
 1290loPI   C1A20631   6.963   0.786   6.289  0.0778  0.1115  0.1829
 1290loPI   C2A20632   6.963   0.768   6.712 -0.0113  0.0246  0.0190
 1290loPI   C3A20633   6.925   0.725   7.184  0.1891 -0.3154  0.1258
 1290loPI   C4A20634   6.966   0.820   7.518 -0.0742  0.3341  0.2666
 1290loPI   C5A20635   7.004   0.861   7.929  0.0974  0.0179  0.1938
 1290loPI   C6A20636   7.106   1.278   8.222 -0.0920  0.3152  0.2763
 1290loPI   C1B20637   6.470   0.733   6.524  0.0816 -0.2201  0.0632
 1290loPI   C2B20638   6.399   0.722   6.961  0.1662 -0.1821 -0.1850
 1290loPI   C3B20639   6.404   0.761   7.430 -0.2248  0.0529  0.0249
 1290loPI   C4B20640   6.450   0.632   7.944 -0.0389  0.0799 -0.0946
 1291loPI    C120641   4.891   1.644   5.198 -0.0632 -0.1099 -0.1271
 1291loPI    C220642   4.728   1.487   4.869  0.1071 -0.0968 -0.2187
 1291loPI    C320643   5.086   1.360   4.994  0.0543 -0.0838 -0.0524
 1291loPI   PO420644   4.767   1.510   5.402  0.0439  0.1540 -0.3198
 1291loPI   GL120645   4.607   1.697   5.907  0.1400 -0.0401 -0.2234
 1291loPI   GL220646   4.610   1.955   6.134 -0.0201  0.0115  0.1611
 1291loPI   C1A20647   4.737   1.519   6.216  0.0980  0.2526  0.2639
 1291loPI   C2A20648   4.852   1.426   6.701 -0.1700  0.1163 -0.1182
 1291loPI   C3A20649   4.850   1.474   7.102 -0.1133  0.0729 -0.0580
 1291loPI   C4A20650   4.939   1.420   7.512  0.3064 -0.2253 -0.0657
 1291loPI   C5A20651   4.944   1.440   7.896  0.1449  0.1947  0.2397
 1291loPI   C6A20652   4.663   1.520   8.368  0.2195 -0.4009 -0.0252
 1291loPI   C1B20653   4.608   1.941   6.597 -0.0881 -0.2244  0.1919
 1291loPI   C2B20654   4.565   1.936   7.020 -0.0124 -0.1413 -0.2508
 1291loPI   C3B20655   4.606   1.848   7.482  0.0626 -0.3086  0.2762
 1291loPI   C4B20656   4.660   1.894   7.916 -0.0966 -0.0367  0.0028
 1292loPI    C120657  12.629  16.400   5.761 -0.1008  0.3672 -0.0547
 1292loPI    C220658  12.416  16.310   5.434  0.0569 -0.0291 -0.0544
 1292loPI    C320659  12.681  16.610   5.425 -0.2155  0.2130 -0.1702
 1292loPI   PO420660  12.493  16.301   5.914 -0.3383  0.1058 -0.1538
 1292loPI   GL120661  12.206  16.083   6.174 -0.2569  0.0983  0.0004
 1292loPI   GL220662  12.154  15.702   6.219  0.3886  0.0316 -0.0380
 1292loPI   C1A20663  12.248  16.180   6.636 -0.2018 -0.2876 -0.0595
 1292loPI   C2A20664  12.257  16.018   7.070  0.1159  0.0881  0.1121
 1292loPI   C3A20665  12.209  15.989   7.470 -0.2816  0.0812 -0.0996
 1292loPI   C4A20666  12.216  15.973   7.828 -0.2106  0.0905 -0.0588
 1292loPI   C5A20667  12.259  15.855   8.206  0.0900  0.0707  0.1526
 1292loPI   C6A20668  12.047  16.019   8.557 -0.0333 -0.1274  0.0483
 1292loPI   C1B20669  12.094  15.716   6.652 -0.1363 -0.0817  0.0527
 1292loPI   C2B20670  12.019  15.526   7.066 -0.1705 -0.5076  0.2778
 1292loPI   C3B20671  11.994  15.546   7.388 -0.1786 -0.1729  0.3093
 1292loPI   C4B20672  12.036  15.476   7.903  0.1603  0.2597 -0.2093
 1293loPI    C120673   8.247  11.026   5.284  0.1058 -0.4528 -0.0729
 1293loPI    C220674   8.449  11.318   5.101 -0.0585 -0.2192  0.1129
 1293loPI    C320675   8.448  10.950   4.946 -0.0452 -0.0693 -0.2550
 1293loPI   PO420676   8.301  11.094   5.518  0.2678  0.2715  0.0805
 1293loPI   GL120677   8.369  11.003   5.940 -0.2088 -0.1235 -0.1775
 1293loPI   GL220678   8.634  11.165   6.080  0.0028 -0.1923 -0.1104
 1293loPI   C1A20679   8.152  10.888   6.289 -0.2900  0.0121  0.2112
 1293loPI   C2A20680   8.160  10.946   6.764 -0.2231 -0.0537 -0.2006
 1293loPI   C3A20681   8.196  10.972   7.161  0.4433 -0.2119 -0.0248
 1293loPI   C4A20682   8.209  10.937   7.620  0.2848  0.0361  0.1588
 1293loPI   C5A20683   8.321  10.672   7.989 -0.0344 -0.1810 -0.3659
 1293loPI   C6A20684   8.689  10.383   8.278 -0.0957  0.0780  0.0862
 1293loPI   C1B20685   8.591  11.072   6.531  0.2591 -0.0287 -0.1958
 1293loPI   C2B20686   8.651  10.998   6.940  0.2428  0.2072 -0.0884
 1293loPI   C3B20687   8.693  10.987   7.322  0.0564 -0.1772  0.2672
 1293loPI   C4B20688   8.729  10.935   7.810  0.0059 -0.3065  0.2677
 1294loPI    C120689   3.387  14.082   5.786 -0.2410 -0.1890  0.1995
 1294loPI    C220690   3.196  13.744   5.689  0.0113 -0.2185 -0.2160
 1294loPI    C320691   3.579  13.796   5.583  0.0524  0.0941  0.0687
 1294loPI   PO420692   3.222  14.320   5.788 -0.2854 -0.2616 -0.0974
 1294loPI   GL120693   3.039  14.423   6.141  0.3600  0.0804 -0.1043
 1294loPI   GL220694   3.095  14.734   6.201  0.0841 -0.1010  0.1534
 1294loPI   C1A20695   2.961  14.268   6.541 -0.2382  0.1383  0.0103
 1294loPI   C2A20696   2.993  14.229   6.896 -0.1645 -0.1468  0.1459
 1294loPI   C3A20697   2.904  14.272   7.283 -0.2557  0.2476 -0.0004
 1294loPI   C4A20698   2.939  14.273   7.708  0.2194 -0.1362 -0.2058
 1294loPI   C5A20699   2.906  14.243   8.160  0.1491 -0.1333  0.2128
 1294loPI   C6A20700   2.706  14.654   8.357  0.1461  0.2239  0.2827
 1294loPI   C1B20701   3.170  14.780   6.665  0.1340  0.2128  0.3112
 1294loPI   C2B20702   3.192  14.690   7.101  0.0476  0.0512 -0.0308
 1294loPI   C3B20703   3.100  14.730   7.613  0.0574 -0.3792  0.3391
 1294loPI   C4B20704   3.116  14.767   8.063 -0.0700  0.0155  0.1815
 1295loPI    C120705   5.139   1.236   5.511  0.1179 -0.2468 -0.0567
 1295loPI    C220706   4.881   1.255   5.816  0.2145 -0.1457  0.0192
 1295loPI    C320707   4.908   0.921   5.598  0.0705 -0.1817  0.0556
 1295loPI   PO420708   5.344   1.414   5.634  0.0143 -0.2476  0.0808
 1295loPI   GL120709   5.509   1.402   5.992 -0.0504  0.3088  0.0003
 1295loPI   GL220710   5.264   1.582   6.086 -0.0419  0.1323  0.3116
 1295loPI   C1A20711   5.803   1.516   6.282  0.3149 -0.3221 -0.0526
 1295loPI   C2A20712   5.832   1.564   6.776 -0.1713 -0.1919  0.0242
 1295loPI   C3A20713   5.883   1.624   7.177 -0.0866 -0.2725 -0.0392
 1295loPI   C4A20714   5.830   1.500   7.624  0.0504  0.1343  0.0513
 1295loPI   C5A20715   5.859   1.378   8.087  0.2256  0.1942 -0.2118
 1295loPI   C6A20716   6.017   1.342   8.497  0.0997 -0.1120 -0.1517
 1295loPI   C1B20717   5.330   1.486   6.536 -0.3349 -0.1337 -0.2463
 1295loPI   C2B20718   5.327   1.549   6.954 -0.2499  0.1746  0.2114
 1295loPI   C3B20719   5.378   1.503   7.332 -0.0016 -0.3287 -0.0537
 1295loPI   C4B20720   5.423   1.382   7.812  0.1689 -0.1454 -0.0120
 1296loPI    C120721   1.150   1.682   5.309  0.1946  0.0248  0.1356
 1296loPI    C220722   0.932   1.401   5.127  0.1048  0.0908  0.1403
 1296loPI    C320723   1.109   1.687   4.911  0.0320  0.1454  0.1530
 1296loPI   PO420724   1.321   1.589   5.474  0.2901 -0.1087 -0.0396
 1296loPI   GL120725   1.284   1.551   5.858 -0.1904  0.1392 -0.0852
 1296loPI   GL220726   1.047   1.396   6.105  0.2379 -0.1006 -0.2215
 1296loPI   C1A20727   1.452   1.561   6.333  0.0825 -0.1954  0.1492
 1296loPI   C2A20728   1.329   1.558   6.804  0.0927 -0.0418  0.0338
 1296loPI   C3A20729   1.338   1.548   7.251 -0.1868  0.2400 -0.0991
 1296loPI   C4A20730   1.273   1.542   7.676  0.0515  0.0461  0.2072
 1296loPI   C5A20731   1.200   1.576   8.072 -0.2053 -0.1804  0.1256
 1296loPI   C6A20732   1.090   1.916   8.356 -0.0592 -0.1744 -0.2921
 1296loPI   C1B20733   0.910   1.496   6.520 -0.0830 -0.2340 -0.0232
 1296loPI   C2B20734   0.860   1.596   6.953  0.2185  0.2358  0.1190
 1296loPI   C3B20735   0.784   1.523   7.374 -0.0254 -0.0856 -0.1169
 1296loPI   C4B20736   0.803   1.634   7.789 -0.1814 -0.4225  0.1250
 1297loPI    C120737   4.174   7.813   5.171  0.1893  0.0525 -0.0957
 1297loPI    C220738   3.821   7.703   5.018  0.1484  0.0021  0.0335
 1297loPI    C320739   4.009   8.025   4.875 -0.0487  0.1499  0.1032
 1297loPI   PO420740   4.119   7.737   5.414  0.0379  0.1121 -0.3227
 1297loPI   GL120741   4.306   7.689   5.831 -0.0908 -0.2583 -0.1009
 1297loPI   GL220742   4.093   7.906   5.889  0.2019 -0.0525 -0.0281
 1297loPI   C1A20743   4.602   7.680   6.175  0.0625  0.1636 -0.0877
 1297loPI   C2A20744   4.568   7.635   6.615 -0.3197 -0.0425  0.1689
 1297loPI   C3A20745   4.590   7.708   7.025  0.2213 -0.3543 -0.0197
 1297loPI   C4A20746   4.560   7.631   7.467  0.1875 -0.2528 -0.0487
 1297loPI   C5A20747   4.573   7.633   7.854  0.0806  0.2119 -0.0173
 1297loPI   C6A20748   4.833   7.836   8.104  0.0604  0.2224  0.2114
 1297loPI   C1B20749   4.280   8.111   6.262  0.3576 -0.1460  0.0236
 1297loPI   C2B20750   4.295   8.075   6.693  0.0772  0.1124 -0.1890
 1297loPI   C3B20751   4.236   8.022   7.133 -0.0082  0.0640  0.0621
 1297loPI   C4B20752   4.227   8.035   7.567  0.1274  0.2955 -0.0029
 1298loPI    C120753  14.573   2.039   5.578  0.1073  0.0021  0.1598
 1298loPI    C220754  14.305   2.276   5.399  0.0145 -0.0631  0.2115
 1298loPI    C320755  14.694   2.363   5.378  0.0169 -0.1423 -0.1366
 1298loPI   PO420756  14.428   2.052   5.851  0.0367  0.1648 -0.2806
 1298loPI   GL120757  14.386   2.071   6.214  0.2804 -0.2198  0.0245
 1298loPI   GL220758  14.442   2.040   6.482 -0.0829 -0.0356  0.0853
 1298loPI   C1A20759  14.156   2.397   6.546  0.0212  0.2154 -0.4189
 1298loPI   C2A20760  14.184   2.427   6.905  0.0862  0.1344 -0.1876
 1298loPI   C3A20761  14.057   2.411   7.319  0.1764 -0.0935 -0.0749
 1298loPI   C4A20762  14.097   2.387   7.723  0.0952 -0.2735  0.0088
 1298loPI   C5A20763  14.151   2.376   8.166  0.1948 -0.1107 -0.3859
 1298loPI   C6A20764  14.018   2.494   8.597  0.1310  0.1258 -0.2365
 1298loPI   C1B20765  14.414   1.979   6.980 -0.0654  0.1427  0.2751
 1298loPI   C2B20766  14.357   2.014   7.499  0.0520  0.1408 -0.0563
 1298loPI   C3B20767  14.379   2.050   7.921 -0.1924  0.2030 -0.0387
 1298loPI   C4B20768  14.379   2.012   8.411 -0.0625 -0.1423  0.0090
 1299loPI    C120769  10.794   5.448   5.638 -0.0585  0.1101  0.0100
 1299loPI    C220770  10.458   5.298   5.481 -0.0653  0.0366  0.0941
 1299loPI    C320771  10.634   5.615   5.311  0.0044 -0.1274 -0.1442
 1299loPI   PO420772  10.712   5.417   5.869 -0.1398  0.0262 -0.0552
 1299loPI   GL120773  10.762   5.302   6.248  0.0926  0.3198 -0.1656
 1299loPI   GL220774  11.027   5.012   6.192  0.2151  0.1269  0.0785
 1299loPI   C1A20775  10.850   5.378   6.637  0.2757  0.3042  0.0574
 1299loPI   C2A20776  10.796   5.391   7.135 -0.2039  0.0963 -0.1157
 1299loPI   C3A20777  10.740   5.391   7.550 -0.0700  0.1516 -0.0081
 1299loPI   C4A20778  10.788   5.419   7.947 -0.0014  0.1029  0.0286
 1299loPI   C5A20779  10.744   5.489   8.333  0.0827  0.3179  0.2272
 1299loPI   C6A20780  10.826   5.458   8.763  0.0582  0.1513  0.1017
 1299loPI   C1B20781  11.157   4.985   6.645  0.2942  0.0028 -0.3167
 1299loPI   C2B20782  11.093   4.997   7.077 -0.0916  0.1278 -0.0077
 1299loPI   C3B20783  11.091   4.993   7.465 -0.2241  0.0262 -0.0457
 1299loPI   C4B20784  11.164   5.051   7.870 -0.0414 -0.2469 -0.3354
 1300loPI    C120785  10.270   1.904   5.876 -0.2927 -0.1191 -0.2283
 1300loPI    C220786  10.620   1.840   5.695 -0.0536  0.2638  0.0819
 1300loPI    C320787  10.281   1.826   5.484  0.1516 -0.0227 -0.2399
 1300loPI   PO420788  10.287   2.096   5.967  0.0560  0.1763  0.1242
 1300loPI   GL120789  10.276   2.412   6.236  0.0043 -0.1400 -0.2605
 1300loPI   GL220790  10.408   2.166   6.461 -0.2026  0.0011  0.1533
 1300loPI   C1A20791  10.078   2.508   6.626 -0.0688  0.0518  0.0897
 1300loPI   C2A20792  10.117   2.497   7.031  0.1913 -0.4175 -0.0227
 1300loPI   C3A20793  10.302   2.255   7.347  0.1055  0.3452 -0.1461
 1300loPI   C4A20794  10.481   1.957   7.631  0.1090  0.0188 -0.0700
 1300loPI   C5A20795  10.691   1.592   7.661 -0.0510  0.0877  0.1084
 1300loPI   C6A20796  10.451   1.165   7.564  0.1586 -0.4024 -0.1788
 1300loPI   C1B20797  10.436   2.103   6.918 -0.4345 -0.2797 -0.0144
 1300loPI   C2B20798  10.752   1.980   7.165 -0.0206 -0.2549 -0.1253
 1300loPI   C3B20799  11.084   1.896   7.269  0.1033 -0.0821  0.1044
 1300loPI   C4B20800  11.280   1.675   7.547 -0.0518  0.0873  0.1893
 1301loPI    C120801  16.950   2.003   5.340 -0.0125 -0.0527 -0.1288
 1301loPI    C220802  17.180   2.300   5.202 -0.1673  0.0547 -0.1573
 1301loPI    C320803  17.187   1.943   5.023 -0.0300  0.0601 -0.1636
 1301loPI   PO420804  16.960   1.973   5.579 -0.0506 -0.0406 -0.0784
 1301loPI   GL120805  16.872   2.050   5.992  0.2952  0.1277 -0.0628
 1301loPI   GL220806  16.809   1.721   6.038  0.0201  0.0813 -0.0166
 1301loPI   C1A20807  17.078   2.279   6.333 -0.4197 -0.0793  0.0253
 1301loPI   C2A20808  17.034   2.272   6.762 -0.1921  0.0679  0.0661
 1301loPI   C3A20809  16.967   2.189   7.220  0.1991  0.0883 -0.1557
 1301loPI   C4A20810  16.953   2.274   7.624  0.1786 -0.1806 -0.1153
 1301loPI   C5A20811  16.989   2.231   8.096  0.2845 -0.0129  0.1662
 1301loPI   C6A20812  17.004   2.305   8.534 -0.1102  0.1054 -0.1017
 1301loPI   C1B20813  16.859   1.875   6.518 -0.1418 -0.1177 -0.0557
 1301loPI   C2B20814  16.783   1.758   6.956 -0.0434  0.2798  0.0475
 1301loPI   C3B20815  16.747   1.799   7.356  0.0558  0.0319 -0.2444
 1301loPI   C4B20816  16.744   1.761   7.860  0.0861 -0.2728 -0.1973
 1302loPI    C120817  14.153   7.225   5.522 -0.0663 -0.1507  0.1107
 1302loPI    C220818  14.222   7.457   5.204 -0.0109 -0.1064  0.1548
 1302loPI    C320819  14.379   7.089   5.221 -0.0637 -0.1316  0.1040
 1302loPI   PO420820  14.099   7.334   5.781  0.0454  0.1256  0.1985
 1302loPI   GL120821  13.868   7.619   5.987  0.3260 -0.2856  0.3273
 1302loPI   GL220822  13.811   7.234   6.137  0.1702 -0.2061  0.3867
 1302loPI   C1A20823  14.089   7.645   6.388 -0.2621  0.2697 -0.1347
 1302loPI   C2A20824  14.011   7.691   6.764  0.0911  0.2414 -0.2662
 1302loPI   C3A20825  14.001   7.681   7.164  0.2634 -0.1082  0.0282
 1302loPI   C4A20826  14.025   7.691   7.623  0.1477 -0.0869  0.0512
 1302loPI   C5A20827  13.961   7.714   8.006 -0.3733  0.2365 -0.1142
 1302loPI   C6A20828  14.122   7.988   8.351  0.1019  0.0290  0.0584
 1302loPI   C1B20829  13.856   7.125   6.564  0.1827 -0.2973 -0.2854
 1302loPI   C2B20830  13.838   7.191   6.961  0.1947  0.1081  0.1027
 1302loPI   C3B20831  13.822   7.209   7.372  0.1954  0.0881  0.1477
 1302loPI   C4B20832  13.799   7.271   7.815  0.0076 -0.0795  0.0040
 1303loPI    C120833   0.442   6.685   5.270  0.2028 -0.1029  0.1173
 1303loPI    C220834   0.575   6.334   5.132 -0.0137 -0.1949  0.1390
 1303loPI    C320835   0.464   6.620   4.876  0.2781 -0.0951  0.1201
 1303loPI   PO420836   0.226   6.680   5.490  0.2147 -0.0373 -0.2302
 1303loPI   GL120837   0.172   6.540   5.850  0.0508  0.1044  0.0006
 1303loPI   GL220838  -0.113   6.724   5.851  0.4484  0.1428 -0.0640
 1303loPI   C1A20839   0.059   6.342   6.191 -0.0390  0.2145 -0.2030
 1303loPI   C2A20840   0.038   6.317   6.604  0.0016  0.1171  0.0394
 1303loPI   C3A20841   0.062   6.305   7.050  0.1855 -0.0087 -0.0897
 1303loPI   C4A20842   0.089   6.380   7.490  0.2993  0.0429  0.1451
 1303loPI   C5A20843   0.094   6.667   7.809  0.1870 -0.1802 -0.0627
 1303loPI   C6A20844  -0.299   6.881   7.997 -0.0156 -0.1730 -0.2272
 1303loPI   C1B20845  -0.199   6.782   6.246  0.1846  0.0068  0.0123
 1303loPI   C2B20846  -0.244   6.800   6.682  0.2454  0.3317  0.2089
 1303loPI   C3B20847  -0.201   6.719   7.096  0.0642 -0.0237 -0.1795
 1303loPI   C4B20848  -0.233   6.788   7.468  0.0580  0.0192  0.0230
 1304loPI    C120849  13.858   5.810   5.398 -0.1928 -0.2351 -0.0754
 1304loPI    C220850  14.206   5.666   5.264  0.0386  0.1026  0.1465
 1304loPI    C320851  13.966   5.872   5.018  0.1638  0.1765  0.0848
 1304loPI   PO420852  13.932   5.944   5.596  0.2817  0.1829 -0.0852
 1304loPI   GL120853  13.854   6.003   6.015 -0.1852  0.0205  0.0613
 1304loPI   GL220854  13.781   6.309   5.920 -0.0048 -0.1332 -0.0978
 1304loPI   C1A20855  13.785   5.832   6.391 -0.2048 -0.1317 -0.0507
 1304loPI   C2A20856  13.823   5.817   6.902  0.0285 -0.1364 -0.2155
 1304loPI   C3A20857  13.775   5.838   7.366 -0.1178 -0.0272  0.2876
 1304loPI   C4A20858  13.697   5.945   7.834 -0.1158  0.2465 -0.0253
 1304loPI   C5A20859  13.849   5.866   8.218  0.2721  0.3184  0.0786
 1304loPI   C6A20860  14.154   5.792   8.537 -0.0488  0.0264 -0.1217
 1304loPI   C1B20861  13.961   6.313   6.373  0.0227  0.0680 -0.0888
 1304loPI   C2B20862  13.995   6.326   6.874  0.0220  0.0418  0.1917
 1304loPI   C3B20863  13.948   6.297   7.246  0.2199 -0.5111  0.1617
 1304loPI   C4B20864  13.991   6.336   7.791  0.0693  0.4576 -0.4396
 1305loPI    C120865  10.091   9.607   5.505  0.0879  0.0356 -0.2102
 1305loPI    C220866  10.319   9.317   5.351 -0.0757 -0.2750  0.1172
 1305loPI    C320867  10.382   9.698   5.246 -0.0863 -0.4539 -0.5926
 1305loPI   PO420868  10.110   9.465   5.831 -0.0218 -0.0843  0.0816
 1305loPI   GL120869   9.849   9.544   6.126  0.0256 -0.0192  0.0786
 1305loPI   GL220870   9.974   9.309   6.270 -0.0865 -0.1077 -0.2476
 1305loPI   C1A20871   9.708   9.879   6.461  0.1135 -0.3179 -0.2136
 1305loPI   C2A20872   9.702   9.794   6.965 -0.0168  0.0572  0.3363
 1305loPI   C3A20873   9.685   9.768   7.494  0.3601  0.0235 -0.2199
 1305loPI   C4A20874   9.660   9.800   7.930 -0.0748 -0.0736  0.2534
 1305loPI   C5A20875   9.677   9.620   8.296 -0.2857 -0.1492  0.0518
 1305loPI   C6A20876   9.775   9.172   8.516  0.2556 -0.3456  0.0188
 1305loPI   C1B20877   9.936   9.428   6.707 -0.2101  0.2500 -0.0330
 1305loPI   C2B20878   9.989   9.403   7.163  0.1216  0.0573  0.2721
 1305loPI   C3B20879   9.964   9.362   7.628 -0.0251 -0.1823 -0.0067
 1305loPI   C4B20880   9.959   9.191   8.048  0.0041  0.0919  0.2895
 1306loPI    C120881  12.940  14.961   5.572 -0.1183  0.0863  0.1457
 1306loPI    C220882  13.288  15.158   5.563 -0.1021  0.0653  0.2846
 1306loPI    C320883  13.213  14.873   5.293 -0.0737  0.1735  0.1613
 1306loPI   PO420884  12.924  14.939   5.818  0.0128  0.0342 -0.1315
 1306loPI   GL120885  12.987  15.167   6.155  0.1805  0.0250 -0.0417
 1306loPI   GL220886  13.179  14.814   6.260 -0.1162  0.0747 -0.1129
 1306loPI   C1A20887  12.952  15.207   6.515  0.0376 -0.1572  0.0503
 1306loPI   C2A20888  12.886  15.153   6.987  0.1213 -0.2618  0.2164
 1306loPI   C3A20889  12.785  15.107   7.420  0.1722  0.0480 -0.2356
 1306loPI   C4A20890  12.871  15.045   7.858  0.1967 -0.0542  0.0588
 1306loPI   C5A20891  12.940  15.090   8.285 -0.1690 -0.0607 -0.0190
 1306loPI   C6A20892  12.724  15.054   8.706 -0.0465 -0.1631  0.1136
 1306loPI   C1B20893  13.191  14.782   6.696  0.0461  0.0451 -0.0589
 1306loPI   C2B20894  13.110  14.740   7.111 -0.2035  0.1968 -0.0832
 1306loPI   C3B20895  13.180  14.700   7.574  0.0073 -0.0241 -0.2720
 1306loPI   C4B20896  13.090  14.622   8.080  0.0487  0.5349  0.0626
 1307loPI    C120897  14.143  10.555   5.466 -0.2117  0.0181  0.2191
 1307loPI    C220898  14.218  10.925   5.332  0.0640 -0.0788  0.0977
 1307loPI    C320899  13.963  10.688   5.134  0.2936 -0.1396 -0.1312
 1307loPI   PO420900  14.161  10.607   5.779  0.0297  0.2609  0.1157
 1307loPI   GL120901  14.065  10.398   6.189 -0.1862  0.0149  0.1248
 1307loPI   GL220902  14.267  10.321   6.357 -0.1480 -0.2974 -0.2714
 1307loPI   C1A20903  13.843  10.312   6.589  0.3532  0.1779 -0.0493
 1307loPI   C2A20904  13.729  10.245   6.995  0.1643  0.2179 -0.0738
 1307loPI   C3A20905  13.688  10.258   7.482  0.0704  0.2331 -0.3725
 1307loPI   C4A20906  13.670  10.356   7.870 -0.3112  0.1005  0.1447
 1307loPI   C5A20907  13.895  10.370   8.180 -0.2634  0.0314 -0.1150
 1307loPI   C6A20908  13.975  10.026   8.457 -0.0126  0.3785 -0.0712
 1307loPI   C1B20909  14.276  10.251   6.895  0.0400  0.2886 -0.3708
 1307loPI   C2B20910  14.140  10.353   7.323  0.1071 -0.0295  0.0222
 1307loPI   C3B20911  14.202  10.363   7.711 -0.2716 -0.2236 -0.1249
 1307loPI   C4B20912  14.333  10.628   8.108 -0.2015 -0.0191 -0.1884
 1308loPI    C120913  10.346  13.621   5.771  0.1874  0.0935 -0.3451
 1308loPI    C220914  10.169  13.447   5.457 -0.1242  0.0057 -0.1256
 1308loPI    C320915  10.280  13.226   5.771 -0.1723  0.1473 -0.0077
 1308loPI   PO420916  10.337  13.842   5.735  0.1606 -0.4650 -0.0828
 1308loPI   GL120917  10.480  14.117   6.033  0.1395  0.0205  0.1822
 1308loPI   GL220918  10.576  14.345   6.262  0.1374  0.0959 -0.3904
 1308loPI   C1A20919  10.544  13.906   6.517 -0.1288  0.0131  0.0426
 1308loPI   C2A20920  10.504  13.867   6.994  0.2564 -0.1119 -0.0318
 1308loPI   C3A20921  10.447  13.993   7.430 -0.0194  0.0354  0.0071
 1308loPI   C4A20922  10.366  13.919   7.859 -0.2714  0.0768  0.1462
 1308loPI   C5A20923  10.418  14.002   8.307  0.1560 -0.2884  0.2718
 1308loPI   C6A20924  10.650  14.149   8.594  0.1241  0.1132  0.2127
 1308loPI   C1B20925  10.627  14.463   6.674  0.0504 -0.0554 -0.2149
 1308loPI   C2B20926  10.602  14.355   7.139  0.0920  0.0582 -0.1509
 1308loPI   C3B20927  10.629  14.424   7.587  0.0069 -0.1607  0.1235
 1308loPI   C4B20928  10.585  14.413   8.102  0.1531 -0.0938  0.1310
 1309loPI    C120929  16.722   0.341   5.625 -0.0922 -0.0684  0.1379
 1309loPI    C220930  16.840  -0.040   5.648  0.1828  0.0050 -0.0185
 1309loPI    C320931  16.760   0.123   5.291  0.0156  0.0796  0.0522
 1309loPI   PO420932  16.647   0.555   5.770  0.0092  0.0503 -0.0997
 1309loPI   GL120933  16.368   0.574   6.073  0.1384  0.3004 -0.2476
 1309loPI   GL220934  16.547   0.403   6.340 -0.2131 -0.0564  0.2257
 1309loPI   C1A20935  16.327   0.844   6.442  0.0527 -0.2224  0.0966
 1309loPI   C2A20936  16.328   0.925   6.905 -0.0723  0.1074  0.3505
 1309loPI   C3A20937  16.393   0.864   7.395  0.0566 -0.1096 -0.2064
 1309loPI   C4A20938  16.273   0.884   7.848 -0.1161 -0.1437 -0.0228
 1309loPI   C5A20939  16.260   0.964   8.290 -0.2245 -0.2471  0.2063
 1309loPI   C6A20940  16.303   1.087   8.685  0.0811 -0.0607 -0.0211
 1309loPI   C1B20941  16.598   0.453   6.775  0.0088  0.0514 -0.3240
 1309loPI   C2B20942  16.604   0.460   7.238 -0.0198 -0.0440 -0.0165
 1309loPI   C3B20943  16.681   0.497   7.685  0.1168 -0.2240  0.0720
 1309loPI   C4B20944  16.622   0.436   8.038 -0.2802  0.1021 -0.1263
 1310loPI    C120945   5.256  15.256   5.481  0.2319 -0.1995 -0.1095
 1310loPI    C220946   5.282  15.536   5.196  0.1188  0.0943  0.1637
 1310loPI    C320947   5.112  15.184   5.115 -0.0700  0.2401 -0.0847
 1310loPI   PO420948   5.347  15.287   5.724  0.1628  0.0993  0.2752
 1310loPI   GL120949   5.292  15.287   6.184  0.0907  0.2422  0.2057
 1310loPI   GL220950   5.371  15.518   6.298 -0.0320 -0.1361 -0.0640
 1310loPI   C1A20951   5.254  15.055   6.521  0.0370 -0.0302  0.0720
 1310loPI   C2A20952   5.262  15.100   6.913  0.0554 -0.0545  0.3026
 1310loPI   C3A20953   5.226  15.058   7.362  0.0750  0.2367 -0.0732
 1310loPI   C4A20954   5.147  15.066   7.769  0.4115 -0.0362  0.0235
 1310loPI   C5A20955   5.048  14.879   8.200  0.2678 -0.1202 -0.1725
 1310loPI   C6A20956   5.097  14.881   8.593  0.0348  0.1086  0.0676
 1310loPI   C1B20957   5.407  15.600   6.745 -0.0481 -0.1198  0.0664
 1310loPI   C2B20958   5.418  15.579   7.243 -0.0301 -0.1839 -0.1036
 1310loPI   C3B20959   5.348  15.484   7.604 -0.0089 -0.2255  0.0819
 1310loPI   C4B20960   5.457  15.485   7.992  0.1101 -0.2690  0.0168
 1311loPI    C120961   7.950  15.309   5.590 -0.1236 -0.1835  0.1576
 1311loPI    C220962   8.193  15.079   5.371  0.1475 -0.1181  0.3848
 1311loPI    C320963   7.934  15.324   5.190  0.3635 -0.0684  0.1363
 1311loPI   PO420964   8.008  15.213   5.832 -0.1526  0.0660 -0.2054
 1311loPI   GL120965   7.807  15.240   6.251 -0.2432  0.0774  0.1943
 1311loPI   GL220966   7.587  14.914   6.290 -0.0943 -0.0382 -0.1275
 1311loPI   C1A20967   7.685  15.422   6.705  0.0125  0.0353  0.0685
 1311loPI   C2A20968   7.657  15.495   7.177 -0.1542 -0.2142 -0.4831
 1311loPI   C3A20969   7.653  15.515   7.588 -0.3523 -0.1762  0.0426
 1311loPI   C4A20970   7.587  15.416   8.005  0.2267 -0.1052  0.2131
 1311loPI   C5A20971   7.840  15.236   8.115 -0.0837  0.1112  0.0752
 1311loPI   C6A20972   7.860  14.765   8.277 -0.1918  0.0531 -0.1925
 1311loPI   C1B20973   7.532  14.934   6.679 -0.0926  0.0122  0.1291
 1311loPI   C2B20974   7.449  14.976   7.119 -0.0850 -0.1386 -0.0767
 1311loPI   C3B20975   7.365  15.046   7.609  0.0381 -0.0485 -0.1849
 1311loPI   C4B20976   7.393  14.963   8.087 -0.1604 -0.2566  0.1651
 1312loPI    C120977  13.065  12.938   5.514 -0.1834  0.1676 -0.0776
 1312loPI    C220978  13.208  12.685   5.239 -0.2944  0.0546 -0.0323
 1312loPI    C320979  13.118  13.061   5.137 -0.0684  0.0958 -0.0854
 1312loPI   PO420980  13.141  12.915   5.754 -0.1402 -0.1536  0.0941
 1312loPI   GL120981  13.137  12.987   6.248  0.1734 -0.2283  0.1289
 1312loPI   GL220982  12.931  12.936   6.503 -0.2292  0.0002 -0.0794
 1312loPI   C1A20983  13.393  12.980   6.567 -0.2043  0.0228 -0.1179
 1312loPI   C2A20984  13.412  13.078   7.061  0.0851 -0.0367 -0.1497
 1312loPI   C3A20985  13.311  12.935   7.493  0.0765 -0.1928  0.2090
 1312loPI   C4A20986  13.411  12.870   7.937 -0.0856  0.0323  0.0585
 1312loPI   C5A20987  13.337  12.977   8.364  0.0550  0.1580 -0.0017
 1312loPI   C6A20988  13.207  13.027   8.767  0.1136 -0.0194 -0.0370
 1312loPI   C1B20989  12.986  12.800   6.939  0.2310  0.0927  0.0369
 1312loPI   C2B20990  12.832  12.861   7.357  0.0841  0.0301  0.0093
 1312loPI   C3B20991  12.820  12.876   7.809  0.1851 -0.0049 -0.0645
 1312loPI   C4B20992  12.851  12.928   8.230  0.2594  0.2853  0.0114
 1313loPI    C120993  14.093  17.188   5.540 -0.0598 -0.0482  0.1089
 1313loPI    C220994  14.106  17.569   5.417  0.0512 -0.0017  0.2619
 1313loPI    C320995  13.776  17.351   5.357 -0.0255  0.1288  0.2045
 1313loPI   PO420996  14.200  17.213   5.799  0.1166  0.2379 -0.1023
 1313loPI   GL120997  13.968  17.317   6.333  0.0209  0.1279  0.1104
 1313loPI   GL220998  13.675  17.080   6.405  0.0926  0.0551  0.1618
 1313loPI   C1A20999  13.926  17.527   6.741 -0.1880 -0.0256 -0.0177
 1313loPI   C2A21000  13.836  17.590   7.135  0.0808  0.0421  0.0881
 1313loPI   C3A21001  13.819  17.474   7.486  0.0493 -0.1285  0.0284
 1313loPI   C4A21002  13.781  17.441   7.963 -0.0828 -0.0271  0.0446
 1313loPI   C5A21003  13.837  17.494   8.360 -0.1827  0.2460  0.2008
 1313loPI   C6A21004  13.984  17.802   8.679 -0.0760 -0.0614  0.1738
 1313loPI   C1B21005  13.627  17.041   6.906 -0.2729 -0.0865 -0.5612
 1313loPI   C2B21006  13.653  17.085   7.296  0.0785  0.2103  0.1468
 1313loPI   C3B21007  13.614  16.993   7.805 -0.0794  0.0047 -0.2402
 1313loPI   C4B21008  13.634  17.049   8.227  0.0274 -0.0367 -0.0172
 1314loPI    C121009  11.289  14.090   5.458 -0.0324 -0.0098  0.0138
 1314loPI    C221010  11.043  14.231   5.176 -0.0087  0.0017 -0.0013
 1314loPI    C321011  11.270  13.911   5.102 -0.1166 -0.0891  0.0578
 1314loPI   PO421012  11.215  14.280   5.693 -0.0153  0.1227  0.1895
 1314loPI   GL121013  10.998  14.298   6.039 -0.0876  0.1866  0.2471
 1314loPI   GL221014  11.131  14.546   6.247 -0.0006 -0.1441  0.0152
 1314loPI   C1A21015  10.984  14.107   6.497 -0.2397  0.0329 -0.1331
 1314loPI   C2A21016  10.999  14.067   6.933 -0.1257 -0.1464  0.0560
 1314loPI   C3A21017  10.982  14.047   7.353 -0.1009  0.1121  0.3983
 1314loPI   C4A21018  10.835  13.979   7.779 -0.2120  0.0585 -0.0897
 1314loPI   C5A21019  10.900  13.897   8.207  0.1436  0.2558 -0.2262
 1314loPI   C6A21020  11.068  13.488   8.299 -0.2098 -0.0437 -0.0213
 1314loPI   C1B21021  11.159  14.576   6.679 -0.2079  0.0571  0.2867
 1314loPI   C2B21022  11.162  14.552   7.077 -0.1242 -0.1691  0.0131
 1314loPI   C3B21023  11.165  14.476   7.419 -0.1859 -0.1251  0.1330
 1314loPI   C4B21024  11.082  14.409   7.931  0.1810  0.0542  0.0822
 1315loPI    C121025   7.187  14.899   5.512  0.2445 -0.0904 -0.0511
 1315loPI    C221026   7.045  15.032   5.163  0.1475  0.0419  0.0378
 1315loPI    C321027   7.033  14.642   5.247  0.0676  0.0230 -0.0598
 1315loPI   PO421028   7.049  14.926   5.686 -0.0136 -0.3420 -0.2372
 1315loPI   GL121029   7.095  14.897   6.100  0.3659 -0.0397  0.1159
 1315loPI   GL221030   6.996  14.608   6.110  0.0073 -0.0887 -0.1254
 1315loPI   C1A21031   7.060  14.923   6.560 -0.1444 -0.4396 -0.2170
 1315loPI   C2A21032   6.944  14.883   6.998  0.0632  0.0419 -0.3236
 1315loPI   C3A21033   6.944  14.878   7.433  0.1439 -0.0184 -0.0948
 1315loPI   C4A21034   6.996  14.793   7.768  0.1048 -0.0741 -0.2500
 1315loPI   C5A21035   6.901  14.929   8.191  0.2130  0.0614 -0.1065
 1315loPI   C6A21036   6.622  14.551   8.450 -0.0601 -0.2228  0.2508
 1315loPI   C1B21037   7.340  14.505   6.393 -0.1517 -0.0165  0.4803
 1315loPI   C2B21038   7.266  14.507   6.824 -0.1964  0.1771 -0.1586
 1315loPI   C3B21039   7.240  14.384   7.209  0.1026 -0.2011 -0.0931
 1315loPI   C4B21040   7.169  14.347   7.631 -0.1274 -0.0813  0.0666
 1316loPI    C121041  11.147   9.733   5.635 -0.0465  0.3424 -0.2879
 1316loPI    C221042  11.286   9.621   5.277  0.1203  0.1653 -0.1697
 1316loPI    C321043  11.496   9.539   5.608 -0.1396  0.1294 -0.0114
 1316loPI   PO421044  10.986   9.651   5.683 -0.4783  0.2367  0.0825
 1316loPI   GL121045  10.898   9.545   6.058  0.3709 -0.1125 -0.0431
 1316loPI   GL221046  10.560   9.447   6.177  0.0329  0.1455 -0.4076
 1316loPI   C1A21047  11.071   9.493   6.421  0.0139 -0.1321 -0.0950
 1316loPI   C2A21048  11.020   9.536   6.856 -0.2911  0.1561 -0.0515
 1316loPI   C3A21049  11.023   9.550   7.174 -0.1723 -0.0703 -0.3233
 1316loPI   C4A21050  10.935   9.499   7.596 -0.0674  0.1462  0.1638
 1316loPI   C5A21051  10.874   9.570   8.023  0.1925 -0.1117  0.0067
 1316loPI   C6A21052  11.192   9.674   8.291 -0.1720 -0.1788 -0.3350
 1316loPI   C1B21053  10.587   9.466   6.627  0.2383  0.0801  0.2502
 1316loPI   C2B21054  10.542   9.432   7.020  0.0257 -0.0749 -0.2711
 1316loPI   C3B21055  10.432   9.456   7.439  0.0900 -0.0102  0.1256
 1316loPI   C4B21056  10.388   9.470   7.942  0.3004 -0.2237  0.0862
 1317loPI    C121057   2.497  14.596   5.308 -0.0254 -0.1089  0.0909
 1317loPI    C221058   2.213  14.516   5.037  0.0406 -0.1419  0.0312
 1317loPI    C321059   2.574  14.346   5.006  0.0819 -0.0646  0.0812
 1317loPI   PO421060   2.349  14.569   5.583  0.2546 -0.2991  0.1204
 1317loPI   GL121061   2.279  14.638   5.999  0.0496  0.2878  0.2407
 1317loPI   GL221062   2.632  14.673   6.154  0.2267  0.2476  0.0577
 1317loPI   C1A21063   2.195  14.607   6.478  0.0006 -0.1561 -0.2723
 1317loPI   C2A21064   2.108  14.675   6.932  0.2355  0.0007 -0.1128
 1317loPI   C3A21065   2.109  14.583   7.463  0.2840  0.4178 -0.0066
 1317loPI   C4A21066   2.157  14.515   7.840 -0.1273 -0.1572  0.1262
 1317loPI   C5A21067   2.433  14.300   8.120 -0.0178 -0.1238 -0.0115
 1317loPI   C6A21068   2.501  14.130   8.433 -0.1209  0.0633 -0.4149
 1317loPI   C1B21069   2.697  14.670   6.569  0.1089 -0.1762  0.1103
 1317loPI   C2B21070   2.675  14.589   6.959 -0.0927  0.1861  0.0990
 1317loPI   C3B21071   2.632  14.643   7.402  0.2469 -0.2626 -0.2018
 1317loPI   C4B21072   2.647  14.708   7.858 -0.3252  0.1022  0.3200
 1318loPI    C121073  12.245   3.037   5.976 -0.2763  0.0949 -0.1117
 1318loPI    C221074  12.444   3.012   5.630 -0.2269 -0.0576 -0.0729
 1318loPI    C321075  12.318   3.367   5.763  0.1541  0.0633 -0.0226
 1318loPI   PO421076  12.385   2.908   6.147 -0.0144  0.0273  0.0084
 1318loPI   GL121077  12.330   2.928   6.590 -0.1481  0.0261 -0.1042
 1318loPI   GL221078  12.292   3.213   6.541  0.1681 -0.0440 -0.3054
 1318loPI   C1A21079  12.219   2.604   6.864 -0.2481  0.2083  0.1526
 1318loPI   C2A21080  12.017   2.380   7.309 -0.0465  0.0567  0.4572
 1318loPI   C3A21081  11.983   2.175   7.701  0.2934 -0.0325  0.0594
 1318loPI   C4A21082  11.804   2.107   8.077  0.3724  0.2182  0.2592
 1318loPI   C5A21083  11.616   2.163   8.509  0.1865 -0.3120  0.1856
 1318loPI   C6A21084  11.830   2.223   8.825  0.0083 -0.0775  0.3380
 1318loPI   C1B21085  12.155   3.536   6.890  0.0142 -0.0247 -0.1299
 1318loPI   C2B21086  12.334   3.951   6.943  0.0459 -0.1337  0.1147
 1318loPI   C3B21087  12.329   4.313   6.793 -0.1015  0.2413 -0.3984
 1318loPI   C4B21088  12.489   4.687   6.943  0.1981 -0.0129  0.4377
 1319loPI    C121089  10.560  17.495   5.479  0.2128  0.2878 -0.2449
 1319loPI    C221090  10.292  17.667   5.237 -0.2121  0.0865  0.0711
 1319loPI    C321091  10.533  17.380   5.097 -0.2569  0.1708 -0.1828
 1319loPI   PO421092  10.652  17.692   5.631 -0.0415  0.0290 -0.0694
 1319loPI   GL121093  10.746  17.872   5.994  0.1094 -0.0326 -0.1232
 1319loPI   GL221094  10.452  18.067   6.126  0.2077  0.2730 -0.2050
 1319loPI   C1A21095  10.967  17.765   6.388  0.2031 -0.0958  0.0705
 1319loPI   C2A21096  11.132  17.746   6.817 -0.1052 -0.0867 -0.1593
 1319loPI   C3A21097  11.003  17.603   7.223  0.2336  0.3267 -0.0743
 1319loPI   C4A21098  10.914  17.651   7.650 -0.1237  0.3306  0.0221
 1319loPI   C5A21099  10.913  17.492   8.080 -0.0804  0.2255 -0.1316
 1319loPI   C6A21100  10.661  17.463   8.442  0.1415  0.0734 -0.1656
 1319loPI   C1B21101  10.365  18.112   6.562  0.2360  0.1846 -0.0106
 1319loPI   C2B21102  10.195  17.980   7.050 -0.2049 -0.0751  0.0434
 1319loPI   C3B21103  10.108  17.981   7.539  0.1626 -0.1014  0.4027
 1319loPI   C4B21104  10.088  17.893   7.971 -0.0358 -0.1177  0.0767
 1320loPI    C121105  16.564  17.338   5.788  0.1670 -0.0013 -0.0012
 1320loPI    C221106  16.189  17.473   5.820  0.0799 -0.2765  0.1814
 1320loPI    C321107  16.406  17.560   5.495 -0.1285 -0.0862  0.0902
 1320loPI   PO421108  16.644  17.333   6.069 -0.0913  0.3214  0.0045
 1320loPI   GL121109  16.645  17.165   6.427 -0.0438  0.3319  0.1075
 1320loPI   GL221110  16.501  16.927   6.468 -0.1332  0.1935 -0.0594
 1320loPI   C1A21111  16.694  17.284   6.771  0.1542 -0.1890 -0.0710
 1320loPI   C2A21112  16.701  17.359   7.184 -0.2813 -0.2053 -0.0029
 1320loPI   C3A21113  16.672  17.373   7.546  0.0199 -0.1045  0.0007
 1320loPI   C4A21114  16.641  17.325   8.031  0.0602  0.1533  0.1694
 1320loPI   C5A21115  16.902  17.120   8.379 -0.0343  0.1598 -0.1317
 1320loPI   C6A21116  16.963  16.725   8.683 -0.2101  0.0204  0.0249
 1320loPI   C1B21117  16.463  16.887   6.929 -0.2601  0.0807 -0.1020
 1320loPI   C2B21118  16.555  16.879   7.347  0.3794 -0.0283 -0.1370
 1320loPI   C3B21119  16.393  16.820   7.771 -0.4001 -0.2395 -0.1081
 1320loPI   C4B21120  16.481  16.917   8.209 -0.2049  0.1733  0.0827
 1321loPI    C121121   5.689   3.006   5.413  0.0812  0.3715 -0.1296
 1321loPI    C221122   5.533   2.670   5.264  0.1536  0.2302  0.1072
 1321loPI    C321123   5.802   2.876   5.052  0.0361  0.1938 -0.0805
 1321loPI   PO421124   5.722   2.971   5.630 -0.1260  0.2934 -0.1676
 1321loPI   GL121125   5.670   3.265   5.951  0.2423  0.0192 -0.3463
 1321loPI   GL221126   5.446   3.383   5.742  0.1273 -0.2976 -0.2559
 1321loPI   C1A21127   5.699   3.226   6.387  0.1735 -0.0162  0.1714
 1321loPI   C2A21128   5.650   3.362   6.743 -0.0184  0.0590 -0.0796
 1321loPI   C3A21129   5.648   3.310   7.154 -0.3108  0.1567 -0.0132
 1321loPI   C4A21130   5.766   3.280   7.641 -0.0842  0.0837  0.1256
 1321loPI   C5A21131   5.790   3.271   8.129  0.0732 -0.3473  0.0024
 1321loPI   C6A21132   6.012   2.960   8.445  0.1876 -0.2140  0.1336
 1321loPI   C1B21133   5.325   3.603   6.135 -0.1905  0.0547 -0.3797
 1321loPI   C2B21134   5.381   3.735   6.549  0.1171 -0.1367  0.1331
 1321loPI   C3B21135   5.322   3.727   7.037 -0.0349  0.0125  0.0134
 1321loPI   C4B21136   5.254   3.709   7.421 -0.0615 -0.1212 -0.0346
 1322loPI    C121137   5.790   6.631   5.045  0.0156 -0.0510 -0.0329
 1322loPI    C221138   5.893   6.979   4.876  0.1109 -0.0031  0.1216
 1322loPI    C321139   5.913   6.640   4.665  0.1408  0.0681  0.0094
 1322loPI   PO421140   5.972   6.663   5.247  0.1151 -0.2533  0.0896
 1322loPI   GL121141   5.901   6.523   5.690 -0.0321  0.1718 -0.0548
 1322loPI   GL221142   5.654   6.215   5.812 -0.1826  0.2101 -0.0370
 1322loPI   C1A21143   6.012   6.464   6.057  0.0049 -0.1680  0.0291
 1322loPI   C2A21144   6.046   6.528   6.473  0.3021 -0.0792  0.2996
 1322loPI   C3A21145   6.029   6.583   6.936 -0.0631  0.1003  0.1833
 1322loPI   C4A21146   6.000   6.518   7.411  0.1108 -0.0803 -0.1558
 1322loPI   C5A21147   5.868   6.474   7.832 -0.2828 -0.0710 -0.1879
 1322loPI   C6A21148   5.639   6.746   8.105 -0.0777 -0.0842 -0.1427
 1322loPI   C1B21149   5.840   6.034   6.230 -0.2272 -0.0203 -0.2458
 1322loPI   C2B21150   5.813   6.085   6.616 -0.0577  0.1402  0.0745
 1322loPI   C3B21151   5.809   6.050   7.107 -0.0061 -0.0291 -0.1412
 1322loPI   C4B21152   5.740   5.999   7.489  0.3372  0.0167 -0.2549
 1323loPI    C121153   7.461  17.027   5.529  0.0679  0.3610 -0.0393
 1323loPI    C221154   7.766  17.100   5.282  0.1355 -0.1392 -0.1132
 1323loPI    C321155   7.429  16.938   5.141 -0.0880  0.2113  0.0065
 1323loPI   PO421156   7.636  16.909   5.726  0.1344 -0.1124 -0.3274
 1323loPI   GL121157   7.473  17.056   6.083  0.2450  0.1955  0.1003
 1323loPI   GL221158   7.482  17.346   6.156 -0.2080 -0.2515  0.0752
 1323loPI   C1A21159   7.221  16.800   6.443  0.0118  0.0048 -0.0972
 1323loPI   C2A21160   7.198  16.790   6.806  0.0230  0.0572 -0.0844
 1323loPI   C3A21161   7.213  16.808   7.241 -0.0517 -0.0902 -0.1484
 1323loPI   C4A21162   7.220  16.808   7.702 -0.0178 -0.1562 -0.1485
 1323loPI   C5A21163   7.227  16.696   8.176  0.1201 -0.1122  0.3322
 1323loPI   C6A21164   7.274  16.975   8.467 -0.0182  0.1447 -0.1753
 1323loPI   C1B21165   7.434  17.232   6.571 -0.1784 -0.2389  0.1640
 1323loPI   C2B21166   7.484  17.275   7.037 -0.0565 -0.2806  0.1389
 1323loPI   C3B21167   7.436  17.257   7.477 -0.0402  0.2204 -0.0923
 1323loPI   C4B21168   7.449  17.132   7.961  0.0845  0.2170  0.1544
 1324loPI    C121169   4.882   6.341   5.256 -0.0741  0.2306 -0.1048
 1324loPI    C221170   5.198   6.321   5.501 -0.0857  0.1375 -0.0968
 1324loPI    C321171   5.252   6.379   5.108 -0.0587  0.1225 -0.0954
 1324loPI   PO421172   4.739   6.313   5.447  0.0159 -0.0636  0.1588
 1324loPI   GL121173   4.657   6.303   5.888 -0.0249  0.2990 -0.3256
 1324loPI   GL221174   4.974   6.317   5.979 -0.2469  0.0281  0.1682
 1324loPI   C1A21175   4.398   6.389   6.261  0.0217 -0.0880  0.2468
 1324loPI   C2A21176   4.466   6.370   6.689  0.1434  0.2099 -0.1045
 1324loPI   C3A21177   4.518   6.356   7.164 -0.2421 -0.1646  0.2057
 1324loPI   C4A21178   4.484   6.344   7.618  0.0722 -0.0990 -0.1990
 1324loPI   C5A21179   4.522   6.251   8.031  0.1294 -0.0745  0.1641
 1324loPI   C6A21180   4.925   6.124   8.269 -0.0285 -0.0150 -0.0528
 1324loPI   C1B21181   4.974   6.322   6.360  0.1825  0.3703 -0.3711
 1324loPI   C2B21182   4.991   6.352   6.834  0.0883  0.0095  0.2368
 1324loPI   C3B21183   4.985   6.396   7.281  0.0047  0.1551  0.0589
 1324loPI   C4B21184   4.962   6.309   7.745  0.0960  0.1733  0.2825
 1325loPI    C121185   7.331   6.581   5.298  0.1128  0.0878  0.0769
 1325loPI    C221186   7.391   6.548   4.904  0.3077  0.2038  0.0959
 1325loPI    C321187   7.085   6.766   5.042  0.0785 -0.0550  0.0054
 1325loPI   PO421188   7.506   6.594   5.441 -0.1710 -0.0907 -0.3685
 1325loPI   GL121189   7.549   6.517   5.874  0.2082 -0.0210  0.0926
 1325loPI   GL221190   7.685   6.277   5.924 -0.1211 -0.2799 -0.0112
 1325loPI   C1A21191   7.503   6.670   6.384 -0.0655 -0.2762 -0.2622
 1325loPI   C2A21192   7.567   6.733   6.849 -0.0121 -0.2993  0.1226
 1325loPI   C3A21193   7.511   6.777   7.365 -0.1580  0.1402 -0.1165
 1325loPI   C4A21194   7.445   6.643   7.814 -0.1011  0.1052  0.1283
 1325loPI   C5A21195   7.651   6.447   8.206  0.0499  0.0650  0.2758
 1325loPI   C6A21196   7.896   6.458   8.595  0.0617 -0.0937  0.0853
 1325loPI   C1B21197   7.873   6.332   6.405 -0.0352 -0.0279  0.0102
 1325loPI   C2B21198   7.912   6.353   6.846  0.1878 -0.2354  0.1222
 1325loPI   C3B21199   7.834   6.413   7.276 -0.3302  0.2228 -0.0732
 1325loPI   C4B21200   7.843   6.260   7.636  0.1215  0.2100  0.0594
 1326loPI    C121201  15.598   2.757   5.414 -0.0269  0.2321  0.0396
 1326loPI    C221202  15.739   2.400   5.300 -0.3252  0.0805  0.1336
 1326loPI    C321203  15.935   2.734   5.200 -0.1352 -0.0980 -0.1029
 1326loPI   PO421204  15.500   2.638   5.697  0.2875  0.2351  0.1648
 1326loPI   GL121205  15.379   2.418   6.046  0.1335  0.0160  0.0004
 1326loPI   GL221206  15.631   2.435   6.112  0.3191  0.2591 -0.1866
 1326loPI   C1A21207  15.133   2.529   6.415  0.0850  0.0996 -0.0943
 1326loPI   C2A21208  15.203   2.558   6.821 -0.0092 -0.0604 -0.0029
 1326loPI   C3A21209  15.245   2.539   7.221  0.1768 -0.1266  0.1923
 1326loPI   C4A21210  15.156   2.610   7.625  0.4048 -0.0117  0.1112
 1326loPI   C5A21211  15.132   2.497   8.064  0.1823  0.1920  0.0423
 1326loPI   C6A21212  14.947   2.768   8.373  0.0891 -0.4858 -0.0544
 1326loPI   C1B21213  15.699   2.509   6.512 -0.3340  0.2532 -0.1603
 1326loPI   C2B21214  15.693   2.609   6.914 -0.0745  0.0977  0.2111
 1326loPI   C3B21215  15.728   2.540   7.387  0.4302 -0.0054  0.0702
 1326loPI   C4B21216  15.665   2.667   7.915  0.0821 -0.0255 -0.0451
 1327loPI    C121217   3.291   8.828   5.393 -0.2879 -0.1384  0.0713
 1327loPI    C221218   2.928   8.844   5.227 -0.2142  0.1326 -0.0691
 1327loPI    C321219   3.253   8.917   5.005 -0.0925  0.1682  0.1190
 1327loPI   PO421220   3.194   8.902   5.675  0.1933  0.0479 -0.0436
 1327loPI   GL121221   2.983   8.744   5.992 -0.1362 -0.2352 -0.0909
 1327loPI   GL221222   3.251   8.942   6.170 -0.3974 -0.0430 -0.3178
 1327loPI   C1A21223   2.971   8.428   6.281  0.1181 -0.0968 -0.0999
 1327loPI   C2A21224   2.999   8.407   6.740 -0.2152  0.0915 -0.0828
 1327loPI   C3A21225   2.947   8.405   7.185 -0.0091  0.0548 -0.0212
 1327loPI   C4A21226   2.926   8.408   7.580  0.0643 -0.0937 -0.1131
 1327loPI   C5A21227   2.898   8.429   8.001  0.0835  0.0121 -0.2782
 1327loPI   C6A21228   3.163   8.634   8.288  0.0576 -0.1326  0.3198
 1327loPI   C1B21229   3.160   8.955   6.581  0.2779  0.2498 -0.3483
 1327loPI   C2B21230   3.143   8.855   7.012 -0.1692  0.0739  0.0498
 1327loPI   C3B21231   3.144   8.949   7.423 -0.1713 -0.2647  0.1120
 1327loPI   C4B21232   3.068   8.896   7.817  0.0319  0.2280 -0.0927
 1328loPI    C121233  13.440   1.144   5.873  0.0326  0.0279  0.0301
 1328loPI    C221234  13.411   1.064   5.482 -0.1240  0.1146  0.0230
 1328loPI    C321235  13.556   1.417   5.604 -0.1524  0.1198  0.0417
 1328loPI   PO421236  13.522   0.940   5.958 -0.1861  0.0042 -0.2073
 1328loPI   GL121237  13.833   0.865   6.310  0.2378  0.0493  0.0018
 1328loPI   GL221238  13.927   1.182   6.506 -0.2341  0.2266 -0.2182
 1328loPI   C1A21239  13.837   0.713   6.762  0.1262  0.1218  0.0395
 1328loPI   C2A21240  13.775   0.597   7.164  0.0571  0.2569 -0.0619
 1328loPI   C3A21241  13.758   0.637   7.652  0.0341 -0.0953  0.1740
 1328loPI   C4A21242  13.722   0.550   8.146  0.3762 -0.1445  0.0321
 1328loPI   C5A21243  13.889   0.521   8.561  0.0557 -0.0467 -0.0223
 1328loPI   C6A21244  13.723   0.454   8.956  0.2705  0.1011 -0.0923
 1328loPI   C1B21245  14.019   1.189   6.982  0.1468  0.1205 -0.3465
 1328loPI   C2B21246  13.997   1.171   7.462 -0.2186 -0.1815  0.0695
 1328loPI   C3B21247  14.008   1.139   7.923 -0.1459 -0.2137 -0.0105
 1328loPI   C4B21248  13.906   0.984   8.349 -0.1065  0.2600 -0.1590
 1329loPI    C121249  14.841   9.252   5.754 -0.1386  0.2741 -0.0558
 1329loPI    C221250  15.065   9.221   5.424 -0.0367 -0.2138  0.0512
 1329loPI    C321251  14.852   9.553   5.491  0.4306  0.1467 -0.1904
 1329loPI   PO421252  14.774   9.052   5.826 -0.0191  0.1114 -0.2348
 1329loPI   GL121253  14.550   8.813   6.059 -0.1891 -0.2266  0.0631
 1329loPI   GL221254  14.462   8.575   6.368 -0.1753 -0.1948  0.0894
 1329loPI   C1A21255  14.640   8.962   6.553  0.0719 -0.1390 -0.1135
 1329loPI   C2A21256  14.668   9.088   7.054 -0.1800  0.1314  0.1173
 1329loPI   C3A21257  14.580   9.061   7.464 -0.0330  0.0309  0.1846
 1329loPI   C4A21258  14.535   9.084   7.841 -0.1585  0.1783 -0.3785
 1329loPI   C5A21259  14.648   9.126   8.296  0.1935 -0.0695  0.1212
 1329loPI   C6A21260  14.409   9.030   8.518 -0.0192 -0.0044  0.0700
 1329loPI   C1B21261  14.437   8.599   6.798 -0.1415 -0.1401 -0.0340
 1329loPI   C2B21262  14.444   8.607   7.249 -0.0016 -0.1359 -0.0348
 1329loPI   C3B21263  14.410   8.622   7.682 -0.0455 -0.0500  0.0687
 1329loPI   C4B21264  14.445   8.650   8.082  0.1626 -0.1568  0.1916
 1330loPI    C121265   3.541  10.532   5.268  0.0812 -0.3058  0.1258
 1330loPI    C221266   3.340  10.391   4.952  0.2377  0.0314 -0.1301
 1330loPI    C321267   3.740  10.370   4.961  0.2410  0.1340 -0.0108
 1330loPI   PO421268   3.437  10.421   5.480 -0.1021 -0.0306 -0.1536
 1330loPI   GL121269   3.287  10.595   5.894 -0.1188  0.2704  0.1010
 1330loPI   GL221270   2.976  10.523   5.839  0.0285  0.2624 -0.0313
 1330loPI   C1A21271   3.487  10.658   6.203 -0.0540  0.1530 -0.0760
 1330loPI   C2A21272   3.440  10.828   6.565  0.0712  0.0958  0.1358
 1330loPI   C3A21273   3.327  10.805   6.957 -0.3086  0.3227 -0.2069
 1330loPI   C4A21274   3.336  10.746   7.370 -0.2324  0.0942 -0.1475
 1330loPI   C5A21275   3.378  10.674   7.799  0.0653 -0.1158  0.1638
 1330loPI   C6A21276   3.336  10.870   8.200  0.0189 -0.0062  0.0262
 1330loPI   C1B21277   2.937  10.667   6.253  0.1024 -0.1750 -0.1943
 1330loPI   C2B21278   2.905  10.630   6.691  0.4060 -0.1108  0.1124
 1330loPI   C3B21279   2.864  10.726   7.104 -0.2958 -0.1591 -0.2333
 1330loPI   C4B21280   2.789  10.701   7.529  0.0358 -0.0831 -0.0332
 1331loPI    C121281   6.605   4.878   5.215 -0.1468 -0.2127 -0.1134
 1331loPI    C221282   6.332   4.884   5.507 -0.0256  0.1154 -0.0012
 1331loPI    C321283   6.329   5.168   5.225  0.2822  0.2027  0.0803
 1331loPI   PO421284   6.825   4.727   5.319  0.1192  0.1234  0.1060
 1331loPI   GL121285   7.005   4.848   5.631  0.2265  0.0409  0.0167
 1331loPI   GL221286   6.738   4.724   5.810 -0.1367  0.1087 -0.2792
 1331loPI   C1A21287   7.138   4.842   6.032 -0.5665  0.0426 -0.1955
 1331loPI   C2A21288   7.270   4.942   6.422 -0.2495 -0.2886  0.0906
 1331loPI   C3A21289   7.291   4.947   6.918 -0.1376  0.0255 -0.2356
 1331loPI   C4A21290   7.262   4.930   7.343 -0.0232  0.0391  0.0534
 1331loPI   C5A21291   7.210   4.909   7.741 -0.4606 -0.4016 -0.2474
 1331loPI   C6A21292   7.085   4.637   8.093  0.0746 -0.0262  0.0211
 1331loPI   C1B21293   6.650   4.831   6.260 -0.0118 -0.2606 -0.0377
 1331loPI   C2B21294   6.745   4.925   6.622 -0.2140  0.0339  0.2134
 1331loPI   C3B21295   6.685   4.906   7.033 -0.1996  0.0535 -0.1283
 1331loPI   C4B21296   6.682   4.842   7.457  0.0230 -0.0158  0.0010
 1332loPI    C121297   6.367  15.578   5.345  0.0985 -0.0697  0.0264
 1332loPI    C221298   6.676  15.809   5.241 -0.0002 -0.0303 -0.1858
 1332loPI    C321299   6.304  15.956   5.231 -0.0295 -0.0837  0.0484
 1332loPI   PO421300   6.358  15.470   5.572 -0.0146 -0.0029 -0.0206
 1332loPI   GL121301   6.215  15.471   5.975 -0.1084 -0.2360 -0.1960
 1332loPI   GL221302   6.408  15.770   6.014  0.0393  0.0569 -0.2941
 1332loPI   C1A21303   6.226  15.273   6.436 -0.0655  0.0356  0.2200
 1332loPI   C2A21304   6.271  15.218   6.883 -0.1909 -0.3210  0.1863
 1332loPI   C3A21305   6.202  15.167   7.264 -0.0764  0.0895 -0.0889
 1332loPI   C4A21306   6.228  15.196   7.691  0.1719 -0.2415 -0.0021
 1332loPI   C5A21307   6.042  15.115   8.078  0.0106 -0.0612  0.0280
 1332loPI   C6A21308   5.641  14.978   8.250 -0.1254 -0.1386 -0.0939
 1332loPI   C1B21309   6.412  15.818   6.465 -0.2070  0.0379  0.1736
 1332loPI   C2B21310   6.407  15.710   6.872  0.1645  0.2045 -0.2470
 1332loPI   C3B21311   6.381  15.682   7.297 -0.0816 -0.1325 -0.1256
 1332loPI   C4B21312   6.350  15.783   7.711  0.1114  0.2128  0.1904
 1333loPI    C121313   0.484  11.326   5.373 -0.0820 -0.1491 -0.0676
 1333loPI    C221314   0.115  11.171   5.381 -0.0386 -0.2453  0.1358
 1333loPI    C321315   0.240  11.374   5.060 -0.4523  0.2379  0.2669
 1333loPI   PO421316   0.508  11.471   5.595  0.1480 -0.2133  0.2334
 1333loPI   GL121317   0.649  11.442   6.012  0.0593 -0.0188  0.0403
 1333loPI   GL221318   0.351  11.185   6.230 -0.2586  0.1777 -0.0837
 1333loPI   C1A21319   0.816  11.222   6.396 -0.0175  0.0885  0.1965
 1333loPI   C2A21320   0.736  11.300   6.834 -0.3699 -0.3595 -0.0070
 1333loPI   C3A21321   0.725  11.347   7.336 -0.2366  0.1244  0.0882
 1333loPI   C4A21322   0.759  11.291   7.770 -0.1219  0.0031 -0.0041
 1333loPI   C5A21323   0.550  11.296   8.141 -0.1001 -0.0474  0.2093
 1333loPI   C6A21324   0.196  11.100   8.366 -0.2502  0.1725  0.1038
 1333loPI   C1B21325   0.203  11.240   6.690  0.1236 -0.1077 -0.0225
 1333loPI   C2B21326   0.280  11.298   7.097  0.0729  0.0244  0.2590
 1333loPI   C3B21327   0.196  11.309   7.510  0.3524  0.1303 -0.0499
 1333loPI   C4B21328   0.182  11.195   7.852  0.0420 -0.0152  0.4151
 1334loPI    C121329  14.245  15.522   5.324 -0.2319 -0.2332 -0.1409
 1334loPI    C221330  14.423  15.344   5.013 -0.0363  0.0005 -0.1652
 1334loPI    C321331  14.325  15.731   4.993 -0.0124  0.0200  0.0674
 1334loPI   PO421332  14.429  15.443   5.572 -0.1690 -0.0130  0.2547
 1334loPI   GL121333  14.788  15.297   5.846  0.0329 -0.1940 -0.0193
 1334loPI   GL221334  14.841  14.973   5.905 -0.0255  0.0129 -0.2025
 1334loPI   C1A21335  14.932  15.415   6.237  0.0056 -0.3287  0.4115
 1334loPI   C2A21336  14.911  15.376   6.676  0.1543 -0.0322  0.2699
 1334loPI   C3A21337  14.834  15.432   7.100 -0.0130 -0.0218 -0.0493
 1334loPI   C4A21338  14.799  15.346   7.480  0.0708  0.2600 -0.1462
 1334loPI   C5A21339  14.843  15.316   7.887 -0.0479 -0.0473  0.0177
 1334loPI   C6A21340  14.872  15.421   8.425  0.1162 -0.1452 -0.0536
 1334loPI   C1B21341  14.708  15.041   6.368 -0.0434  0.0904 -0.0097
 1334loPI   C2B21342  14.602  14.921   6.790 -0.2597 -0.1279 -0.2645
 1334loPI   C3B21343  14.595  14.918   7.192 -0.3447  0.1031  0.1088
 1334loPI   C4B21344  14.658  14.891   7.696  0.1630  0.0493  0.0427
 1335loPI    C121345  14.313   8.738   5.571 -0.1766 -0.3487 -0.2418
 1335loPI    C221346  14.126   8.938   5.279 -0.3261 -0.2478 -0.0791
 1335loPI    C321347  14.433   9.106   5.472 -0.2101 -0.3250 -0.1943
 1335loPI   PO421348  14.151   8.674   5.774 -0.2098 -0.1158 -0.1075
 1335loPI   GL121349  14.008   8.682   6.178 -0.0988  0.1299  0.1619
 1335loPI   GL221350  14.176   9.042   6.326  0.0776 -0.2563  0.1731
 1335loPI   C1A21351  13.924   8.577   6.608 -0.2340  0.1937 -0.1132
 1335loPI   C2A21352  13.938   8.613   7.088 -0.0157  0.0944  0.0312
 1335loPI   C3A21353  13.875   8.511   7.564  0.0559  0.0777  0.1822
 1335loPI   C4A21354  13.947   8.546   8.054  0.1068  0.1056  0.0190
 1335loPI   C5A21355  13.948   8.547   8.430  0.0183  0.2654 -0.0911
 1335loPI   C6A21356  14.127   8.255   8.788 -0.1587 -0.2571  0.1950
 1335loPI   C1B21357  14.156   9.015   6.799  0.0826  0.0065 -0.5266
 1335loPI   C2B21358  14.156   9.044   7.214  0.1120  0.0133 -0.3569
 1335loPI   C3B21359  14.120   9.021   7.609 -0.0870  0.2004  0.1556
 1335loPI   C4B21360  14.072   9.029   7.993 -0.3072 -0.1819 -0.1619
 1336loPI    C121361   9.399  13.181   5.202 -0.0574 -0.0061 -0.0604
 1336loPI    C221362   9.274  13.417   4.904 -0.0426  0.0934  0.0115
 1336loPI    C321363   9.567  13.153   4.840 -0.0331  0.1209 -0.0596
 1336loPI   PO421364   9.258  13.255   5.418  0.1682  0.1948 -0.2713
 1336loPI   GL121365   9.172  13.214   5.790 -0.0570 -0.1770  0.1722
 1336loPI   GL221366   9.380  13.136   6.010 -0.0034  0.1545  0.1260
 1336loPI   C1A21367   8.916  13.290   6.165 -0.1906 -0.1967 -0.2633
 1336loPI   C2A21368   8.699  13.320   6.520  0.0247 -0.1937 -0.0227
 1336loPI   C3A21369   8.787  13.206   6.947  0.0531 -0.0493 -0.3762
 1336loPI   C4A21370   8.708  13.354   7.337  0.2281  0.1934  0.1820
 1336loPI   C5A21371   8.668  13.290   7.795  0.1422 -0.0382  0.1457
 1336loPI   C6A21372   8.460  13.244   8.140 -0.1184 -0.1661  0.0445
 1336loPI   C1B21373   9.299  13.330   6.463  0.0949 -0.1652  0.2470
 1336loPI   C2B21374   9.288  13.349   6.985  0.1818 -0.1646 -0.0812
 1336loPI   C3B21375   9.220  13.398   7.432  0.1745  0.0534 -0.0478
 1336loPI   C4B21376   9.160  13.392   7.902 -0.1015  0.0711 -0.0057
 1337loPI    C121377  15.938   4.505   5.460 -0.0101  0.0559 -0.0147
 1337loPI    C221378  15.863   4.866   5.304 -0.1894  0.0045 -0.0489
 1337loPI    C321379  16.032   4.582   5.079 -0.1278  0.0398 -0.0473
 1337loPI   PO421380  15.690   4.422   5.566  0.2435 -0.0348  0.3213
 1337loPI   GL121381  15.538   4.463   6.015 -0.0025  0.3257 -0.1563
 1337loPI   GL221382  15.634   4.168   6.161  0.0661 -0.4540  0.1889
 1337loPI   C1A21383  15.695   4.661   6.412  0.0490  0.4453  0.2573
 1337loPI   C2A21384  15.689   4.747   6.853 -0.1879  0.2380 -0.2823
 1337loPI   C3A21385  15.750   4.812   7.352  0.0091  0.2072 -0.1303
 1337loPI   C4A21386  15.742   4.779   7.780  0.1301 -0.1132  0.0218
 1337loPI   C5A21387  15.578   4.681   8.107  0.1971 -0.1038  0.0176
 1337loPI   C6A21388  15.652   4.826   8.484 -0.0590  0.1253 -0.0002
 1337loPI   C1B21389  15.495   4.254   6.626 -0.0966 -0.1086 -0.2569
 1337loPI   C2B21390  15.505   4.314   7.134  0.1386 -0.1117  0.2892
 1337loPI   C3B21391  15.524   4.355   7.633 -0.3057 -0.0520  0.0268
 1337loPI   C4B21392  15.515   4.208   8.035  0.2105 -0.1922  0.1375
 1338loPI    C121393   6.581   5.694   4.952 -0.0530  0.0018  0.0569
 1338loPI    C221394   6.924   5.850   4.817 -0.1487  0.0107 -0.1796
 1338loPI    C321395   6.599   6.081   4.853 -0.1341 -0.0002  0.0336
 1338loPI   PO421396   6.708   5.542   5.153  0.1507 -0.1577  0.0020
 1338loPI   GL121397   6.842   5.615   5.592 -0.0574 -0.0220 -0.0601
 1338loPI   GL221398   6.635   5.353   5.623  0.1704 -0.0736  0.0952
 1338loPI   C1A21399   6.986   5.324   5.958  0.1140  0.2302 -0.2098
 1338loPI   C2A21400   6.964   5.324   6.380 -0.0206 -0.4176  0.1953
 1338loPI   C3A21401   6.948   5.333   6.814 -0.1795 -0.5871 -0.1574
 1338loPI   C4A21402   6.956   5.341   7.348 -0.2910  0.1857 -0.1867
 1338loPI   C5A21403   6.856   5.292   7.778  0.2734  0.0588 -0.0147
 1338loPI   C6A21404   6.368   5.132   7.763 -0.0492  0.1296  0.1427
 1338loPI   C1B21405   6.493   5.224   6.030  0.0760  0.2237  0.1031
 1338loPI   C2B21406   6.385   5.282   6.407  0.1825  0.0542 -0.0789
 1338loPI   C3B21407   6.390   5.340   6.864 -0.0783  0.1032 -0.1010
 1338loPI   C4B21408   6.367   5.229   7.265 -0.0707  0.0196  0.1136
 1339loPI    C121409   2.504   6.714   5.707  0.2498 -0.0073 -0.0353
 1339loPI    C221410   2.410   6.705   5.318  0.0510  0.1100  0.0088
 1339loPI    C321411   2.669   6.977   5.455  0.0515  0.1275 -0.0266
 1339loPI   PO421412   2.372   6.549   5.838  0.0489  0.0276 -0.0685
 1339loPI   GL121413   2.048   6.598   6.031  0.2941  0.0322 -0.2487
 1339loPI   GL221414   2.312   6.844   6.220 -0.1654 -0.1522  0.1085
 1339loPI   C1A21415   2.047   6.523   6.483 -0.0281 -0.1808  0.1745
 1339loPI   C2A21416   2.133   6.547   6.842 -0.1157  0.2972 -0.0658
 1339loPI   C3A21417   2.121   6.508   7.245  0.3762 -0.4845 -0.1171
 1339loPI   C4A21418   2.159   6.572   7.714 -0.0666  0.2534  0.2182
 1339loPI   C5A21419   2.156   6.540   8.146 -0.2953  0.1112  0.2281
 1339loPI   C6A21420   2.034   6.598   8.596 -0.1455  0.0391 -0.2963
 1339loPI   C1B21421   2.346   6.963   6.630 -0.1213 -0.1462  0.0228
 1339loPI   C2B21422   2.363   6.932   7.068 -0.2689 -0.1809  0.0807
 1339loPI   C3B21423   2.384   7.008   7.439 -0.0229  0.1845  0.0088
 1339loPI   C4B21424   2.340   7.014   7.841  0.0012  0.0408  0.1633
 1340loPI    C121425  10.106   6.753   5.036  0.2032  0.0075  0.0986
 1340loPI    C221426   9.956   7.122   4.998 -0.0417 -0.0971  0.0243
 1340loPI    C321427  10.129   6.943   4.685 -0.1676 -0.1493 -0.0158
 1340loPI   PO421428  10.195   6.784   5.299  0.0749  0.2377 -0.1324
 1340loPI   GL121429   9.939   6.851   5.778 -0.1890 -0.1838  0.2621
 1340loPI   GL221430  10.139   7.127   5.968 -0.1264  0.1840  0.0093
 1340loPI   C1A21431   9.965   6.573   6.089  0.2417  0.3900 -0.1365
 1340loPI   C2A21432   9.919   6.546   6.561  0.3440 -0.1891 -0.1323
 1340loPI   C3A21433   9.868   6.605   7.004  0.0027 -0.0243 -0.0424
 1340loPI   C4A21434   9.821   6.574   7.364  0.0004 -0.4350 -0.1772
 1340loPI   C5A21435   9.877   6.638   7.878  0.2524  0.0910  0.0278
 1340loPI   C6A21436   9.690   6.526   8.329  0.1141 -0.1329  0.2976
 1340loPI   C1B21437  10.084   7.072   6.460 -0.3533 -0.2328  0.2775
 1340loPI   C2B21438  10.053   7.057   6.896  0.0754 -0.0328  0.0119
 1340loPI   C3B21439   9.979   7.109   7.355  0.0859  0.0364  0.0864
 1340loPI   C4B21440  10.085   7.190   7.882  0.5575  0.1079  0.1074
 1341loPI    C121441  14.263  13.975   5.661  0.0620 -0.0301  0.1425
 1341loPI    C221442  14.356  14.254   5.390  0.0677  0.1691  0.3465
 1341loPI    C321443  14.628  13.981   5.497 -0.0030 -0.0443 -0.0036
 1341loPI   PO421444  14.243  14.052   5.875  0.1685  0.1322 -0.0451
 1341loPI   GL121445  14.336  14.119   6.287 -0.0052 -0.3107  0.0492
 1341loPI   GL221446  14.324  13.822   6.381  0.1061  0.1341 -0.0995
 1341loPI   C1A21447  14.700  14.124   6.646  0.0154 -0.1177  0.2072
 1341loPI   C2A21448  14.711  13.984   6.970 -0.2282 -0.0682  0.0443
 1341loPI   C3A21449  14.831  13.928   7.463  0.0481 -0.0412  0.3433
 1341loPI   C4A21450  14.686  14.018   7.798  0.1804  0.1137  0.1890
 1341loPI   C5A21451  14.735  14.141   8.306 -0.0862 -0.1352 -0.1832
 1341loPI   C6A21452  14.977  14.385   8.666  0.1305 -0.4069  0.3942
 1341loPI   C1B21453  14.187  13.993   6.792 -0.1498 -0.0320  0.1717
 1341loPI   C2B21454  14.281  13.978   7.270 -0.0616  0.2240 -0.1205
 1341loPI   C3B21455  14.245  13.911   7.681  0.0769 -0.1470 -0.0421
 1341loPI   C4B21456  14.264  13.914   8.116  0.1222  0.3497 -0.0018
 1342loPI    C121457  17.397  11.961   5.716  0.0917  0.0219 -0.0064
 1342loPI    C221458  17.185  11.753   5.984  0.0892 -0.1340 -0.1277
 1342loPI    C321459  17.392  11.562   5.701  0.1685  0.0267 -0.1797
 1342loPI   PO421460  17.533  12.109   5.838 -0.0357 -0.1880 -0.0448
 1342loPI   GL121461  17.501  12.147   6.239 -0.0074 -0.0731  0.1038
 1342loPI   GL221462  17.171  12.155   6.324 -0.0562 -0.0539  0.1944
 1342loPI   C1A21463  17.784  12.068   6.568  0.1815  0.3420 -0.0286
 1342loPI   C2A21464  17.809  12.071   6.936 -0.1606 -0.0144 -0.1242
 1342loPI   C3A21465  17.852  12.156   7.375  0.1490 -0.0909 -0.1044
 1342loPI   C4A21466  17.836  12.124   7.815  0.1072  0.2315 -0.2144
 1342loPI   C5A21467  17.649  12.113   8.200 -0.4131  0.1936  0.0199
 1342loPI   C6A21468  17.770  12.297   8.574  0.0238  0.1572 -0.0015
 1342loPI   C1B21469  17.289  12.027   6.718 -0.1077 -0.1754  0.3748
 1342loPI   C2B21470  17.327  12.070   7.111  0.0479 -0.2655 -0.1103
 1342loPI   C3B21471  17.420  12.105   7.564  0.0843  0.1037 -0.0244
 1342loPI   C4B21472  17.255  12.156   7.908 -0.0678 -0.0845  0.0695
 1343loPI    C121473   1.092   0.085   5.696  0.0602  0.1073 -0.0376
 1343loPI    C221474   1.139   0.261   5.340  0.0017  0.1216 -0.0383
 1343loPI    C321475   1.307  -0.095   5.411  0.0606  0.1448 -0.0610
 1343loPI   PO421476   1.173   0.287   5.886 -0.0941 -0.3062  0.1453
 1343loPI   GL121477   1.438   0.327   6.217 -0.1419  0.0491 -0.0877
 1343loPI   GL221478   1.502   0.621   6.393  0.2781 -0.1187  0.0548
 1343loPI   C1A21479   1.310   0.283   6.697  0.0236  0.0925 -0.1913
 1343loPI   C2A21480   1.309   0.181   7.143  0.1735 -0.4113  0.0578
 1343loPI   C3A21481   1.209   0.302   7.557 -0.0148  0.0963  0.0081
 1343loPI   C4A21482   1.171   0.356   8.024  0.1438  0.0552  0.1539
 1343loPI   C5A21483   1.205   0.526   8.479  0.1911  0.0863 -0.3181
 1343loPI   C6A21484   0.920   0.753   8.840 -0.3608 -0.3210  0.2235
 1343loPI   C1B21485   1.542   0.669   6.918 -0.1426  0.1687  0.0057
 1343loPI   C2B21486   1.478   0.668   7.368  0.0319 -0.2843  0.0210
 1343loPI   C3B21487   1.425   0.734   7.777  0.0728  0.1198  0.4126
 1343loPI   C4B21488   1.325   0.928   8.200  0.1281  0.0507  0.3784
 1344loPI    C121489  14.547  17.332   5.457 -0.0984 -0.1047 -0.0141
 1344loPI    C221490  14.597  17.360   5.061  0.3012 -0.1090  0.0325
 1344loPI    C321491  14.591  17.691   5.285  0.0980 -0.1081  0.0268
 1344loPI   PO421492  14.691  17.125   5.592  0.0138  0.0266 -0.3662
 1344loPI   GL121493  14.634  17.267   6.130  0.2751  0.1472  0.1937
 1344loPI   GL221494  14.904  17.062   6.122 -0.0788 -0.2882 -0.1023
 1344loPI   C1A21495  14.698  17.167   6.578 -0.0849  0.0005  0.1529
 1344loPI   C2A21496  14.679  17.017   7.034  0.4301 -0.1101 -0.2198
 1344loPI   C3A21497  14.621  17.116   7.545  0.2245  0.2409  0.1411
 1344loPI   C4A21498  14.706  17.092   7.928  0.1295 -0.3482 -0.1578
 1344loPI   C5A21499  14.665  17.177   8.390  0.2044  0.2906  0.2799
 1344loPI   C6A21500  14.675  17.161   8.833  0.0395 -0.2233  0.0862
 1344loPI   C1B21501  14.938  16.688   6.481 -0.2345 -0.1786  0.2894
 1344loPI   C2B21502  15.013  16.673   6.913 -0.4800 -0.0426 -0.4482
 1344loPI   C3B21503  14.947  16.673   7.358 -0.0536 -0.1041 -0.0402
 1344loPI   C4B21504  14.970  16.707   7.694  0.3173  0.0836 -0.1307
 1345loPI    C121505   3.301   2.861   5.367 -0.1321 -0.0709  0.1592
 1345loPI    C221506   2.982   2.620   5.385 -0.1219 -0.1160 -0.1910
 1345loPI    C321507   3.025   2.873   5.078  0.0920  0.0161 -0.0553
 1345loPI   PO421508   3.374   2.964   5.646  0.0189  0.0627 -0.0875
 1345loPI   GL121509   3.303   2.951   6.072  0.1491  0.3354  0.0317
 1345loPI   GL221510   3.056   3.108   6.272  0.0801  0.0994 -0.2205
 1345loPI   C1A21511   3.361   2.682   6.472 -0.1274  0.1116  0.1325
 1345loPI   C2A21512   3.428   2.625   6.901  0.1250  0.0727 -0.0437
 1345loPI   C3A21513   3.387   2.585   7.363 -0.2089 -0.1404  0.0346
 1345loPI   C4A21514   3.387   2.622   7.897 -0.0112 -0.0151 -0.1028
 1345loPI   C5A21515   3.617   2.607   8.316 -0.1845  0.1389  0.1060
 1345loPI   C6A21516   3.478   2.560   8.733 -0.1958 -0.2827 -0.2006
 1345loPI   C1B21517   3.152   3.082   6.687  0.0324 -0.2087 -0.2103
 1345loPI   C2B21518   3.188   3.035   7.168 -0.1943  0.0586 -0.0004
 1345loPI   C3B21519   3.122   2.951   7.616 -0.0308 -0.1617 -0.1311
 1345loPI   C4B21520   2.985   2.906   8.029  0.1201 -0.1591 -0.0212
 1346loPI    C121521   2.417   4.251   5.462 -0.1161 -0.0190  0.1016
 1346loPI    C221522   2.762   4.063   5.389  0.0335  0.2039  0.2221
 1346loPI    C321523   2.691   4.421   5.225 -0.0517  0.2531  0.3649
 1346loPI   PO421524   2.408   4.224   5.707  0.0155 -0.1699  0.1910
 1346loPI   GL121525   2.634   4.327   6.078  0.1332  0.2886  0.1834
 1346loPI   GL221526   2.659   4.595   6.129  0.0319 -0.1388  0.0648
 1346loPI   C1A21527   2.476   4.173   6.430 -0.0082  0.2974  0.0260
 1346loPI   C2A21528   2.422   3.857   6.747  0.0891 -0.0872 -0.5211
 1346loPI   C3A21529   2.448   3.840   7.218 -0.1585  0.0233  0.0315
 1346loPI   C4A21530   2.451   3.977   7.600  0.0555 -0.2061  0.3729
 1346loPI   C5A21531   2.665   4.160   7.860 -0.0336  0.2241 -0.0936
 1346loPI   C6A21532   2.662   4.255   8.230 -0.0120 -0.0135 -0.1991
 1346loPI   C1B21533   2.338   4.733   6.446  0.0187  0.0968 -0.0914
 1346loPI   C2B21534   2.276   4.791   6.868  0.0674 -0.0642  0.1944
 1346loPI   C3B21535   2.352   5.052   7.240 -0.3231 -0.0655 -0.0690
 1346loPI   C4B21536   2.333   4.788   7.660 -0.4964  0.4328  0.2010
 1347loPI    C121537   7.413   1.518   5.419 -0.0132 -0.0873 -0.0280
 1347loPI    C221538   7.695   1.416   5.155 -0.0219 -0.0629 -0.0467
 1347loPI    C321539   7.326   1.506   5.029 -0.0618 -0.1793 -0.0148
 1347loPI   PO421540   7.405   1.483   5.663 -0.0554  0.2760  0.2144
 1347loPI   GL121541   7.300   1.669   6.010 -0.1988  0.0051 -0.5060
 1347loPI   GL221542   6.907   1.648   6.037  0.0202  0.1623 -0.1671
 1347loPI   C1A21543   7.432   1.782   6.344  0.0868  0.0724 -0.3744
 1347loPI   C2A21544   7.414   1.768   6.732 -0.1219 -0.0865  0.1124
 1347loPI   C3A21545   7.472   1.891   7.166 -0.1894 -0.0257  0.2393
 1347loPI   C4A21546   7.350   1.847   7.653  0.0093  0.5325 -0.0494
 1347loPI   C5A21547   7.223   1.821   8.026  0.3272 -0.3701  0.0271
 1347loPI   C6A21548   7.053   2.077   8.324  0.2692 -0.0937 -0.4712
 1347loPI   C1B21549   6.942   1.709   6.556 -0.0108  0.1920  0.3788
 1347loPI   C2B21550   6.857   1.679   6.995 -0.1926 -0.1202 -0.0675
 1347loPI   C3B21551   6.936   1.689   7.420 -0.1225 -0.1466 -0.0634
 1347loPI   C4B21552   6.780   1.698   7.777 -0.0894  0.1305  0.1888
 1348loPI    C121553   2.856  14.012   5.396 -0.0239  0.0528  0.0192
 1348loPI    C221554   3.003  14.372   5.302  0.0901  0.0390  0.1421
 1348loPI    C321555   3.238  14.049   5.285 -0.0633 -0.0608 -0.1583
 1348loPI   PO421556   2.645  14.137   5.547 -0.0408  0.0214 -0.2385
 1348loPI   GL121557   2.620  14.191   5.867 -0.0794 -0.1180 -0.3326
 1348loPI   GL221558   2.802  13.926   5.971 -0.1868 -0.1902  0.1215
 1348loPI   C1A21559   2.452  14.226   6.338  0.0227 -0.0285  0.0144
 1348loPI   C2A21560   2.482  14.189   6.760  0.0345  0.0852  0.0787
 1348loPI   C3A21561   2.372  14.224   7.207 -0.0069 -0.0587 -0.0641
 1348loPI   C4A21562   2.428  14.173   7.634 -0.2349 -0.0230 -0.1282
 1348loPI   C5A21563   2.627  13.869   7.951 -0.0757  0.3322  0.2641
 1348loPI   C6A21564   3.078  13.743   7.949  0.2607 -0.2250 -0.3577
 1348loPI   C1B21565   3.171  13.851   6.282  0.0069  0.3049  0.1458
 1348loPI   C2B21566   3.337  13.896   6.704 -0.1322  0.2278 -0.2859
 1348loPI   C3B21567   3.247  13.887   7.119 -0.0791 -0.0342 -0.0344
 1348loPI   C4B21568   3.219  13.798   7.520  0.2013 -0.0101  0.2069
 1349loPI    C121569   7.390   0.165   5.491 -0.0522 -0.1197 -0.1012
 1349loPI    C221570   7.526   0.523   5.605 -0.2966 -0.1256  0.2238
 1349loPI    C321571   7.335   0.484   5.256  0.2282 -0.0552 -0.0820
 1349loPI   PO421572   7.287   0.077   5.754  0.3137 -0.2009 -0.2042
 1349loPI   GL121573   7.454   0.346   6.062  0.2663  0.1620  0.2783
 1349loPI   GL221574   7.676   0.169   6.158  0.0220  0.2637 -0.1849
 1349loPI   C1A21575   7.265   0.406   6.483  0.0252 -0.0122 -0.0193
 1349loPI   C2A21576   7.299   0.388   6.891 -0.1000 -0.2816 -0.0437
 1349loPI   C3A21577   7.285   0.402   7.356 -0.0330  0.2571 -0.3221
 1349loPI   C4A21578   7.250   0.371   7.745  0.2103 -0.2276  0.1138
 1349loPI   C5A21579   7.354   0.195   8.079 -0.1971 -0.1797 -0.2375
 1349loPI   C6A21580   7.510   0.356   8.559  0.0188  0.1958  0.4323
 1349loPI   C1B21581   7.638  -0.026   6.556 -0.0635  0.2219 -0.0162
 1349loPI   C2B21582   7.627   0.055   6.904 -0.1712  0.1990 -0.0801
 1349loPI   C3B21583   7.587   0.005   7.337  0.0833 -0.1022  0.0701
 1349loPI   C4B21584   7.675  -0.166   7.748  0.0113  0.1264  0.0828
 1350loPI    C121585  13.941  15.816   5.630 -0.1657 -0.1278 -0.0766
 1350loPI    C221586  13.955  16.170   5.445  0.1082 -0.0738  0.0428
 1350loPI    C321587  13.887  15.837   5.234  0.0123  0.0311 -0.0936
 1350loPI   PO421588  14.124  15.823   5.850  0.4110  0.0172 -0.0704
 1350loPI   GL121589  14.246  15.870   6.238  0.0186  0.1869  0.2827
 1350loPI   GL221590  14.573  15.836   6.332  0.0902 -0.0043  0.1463
 1350loPI   C1A21591  14.074  15.844   6.643 -0.2143  0.1188  0.1283
 1350loPI   C2A21592  14.074  15.797   7.077 -0.2835 -0.1417 -0.0295
 1350loPI   C3A21593  13.988  15.754   7.510  0.0929  0.1482  0.2150
 1350loPI   C4A21594  14.066  15.737   7.934  0.1496 -0.2790  0.1536
 1350loPI   C5A21595  14.197  15.568   8.289 -0.0376 -0.0142  0.0227
 1350loPI   C6A21596  14.398  15.728   8.714 -0.1066 -0.4533 -0.2989
 1350loPI   C1B21597  14.628  15.795   6.813 -0.0657 -0.2519  0.2442
 1350loPI   C2B21598  14.576  15.797   7.273  0.2538 -0.1846 -0.1831
 1350loPI   C3B21599  14.494  15.741   7.737 -0.0933 -0.0305 -0.1477
 1350loPI   C4B21600  14.619  15.724   8.086  0.2932 -0.2262 -0.1913
 1351loPI    C121601  12.895  14.406   5.821 -0.0196  0.1523 -0.2157
 1351loPI    C221602  13.160  14.172   5.634 -0.0532  0.0610 -0.1501
 1351loPI    C321603  12.960  14.452   5.429 -0.2965 -0.2249 -0.3121
 1351loPI   PO421604  12.986  14.384   6.036  0.0068 -0.1131  0.0618
 1351loPI   GL121605  12.862  14.388   6.457  0.0033 -0.4741  0.0566
 1351loPI   GL221606  12.520  14.339   6.494 -0.0843 -0.0993 -0.1074
 1351loPI   C1A21607  12.930  14.301   6.884 -0.1774  0.2537 -0.0867
 1351loPI   C2A21608  12.895  14.175   7.273 -0.1161 -0.0469 -0.0657
 1351loPI   C3A21609  12.922  14.194   7.664 -0.4842  0.0776 -0.2304
 1351loPI   C4A21610  12.888  14.144   8.085  0.1448  0.0370  0.1323
 1351loPI   C5A21611  12.944  14.029   8.503 -0.2672  0.0218  0.1468
 1351loPI   C6A21612  13.260  13.887   8.807 -0.0104 -0.0009 -0.1956
 1351loPI   C1B21613  12.451  14.173   6.889  0.0620 -0.0745  0.1059
 1351loPI   C2B21614  12.413  14.222   7.329  0.0367  0.3121 -0.0056
 1351loPI   C3B21615  12.453  14.093   7.742 -0.0127  0.0826  0.3723
 1351loPI   C4B21616  12.401  14.185   8.142 -0.0882 -0.1719 -0.0708
 1352loPI    C121617   2.629   8.007   5.529  0.0747 -0.0102 -0.1377
 1352loPI    C221618   2.366   7.970   5.230  0.0315 -0.1355 -0.0847
 1352loPI    C321619   2.686   8.206   5.186 -0.1192  0.0632 -0.1283
 1352loPI   PO421620   2.645   7.816   5.654  0.2502  0.0973 -0.0304
 1352loPI   GL121621   2.732   7.601   6.058  0.0798 -0.0793 -0.0012
 1352loPI   GL221622   2.797   7.828   6.137 -0.0097  0.0346 -0.2938
 1352loPI   C1A21623   2.574   7.421   6.482 -0.0080 -0.0884  0.0172
 1352loPI   C2A21624   2.549   7.374   6.958  0.0679  0.3818  0.0656
 1352loPI   C3A21625   2.538   7.462   7.368  0.3200 -0.1404 -0.0216
 1352loPI   C4A21626   2.559   7.486   7.751 -0.0888 -0.1586 -0.0757
 1352loPI   C5A21627   2.465   7.488   8.124 -0.0388 -0.3317 -0.1273
 1352loPI   C6A21628   2.645   7.568   8.537 -0.2439  0.0264 -0.1275
 1352loPI   C1B21629   2.790   7.995   6.515  0.2228 -0.2646 -0.0851
 1352loPI   C2B21630   2.756   7.982   6.973  0.0528  0.0873 -0.0687
 1352loPI   C3B21631   2.716   8.002   7.414 -0.0579 -0.1620 -0.0707
 1352loPI   C4B21632   2.718   7.962   7.817  0.0178 -0.0683  0.3340
 1353W        W21633   7.701   3.562   5.021 -0.1506 -0.1133  0.2013
 1354W        W21634   2.226   0.552   1.149 -0.1913 -0.1096 -0.0937
 1355W        W21635   8.255   7.855   1.808  0.0855 -0.2788  0.2840
 1356W        W21636   8.595  17.387  15.889  0.1715  0.1717  0.1640
 1357W        W21637  11.226   3.405   1.650  0.1200 -0.0330  0.2438
 1358W        W21638   9.242   0.290   0.555  0.2592  0.1657 -0.4015
 1359W        W21639  15.758  16.008   1.390 -0.0334 -0.1032  0.2365
 1360W        W21640   2.341  11.790   4.047  0.1226 -0.1129  0.1998
 1361W        W21641   2.323  12.928   2.641 -0.0990  0.0974 -0.2204
 1362W        W21642  13.115   4.045  12.926 -0.2341 -0.0834 -0.3804
 1363W        W21643  16.924  15.939  16.867  0.1378 -0.0767 -0.5292
 1364W        W21644   5.933   0.829   4.246  0.2538 -0.0258 -0.2962
 1365W        W21645  10.000   9.287  14.620  0.3184  0.1053  0.0623
 1366W        W21646   0.848   7.645  12.564 -0.3231  0.0395  0.3998
 1367W        W21647  13.642   7.409   1.324  0.0332 -0.0178  0.1189
 1368W        W21648   8.051   1.200   3.799  0.1464  0.0946  0.2999
 1369W        W21649   8.742   4.100   0.064  0.2504 -0.0230  0.2297
 1370W        W21650   3.231   5.695  16.499  0.0311  0.3143 -0.1564
 1371W        W21651   2.880   9.991  15.929  0.0214 -0.0896  0.1860
 1372W        W21652  10.721   4.762   3.937  0.0339  0.1675 -0.3216
 1373W        W21653  14.681  11.608   3.144 -0.4984 -0.1199 -0.1494
 1374W        W21654   2.598   5.847  13.954 -0.1121  0.0089  0.1469
 1375W        W21655  12.458   2.881  12.381 -0.3475  0.0944 -0.2196
 1376W        W21656  12.861   2.564   3.769 -0.0360 -0.3762 -0.1087
 1377W        W21657  17.373   2.734   0.737  0.0899 -0.0527 -0.1822
 1378W        W21658  11.905   5.565   3.722 -0.0309 -0.1910  0.0903
 1379W        W21659   0.833   6.323  16.738  0.0215  0.0380  0.4201
 1380W        W21660  13.281   6.296   0.072 -0.0984  0.2478 -0.0392
 1381W        W21661   7.651   5.249  16.350 -0.1924  0.2977  0.2184
 1382W        W21662   8.783  17.255   4.919  0.0217  0.1191 -0.0168
 1383W        W21663  14.857  12.840  13.003 -0.0315 -0.1544 -0.0020
 1384W        W21664   4.915   5.961  14.515  0.0236 -0.1820  0.2212
 1385W        W21665   2.413  12.421   3.910 -0.0924 -0.1489  0.3348
 1386W        W21666   2.764  13.377   0.238  0.1297  0.0762 -0.1303
 1387W        W21667  16.403  11.358   4.549 -0.2837 -0.0763 -0.0416
 1388W        W21668  15.174  12.242  16.870 -0.0136 -0.1028 -0.1862
 1389W        W21669  16.263  10.795   3.999 -0.1109  0.2210 -0.1092
 1390W        W21670   2.985   7.912  14.595  0.1365 -0.0497 -0.0507
 1391W        W21671  14.044  11.546   1.907  0.1234 -0.4086 -0.1408
 1392W        W21672  16.695   0.863  13.710 -0.1546  0.1507 -0.2733
 1393W        W21673  16.558   3.970  11.327 -0.1137 -0.0667  0.1170
 1394W        W21674  16.285   0.623   2.424 -0.0307 -0.2329 -0.0941
 1395W        W21675   8.558   2.496   4.737 -0.1315  0.0966  0.0115
 1396W        W21676  17.500   4.886   4.135 -0.0513 -0.0496 -0.2063
 1397W        W21677   9.908  13.487  12.111  0.1636  0.1847  0.1964
 1398W        W21678  12.521  10.436   0.614  0.0100  0.3085  0.0063
 1399W        W21679  14.724   6.198   2.835 -0.2247  0.0803  0.2882
 1400W        W21680   2.466  16.110   2.456  0.0921 -0.2035 -0.0350
 1401W        W21681  11.994   4.982  16.648  0.0547  0.1012  0.1295
 1402W        W21682   8.463   4.027  15.017 -0.1382  0.0657 -0.0200
 1403W        W21683  13.489  10.867   1.966 -0.0843  0.2925 -0.3300
 1404W        W21684   8.544  15.284  12.290 -0.0340  0.0779  0.1964
 1405W        W21685  17.590   8.679  16.360  0.0108 -0.2539  0.2338
 1406W        W21686  11.888  14.369   2.527  0.2098  0.0951 -0.1061
 1407W        W21687   5.382  10.807   1.142 -0.2373  0.2248  0.1692
 1408W        W21688   8.660   2.535   1.667  0.0724 -0.0393 -0.2312
 1409W        W21689   7.057  15.797   4.170  0.0702  0.1926  0.0167
 1410W        W21690   1.558  15.750  16.047  0.0014  0.0898 -0.1579
 1411W        W21691   8.299  16.018   2.377  0.2596  0.0521 -0.0896
 1412W        W21692   9.700   9.727  16.637  0.1810 -0.1053  0.1462
 1413W        W21693  13.857   5.772   2.451 -0.0456  0.1904 -0.0234
 1414W        W21694  14.925   3.681  12.677  0.3045 -0.0641 -0.2240
 1415W        W21695  11.908   0.079  15.497  0.0444  0.0038 -0.1933
 1416W        W21696  15.609  12.107  15.825  0.0887  0.0907  0.2617
 1417W        W21697   9.080   0.908  15.017  0.0603  0.1372  0.1591
 1418W        W21698  13.463  13.186  13.933  0.0671 -0.1628  0.0763
 1419W        W21699   2.705   5.681  16.591 -0.0198  0.1750 -0.0214
 1420W        W21700  12.231  16.002  16.718  0.0246  0.0335  0.2223
 1421W        W21701  15.731   0.670   2.952 -0.0735 -0.0287 -0.1858
 1422W        W21702   4.553   5.207  14.225  0.1686 -0.0436  0.0228
 1423W        W21703  13.824  17.539   3.484 -0.0657  0.2541  0.0878
 1424W        W21704   9.405  13.865   1.508  0.0583  0.0411  0.0087
 1425W        W21705  13.334   1.932  13.563  0.3085  0.0728 -0.0732
 1426W        W21706   4.293  12.347   4.525  0.0691 -0.1831 -0.4246
 1427W        W21707   8.696   8.109  13.310 -0.0829 -0.1707  0.2283
 1428W        W21708  17.567   4.961  16.466  0.0913 -0.1781 -0.0768
 1429W        W21709   4.367   7.200  15.811  0.2079  0.0814  0.2095
 1430W        W21710  15.035   8.870  14.591  0.4051 -0.1501 -0.0711
 1431W        W21711   0.049   6.270   4.586  0.0139 -0.0855  0.1055
 1432W        W21712   6.758  16.595   2.153 -0.1496  0.0819 -0.0490
 1433W        W21713   0.551   8.274   1.359 -0.0860 -0.0669 -0.0123
 1434W        W21714   3.768   0.683  16.577  0.0799  0.1126  0.0108
 1435W        W21715   2.513  15.586  12.443 -0.1516 -0.0463  0.0405
 1436W        W21716  16.363   8.285   1.194  0.3237 -0.0164  0.0426
 1437W        W21717  10.332  16.183  12.255  0.0037  0.0126 -0.3364
 1438W        W21718   5.025   5.153  15.722  0.0103  0.2556 -0.0713
 1439W        W21719   6.716  12.773  15.673 -0.0775  0.0934  0.0054
 1440W        W21720  15.204   1.786   2.222  0.2467  0.1820  0.1519
 1441W        W21721  12.090  13.701  12.345 -0.2509  0.3928 -0.1187
 1442W        W21722   8.207   2.458  16.674  0.0409  0.0259 -0.0061
 1443W        W21723   3.466   7.902   0.399  0.0193 -0.1211  0.1132
 1444W        W21724   4.109   3.441   5.683 -0.1703 -0.0858 -0.0308
 1445W        W21725  16.796   6.100   1.523  0.2599  0.3237  0.1067
 1446W        W21726  13.406  13.343  15.426 -0.0353  0.2964 -0.2333
 1447W        W21727   4.465  13.301   4.719  0.0820  0.1352 -0.1339
 1448W        W21728  17.450   3.141  16.708  0.1001 -0.1680 -0.0599
 1449W        W21729  16.695   5.153  14.745  0.1502 -0.0337  0.1909
 1450W        W21730   7.208  13.858   3.769  0.1078 -0.2468 -0.0344
 1451W        W21731  16.895  12.428  15.534 -0.1034  0.1166 -0.1002
 1452W        W21732  15.146  16.874  16.625 -0.0114 -0.0875 -0.3152
 1453W        W21733  14.348  11.363  12.685  0.1338 -0.0661  0.1166
 1454W        W21734  16.748  16.489  13.760  0.1033  0.2975 -0.1336
 1455W        W21735  10.618   6.900  15.954  0.0476  0.0814 -0.1152
 1456W        W21736   9.843   7.973  15.906  0.1316  0.2860 -0.0308
 1457W        W21737   5.420  17.688  14.518 -0.1920  0.1219  0.2886
 1458W        W21738   5.534   7.293  16.494  0.1369  0.2074  0.0688
 1459W        W21739  15.291   8.222   0.508  0.0036 -0.1545 -0.0506
 1460W        W21740  15.970  11.705   3.138 -0.0202 -0.2829  0.0115
 1461W        W21741  17.246   8.765  15.975  0.1881 -0.0976 -0.3690
 1462W        W21742  15.740   2.598  12.652  0.0243 -0.1802  0.0246
 1463W        W21743   9.868   6.890  14.185 -0.1106  0.0196  0.0147
 1464W        W21744   3.238   1.945   4.654 -0.4749  0.1768 -0.0982
 1465W        W21745   3.913  11.502   2.795  0.1328 -0.1126 -0.0156
 1466W        W21746   3.497   1.638  16.373  0.0090 -0.1328  0.0347
 1467W        W21747  15.991   4.758   2.412 -0.0116 -0.3310 -0.1741
 1468W        W21748   2.528   5.091   2.622  0.2116 -0.0970  0.1248
 1469W        W21749  10.947   8.534   2.665 -0.1089  0.1623  0.2657
 1470W        W21750  11.259  16.277   1.605 -0.0204 -0.0124 -0.1125
 1471W        W21751  14.956  11.239   1.689 -0.1035  0.0800  0.3293
 1472W        W21752   1.204   1.468  12.574  0.2134  0.2082 -0.0215
 1473W        W21753   5.419   1.803   3.727 -0.2501  0.0288 -0.3586
 1474W        W21754   9.364  11.393   3.650  0.0427 -0.1883  0.1169
 1475W        W21755  13.447  14.567  13.472 -0.1109 -0.3827  0.1482
 1476W        W21756  10.664   8.731  13.672 -0.2492 -0.1705  0.1595
 1477W        W21757   1.660   3.770   1.052 -0.0893  0.1711 -0.4541
 1478W        W21758  14.319  12.915   1.662  0.1162  0.1893 -0.0410
 1479W        W21759   0.829  16.921   2.962  0.4004 -0.1052  0.0648
 1480W        W21760  13.220  15.744  14.366 -0.0898 -0.2114 -0.2136
 1481W        W21761  13.889   5.591  16.308 -0.2476  0.3518 -0.1942
 1482W        W21762  16.527   9.585   4.498  0.0610  0.2700 -0.2570
 1483W        W21763   9.986   0.026  12.110 -0.2464 -0.1422  0.3725
 1484W        W21764   3.414   3.265  14.600  0.0598  0.0282  0.0650
 1485W        W21765   8.581  17.280  15.380  0.1426  0.4285  0.1159
 1486W        W21766  14.327  15.544  14.282  0.2183 -0.1272  0.1704
 1487W        W21767   7.930  13.483  13.154 -0.2311  0.1083  0.0569
 1488W        W21768  17.466   7.251   4.879 -0.1084  0.3141 -0.1208
 1489W        W21769  16.826   1.562  16.763 -0.0694  0.1140 -0.1086
 1490W        W21770  12.574   2.527  14.675  0.2177  0.1381  0.2634
 1491W        W21771   5.881  11.279  13.879  0.2280  0.2804  0.2404
 1492W        W21772   0.674  12.230   4.487 -0.1298  0.2394 -0.1094
 1493W        W21773   6.009   6.770   0.638 -0.0626  0.2617 -0.0159
 1494W        W21774   2.214   5.919  16.515 -0.1705  0.1280 -0.5836
 1495W        W21775  10.646  14.945   2.729 -0.3577 -0.0132  0.0929
 1496W        W21776  12.379   4.789   1.042  0.1612 -0.1623  0.0274
 1497W        W21777  15.958  15.732   5.381  0.1498 -0.3589  0.2321
 1498W        W21778  16.602   1.615  12.013 -0.0491 -0.0640 -0.0037
 1499W        W21779   5.482  15.838   4.872  0.0401 -0.0844  0.0407
 1500W        W21780  17.298  11.142   3.145 -0.0010 -0.0270  0.1100
 1501W        W21781  10.809   5.006  15.555  0.1680 -0.0424 -0.0095
 1502W        W21782   3.767   0.129  16.536  0.1032 -0.0015  0.0409
 1503W        W21783  17.250   9.864   2.219  0.0157 -0.0598 -0.1914
 1504W        W21784   6.488  14.368   4.635  0.0745 -0.0840  0.0974
 1505W        W21785   8.677  15.945   2.044 -0.0959  0.3242 -0.1130
 1506W        W21786   3.993  11.512  12.696 -0.3324  0.2099  0.0448
 1507W        W21787   9.971   5.914   1.744  0.0184  0.1965  0.1073
 1508W        W21788   8.167  16.849   2.571 -0.1392  0.0207 -0.0061
 1509W        W21789   0.214  13.173  13.218  0.1078  0.0116  0.0476
 1510W        W21790   1.960   7.673  15.110  0.5650  0.0852 -0.0632
 1511W        W21791  13.071  11.647  12.419 -0.2283 -0.0770 -0.1544
 1512W        W21792  11.278   6.328  15.013  0.0753 -0.1166 -0.2943
 1513W        W21793   0.542   7.313   2.724 -0.0476  0.0355  0.0390
 1514W        W21794  14.657   5.716  14.269 -0.0471 -0.5421  0.1931
 1515W        W21795  14.398  12.179   0.775 -0.0239 -0.0012  0.1888
 1516W        W21796   0.823   7.926   0.563 -0.0063 -0.0153 -0.0358
 1517W        W21797  13.301  17.601   0.364 -0.0963 -0.0663 -0.0832
 1518W        W21798   7.082  15.396  12.896  0.3263 -0.1390 -0.1676
 1519W        W21799   6.186  13.187   3.318 -0.0241 -0.3179 -0.0406
 1520W        W21800   0.542  10.197   4.879 -0.1836  0.1044 -0.2587
 1521W        W21801  13.638  10.833  15.095 -0.2259  0.3832 -0.0369
 1522W        W21802  17.678  12.915  14.649  0.1550 -0.2250 -0.0109
 1523W        W21803   7.281  11.399   3.676 -0.1495 -0.0511  0.0241
 1524W        W21804   1.593  16.065   0.449 -0.0387 -0.0990 -0.1296
 1525W        W21805   5.659   5.097  13.591  0.1670  0.0651  0.0722
 1526W        W21806  10.719   5.548   1.672  0.0051 -0.3449 -0.0355
 1527W        W21807   4.960   9.655   1.401  0.2654 -0.0314 -0.1558
 1528W        W21808  15.348   3.524   4.986  0.1216  0.0281 -0.3014
 1529W        W21809   1.961  10.585   5.148 -0.0397 -0.2276  0.2421
 1530W        W21810   1.474   8.855   0.952  0.0144 -0.2278  0.0895
 1531W        W21811  10.754   1.297   2.259  0.0825 -0.0990  0.0125
 1532W        W21812   2.035   6.789   0.008 -0.0459  0.0809 -0.1391
 1533W        W21813   0.158   2.441  12.496 -0.1093 -0.2924 -0.1490
 1534W        W21814   3.506  16.270  13.518  0.0463 -0.1554  0.0694
 1535W        W21815   8.005  15.320   1.751  0.0856 -0.2301  0.1357
 1536W        W21816   5.209  13.883  16.736 -0.0090  0.0950 -0.1648
 1537W        W21817   1.366  11.515   4.109 -0.1051 -0.1000 -0.2367
 1538W        W21818   8.664   9.036  11.279  0.2292  0.2193 -0.0220
 1539W        W21819  17.048  15.558   1.637 -0.1455  0.1417  0.0762
 1540W        W21820   8.801  15.919  14.210  0.1744  0.1607 -0.1860
 1541W        W21821  14.375   0.399   2.610  0.2142  0.0514 -0.2609
 1542W        W21822  13.014  15.493   1.566 -0.2740 -0.1897 -0.0956
 1543W        W21823   6.520  15.906  13.605  0.0924 -0.0342 -0.4067
 1544W        W21824  13.193   0.362   1.680  0.4049  0.3865  0.1460
 1545W        W21825   9.451   2.126  12.184  0.1302  0.0528  0.1828
 1546W        W21826   7.302   3.221   2.843  0.2383  0.0551 -0.1153
 1547W        W21827   5.548  16.418   3.675 -0.0311  0.0921 -0.0035
 1548W        W21828   4.876   0.227   1.947 -0.0019 -0.0551 -0.0818
 1549W        W21829   1.756   0.107   0.382 -0.1670  0.0831  0.0056
 1550W        W21830   4.842  16.345  14.075  0.0095  0.0295  0.1745
 1551W        W21831  10.992   5.065  16.562 -0.0084  0.1741  0.0554
 1552W        W21832   3.763   3.523  13.628 -0.3506 -0.1044  0.0815
 1553W        W21833   9.315   0.704   3.179 -0.1555 -0.2961  0.1198
 1554W        W21834   0.159   5.734  16.490  0.2858 -0.3359  0.0730
 1555W        W21835  12.685  11.959   3.610 -0.0325 -0.1089 -0.1802
 1556W        W21836  14.916   2.147  15.473 -0.1267 -0.3226  0.0971
 1557W        W21837  11.881   9.345   4.123  0.1133 -0.2347  0.0361
 1558W        W21838  13.012  17.309   4.931  0.1691 -0.1861 -0.1958
 1559W        W21839   0.205   9.180   1.326  0.1453 -0.4253  0.2763
 1560W        W21840   0.182   8.389  16.055  0.1895 -0.1933 -0.4154
 1561W        W21841   8.456  11.875   2.199 -0.1595  0.0125 -0.0383
 1562W        W21842   0.417  14.176   2.945  0.1649  0.2206  0.1333
 1563W        W21843   9.301  14.870  13.902 -0.4996  0.0516 -0.0727
 1564W        W21844   1.774  17.500  13.331 -0.0371  0.2272  0.2905
 1565W        W21845  17.632   0.356  13.811 -0.0454  0.0903  0.0665
 1566W        W21846  15.076   2.244   0.930 -0.0964  0.1655 -0.0873
 1567W        W21847  17.272  11.371  13.270 -0.1706 -0.0949 -0.0817
 1568W        W21848  15.147   2.713   4.588 -0.2265 -0.0203 -0.0599
 1569W        W21849   9.392  16.500   3.690  0.0446 -0.0940  0.1719
 1570W        W21850   2.454   9.760  13.146 -0.0037  0.1386  0.0678
 1571W        W21851   8.998   5.158   3.848  0.0629 -0.0416  0.0861
 1572W        W21852   5.253  11.852  16.713 -0.1516  0.0258 -0.1248
 1573W        W21853  12.046   0.170  13.740 -0.0390 -0.0776  0.0798
 1574W        W21854  16.436  17.383   2.658  0.2238  0.1247  0.3305
 1575W        W21855   3.946   5.934   1.768 -0.0633 -0.1603  0.2616
 1576W        W21856  15.941  11.366  13.273 -0.0798  0.0319 -0.5616
 1577W        W21857   2.792   2.496  12.602  0.0894 -0.3438  0.0785
 1578W        W21858  16.038   1.734   3.632  0.0053 -0.1928  0.0243
 1579W        W21859  12.881   6.540  12.651  0.1050 -0.2415 -0.1243
 1580W        W21860  11.341  15.588   3.665  0.2785  0.1416 -0.2265
 1581W        W21861   7.839  14.122   3.464  0.0884 -0.1258  0.1340
 1582W        W21862  11.358   5.040   1.416  0.3262 -0.0725  0.1328
 1583W        W21863  13.835  15.116   2.543  0.1287 -0.3155  0.0481
 1584W        W21864  12.983  12.767   4.708 -0.0001 -0.1205 -0.0122
 1585W        W21865   4.188  15.797   0.514  0.0342 -0.3351 -0.2708
 1586W        W21866   4.190  10.208   2.899 -0.1162  0.1802  0.0061
 1587W        W21867   1.274  14.271   0.551 -0.2587 -0.1088 -0.0840
 1588W        W21868  14.320   1.420   5.077  0.0931  0.1570 -0.1187
 1589W        W21869   8.629   5.097   0.949 -0.1363  0.3556 -0.1510
 1590W        W21870  12.949   5.305  13.467  0.0796 -0.0611 -0.1495
 1591W        W21871   4.154  10.044   3.759  0.0792 -0.2760  0.1707
 1592W        W21872   2.762  16.386   2.790 -0.0762  0.1085 -0.2092
 1593W        W21873  13.586  12.035   2.621  0.0735  0.1142 -0.3537
 1594W        W21874  16.406  10.958   0.738  0.1705  0.1300 -0.0465
 1595W        W21875  17.135   6.924   4.606 -0.2443  0.0786  0.0876
 1596W        W21876   6.680  15.139   3.747 -0.1170 -0.0095  0.0919
 1597W        W21877   0.221   7.169  15.069 -0.1780  0.4586 -0.1892
 1598W        W21878  17.316  11.085  12.589  0.0537 -0.2684  0.2303
 1599W        W21879   0.409   2.739  13.892 -0.3500  0.1011 -0.1875
 1600W        W21880   9.785  16.707   2.575 -0.1665  0.0332  0.2216
 1601W        W21881   3.718   6.716   2.039 -0.0490 -0.2070 -0.2395
 1602W        W21882  14.027  13.198  16.266  0.1412 -0.1061  0.0162
 1603W        W21883  15.008  12.350  16.394  0.1454 -0.0786 -0.3240
 1604W        W21884  15.124   4.975  16.621 -0.0388 -0.2421  0.1160
 1605W        W21885  15.360  12.834   4.993  0.0218  0.1441  0.1350
 1606W        W21886   1.988   3.404   4.043  0.2793  0.0474 -0.1175
 1607W        W21887   4.467  14.611   4.004 -0.0369  0.1227  0.2501
 1608W        W21888   1.933  15.517  14.029  0.0976  0.1072  0.2477
 1609W        W21889   3.087   4.174   4.398  0.1586 -0.2247  0.0793
 1610W        W21890  12.667  11.654  13.116  0.0625 -0.0793  0.0510
 1611W        W21891  10.546  11.454  16.553 -0.1848 -0.0805  0.0610
 1612W        W21892   5.109  16.211  12.445 -0.2056 -0.0855  0.0984
 1613W        W21893   0.157   7.339  14.651 -0.0144  0.1996 -0.0904
 1614W        W21894   7.056  10.206  16.487 -0.1841 -0.0056  0.2221
 1615W        W21895   4.554   5.572   4.874  0.1784  0.1106 -0.1649
 1616W        W21896  10.485  15.251  14.233  0.4304 -0.0975  0.1019
 1617W        W21897  11.768   3.295  14.358 -0.2643 -0.0078 -0.2390
 1618W        W21898   5.777  13.028   2.222  0.1299 -0.1128  0.1165
 1619W        W21899  13.632   5.966  12.429 -0.1939 -0.0963 -0.0075
 1620W        W21900  10.674   8.048   3.916 -0.1939 -0.1259  0.2822
 1621W        W21901  17.372   6.913  15.709  0.3052 -0.0475  0.1018
 1622W        W21902  16.923   5.195  13.278  0.0163 -0.2002 -0.0732
 1623W        W21903   5.236   2.047  14.385 -0.2022  0.0306  0.0179
 1624W        W21904  14.165  16.654   4.706  0.0642  0.3730  0.0294
 1625W        W21905  12.712   1.140   2.132  0.2212 -0.1176 -0.1728
 1626W        W21906   2.087  16.458   3.245  0.0948  0.1584  0.1106
 1627W        W21907   0.880  16.904  12.848  0.2124 -0.0595  0.1720
 1628W        W21908  12.077  16.453   2.538  0.1583 -0.1181  0.0688
 1629W        W21909   7.477  14.603   5.864 -0.0979 -0.2225 -0.1065
 1630W        W21910  13.368  14.594  12.779 -0.1957 -0.0706 -0.4158
 1631W        W21911   6.275  16.711   2.406  0.2583 -0.0183  0.1382
 1632W        W21912  16.756   0.025  14.123  0.2198 -0.5121 -0.1856
 1633W        W21913   6.448  13.976  12.624 -0.0009 -0.0186  0.1744
 1634W        W21914   1.051   0.582  16.049 -0.0991 -0.3716 -0.3996
 1635W        W21915   1.784   7.888  11.659 -0.0412 -0.2064 -0.2834
 1636W        W21916   4.308   1.868  12.384 -0.2859  0.3279  0.1638
 1637W        W21917   1.247   7.422   1.172  0.2179 -0.0568 -0.4778
 1638W        W21918   8.757   2.722  14.706  0.3189 -0.1942  0.0431
 1639W        W21919   0.520   5.178   0.743  0.1172 -0.1822  0.0834
 1640W        W21920   8.317  15.053   2.132  0.2652  0.1119 -0.3347
 1641W        W21921   6.979   0.812  13.456 -0.0621 -0.0561  0.0797
 1642W        W21922  11.274   8.490   4.136 -0.1702 -0.1277  0.1250
 1643W        W21923  12.015   8.911  12.298  0.1656  0.1362 -0.1540
 1644W        W21924   7.098  16.807  15.899 -0.2774  0.1947  0.1731
 1645W        W21925   3.126  14.063  15.509  0.1660  0.1232  0.0867
 1646W        W21926  17.540  12.701   4.626  0.0645  0.3825  0.1894
 1647W        W21927  17.714   7.267   3.863  0.0774 -0.0248  0.0180
 1648W        W21928  13.364   5.560  16.336  0.1178 -0.1112  0.0722
 1649W        W21929   9.991   6.555  15.543 -0.0316  0.3021  0.1704
 1650W        W21930   9.011   5.380  11.671  0.1596 -0.2489  0.0700
 1651W        W21931   3.660   5.041  14.567 -0.0332 -0.3064  0.0575
 1652W        W21932  17.682  11.188  14.346  0.0926 -0.0554  0.1514
 1653W        W21933  15.188   6.610  13.947  0.0877  0.1926  0.0267
 1654W        W21934  10.115   0.761   1.244  0.0690  0.0357  0.0057
 1655W        W21935   5.689   5.158  14.964 -0.1619 -0.2678 -0.0526
 1656W        W21936   3.791   6.196   2.972  0.0364  0.1697 -0.1778
 1657W        W21937   7.296  10.239   1.771 -0.0105  0.0040 -0.0117
 1658W        W21938  16.723   5.463   4.568  0.1549  0.1210 -0.1093
 1659W        W21939   2.265   7.890  15.378  0.1075  0.0299 -0.2966
 1660W        W21940   3.809  14.422   4.821  0.0308  0.2327  0.0776
 1661W        W21941  13.339  12.113   3.986 -0.0423 -0.2316  0.3448
 1662W        W21942  16.080  14.607   2.306  0.1440 -0.1962 -0.0251
 1663W        W21943  16.492   9.800   2.546 -0.0056 -0.0985 -0.2586
 1664W        W21944   4.175   8.852   2.637 -0.0417 -0.0860 -0.0534
 1665W        W21945   4.383   8.261  13.133 -0.1978  0.0310  0.0599
 1666W        W21946  11.633   3.002  13.883 -0.0934  0.0689 -0.3137
 1667W        W21947  13.453  13.635  12.950 -0.0435  0.0365 -0.2199
 1668W        W21948   7.989  10.169   4.021 -0.0891  0.0960 -0.1094
 1669W        W21949   0.622  15.915   0.012 -0.1736 -0.1557  0.2552
 1670W        W21950   9.059   1.621  13.463 -0.1689 -0.0128  0.0063
 1671W        W21951   5.970  13.126  12.568 -0.0852  0.1612  0.1307
 1672W        W21952  11.979   7.798   3.121  0.1482 -0.0531 -0.2333
 1673W        W21953   5.130   1.391   3.911 -0.0081  0.0433  0.0221
 1674W        W21954  16.532   4.769  13.045  0.3131  0.0089 -0.0663
 1675W        W21955  16.477   2.598  16.000 -0.0475  0.1113  0.1013
 1676W        W21956   4.211  10.127   1.727 -0.0558 -0.4441 -0.0256
 1677W        W21957   7.734   8.344   0.726 -0.1494 -0.1482 -0.0813
 1678W        W21958  11.888   4.404   3.744 -0.2061  0.0907 -0.0988
 1679W        W21959   1.065   3.691  12.839 -0.1802 -0.2953  0.0133
 1680W        W21960  10.273   5.708  13.589 -0.0682 -0.4029 -0.0245
 1681W        W21961   0.870  14.399  13.157 -0.1321 -0.2432 -0.2099
 1682W        W21962  17.162  14.937   2.690  0.0424  0.1118  0.0500
 1683W        W21963   0.828  16.525  14.555  0.0780  0.1469  0.1573
 1684W        W21964  11.936  13.420  16.466  0.4066  0.0005 -0.1915
 1685W        W21965   3.473   3.775   0.816  0.0665  0.0284 -0.0701
 1686W        W21966   3.175   1.732  16.733  0.1018  0.0034  0.0541
 1687W        W21967  10.615  11.789  13.415 -0.1682 -0.0240 -0.2131
 1688W        W21968   3.496   8.819   1.891  0.3153  0.0838 -0.1199
 1689W        W21969   8.166  11.207  15.467 -0.0768  0.1542  0.0921
 1690W        W21970  11.815  15.758  14.115 -0.0545 -0.2221  0.3058
 1691W        W21971   0.894   2.051   2.840  0.1768 -0.0671  0.3099
 1692W        W21972   4.421   1.085  12.800  0.2310 -0.1296  0.0415
 1693W        W21973   0.715   3.906   4.154 -0.1075  0.1523 -0.1560
 1694W        W21974   6.911   0.307   3.168 -0.1844  0.0693  0.1108
 1695W        W21975  15.570   1.123   3.085  0.0279  0.0224 -0.1317
 1696W        W21976   3.257  17.362  15.415 -0.3695 -0.0978 -0.3032
 1697W        W21977   4.339  14.960   3.274  0.0926 -0.3207  0.0970
 1698W        W21978   0.120   0.901  15.877 -0.0380 -0.3352 -0.3716
 1699W        W21979   2.682  16.815   2.536 -0.1334 -0.2037 -0.0404
 1700W        W21980  10.848   4.104  16.510 -0.0011  0.0583 -0.0894
 1701W        W21981  10.105  14.668  15.409  0.2114 -0.1763 -0.0739
 1702W        W21982   0.567   0.954  14.182  0.0591  0.1489  0.2566
 1703W        W21983   9.920  13.310   0.927 -0.0777  0.1562  0.0960
 1704W        W21984   9.196  16.631  16.542 -0.3575  0.0347 -0.0208
 1705W        W21985   6.050   4.700   0.050 -0.0587  0.2206  0.0284
 1706W        W21986   7.261   9.829  16.114  0.2735  0.1033  0.1371
 1707W        W21987  11.537  16.222   0.807  0.1191  0.2684 -0.0906
 1708W        W21988   3.572  16.040  13.990 -0.2680 -0.4054  0.0857
 1709W        W21989  14.665   9.599   3.809 -0.3364  0.0551 -0.1752
 1710W        W21990  17.141   1.603  12.612 -0.0593 -0.0322  0.1617
 1711W        W21991   1.028  15.131  16.791 -0.1266 -0.0042 -0.1555
 1712W        W21992   8.302   3.781   2.139  0.0061 -0.0524  0.3955
 1713W        W21993   2.499  12.921  13.381 -0.0829  0.1666  0.0727
 1714W        W21994   4.955   1.266  16.847 -0.2376 -0.2589 -0.1649
 1715W        W21995   8.220  16.545  14.880  0.1261 -0.0745 -0.2424
 1716W        W21996  10.074   1.440   1.249 -0.0087  0.2393  0.0517
 1717W        W21997   0.349  12.403  14.963  0.0200  0.1058  0.0025
 1718W        W21998  10.603   0.755  16.136 -0.1657 -0.1316  0.0211
 1719W        W21999  11.679   3.091   2.638  0.1941 -0.0158  0.1538
 1720W        W22000  11.715   9.716   2.810 -0.0377 -0.1324  0.4620
 1721W        W22001  13.992  16.137   3.713  0.1543 -0.1982  0.0222
 1722W        W22002   0.305  16.472  15.380 -0.0575 -0.0772  0.0644
 1723W        W22003  11.545   2.459   2.279  0.0844 -0.1749 -0.1236
 1724W        W22004   0.767  12.196  15.499  0.2753  0.0320  0.0074
 1725W        W22005   8.783   9.353   3.206 -0.0816  0.1628 -0.0108
 1726W        W22006  17.320  11.947   3.853 -0.2872  0.2979  0.3750
 1727W        W22007   7.714  16.497   0.128  0.1475 -0.3427 -0.1229
 1728W        W22008  15.718   2.823   2.245  0.0778 -0.0617 -0.1889
 1729W        W22009   8.784  11.666   1.860 -0.3678 -0.2784  0.2597
 1730W        W22010  12.513   1.485  14.531 -0.2999 -0.2950 -0.2879
 1731W        W22011  15.085   9.920   2.991 -0.3977  0.4548 -0.1380
 1732W        W22012   6.757   9.897  16.288  0.3365 -0.1234  0.3794
 1733W        W22013   1.220  16.366   2.710 -0.0831  0.1440  0.1100
 1734W        W22014   8.748   4.678   1.922  0.0464 -0.3015  0.1907
 1735W        W22015   2.387   7.241   3.878 -0.0691 -0.1193  0.2770
 1736W        W22016  16.582   1.121   0.662 -0.0652 -0.2813 -0.2992
 1737W        W22017   5.805   0.287   0.031  0.2346  0.0360 -0.0067
 1738W        W22018   2.813   5.068   3.089  0.0713 -0.0057 -0.3526
 1739W        W22019  12.319   1.997  15.819  0.1257  0.1354 -0.2132
 1740W        W22020   5.395   0.995   1.866 -0.3560  0.0761 -0.0594
 1741W        W22021  12.211   6.173   2.412 -0.0214  0.1031 -0.0422
 1742W        W22022  13.238   7.669  11.976  0.0543  0.1247  0.1784
 1743W        W22023   4.769   8.716   4.373 -0.1456  0.0215  0.3133
 1744W        W22024   4.540  11.995  16.231 -0.0539  0.3236  0.2444
 1745W        W22025  11.402  16.584   1.189 -0.1355  0.0042  0.1675
 1746W        W22026   7.075  12.870   0.392  0.6524  0.0473 -0.0947
 1747W        W22027   4.594  12.251  12.423  0.2342 -0.2965  0.1752
 1748W        W22028  14.933   2.590  15.275  0.0730  0.3946  0.3102
 1749W        W22029   3.497   5.977  12.190 -0.0813  0.3517  0.1265
 1750W        W22030   7.572  12.469  12.209 -0.0757  0.0613  0.0126
 1751W        W22031  16.762   1.653   1.576  0.0562 -0.0805  0.1146
 1752W        W22032   1.336   0.536   4.907  0.0111 -0.0337 -0.1021
 1753W        W22033  10.187  15.270  14.699  0.0159  0.3963  0.0066
 1754W        W22034   6.679  17.713   3.677  0.0459 -0.3202 -0.3531
 1755W        W22035  12.775   8.624  12.596 -0.3436  0.0920  0.0549
 1756W        W22036  15.293   7.079  12.674 -0.1681  0.1634 -0.0978
 1757W        W22037  17.682  13.596  12.972 -0.1870 -0.0043  0.3389
 1758W        W22038  12.825   3.298  14.297  0.0719 -0.1323  0.2785
 1759W        W22039   2.085   6.087   2.112 -0.1476  0.1688 -0.2439
 1760W        W22040  16.170  13.336   2.239 -0.1264 -0.2593 -0.1430
 1761W        W22041   8.173  12.815   2.536  0.4698 -0.0166  0.2978
 1762W        W22042   9.198   7.140   1.376  0.1914  0.1998 -0.2524
 1763W        W22043  11.598  17.157  16.814  0.2271  0.0219 -0.0513
 1764W        W22044   8.004  10.703   1.682 -0.0334 -0.0804  0.1625
 1765W        W22045   0.785   6.061  14.570  0.1981 -0.1358 -0.0637
 1766W        W22046   1.872   1.579   2.031  0.0608  0.1524 -0.1835
 1767W        W22047   7.779  15.305  14.759 -0.2292  0.2665 -0.1810
 1768W        W22048   1.574   3.286  14.664 -0.1115  0.0879  0.1711
 1769W        W22049  14.293   5.384   0.695  0.3091 -0.4300 -0.1848
 1770W        W22050  17.386  16.480   2.936  0.2157 -0.1245 -0.0575
 1771W        W22051  17.254   1.905   4.055  0.2249 -0.1309 -0.1123
 1772W        W22052   4.095   3.307   1.624 -0.3324 -0.2222  0.0093
 1773W        W22053  10.558   3.783   1.536 -0.1407 -0.2033  0.1324
 1774W        W22054   4.941   0.474  13.534  0.2544 -0.1040  0.0183
 1775W        W22055   9.236  11.726  16.328  0.1069 -0.1131  0.1340
 1776W        W22056   6.471   5.353   0.035 -0.1719 -0.1816  0.0513
 1777W        W22057   6.927  15.180  14.762  0.0149 -0.0919  0.2067
 1778W        W22058   0.152   2.156  14.541 -0.0388  0.1387 -0.2183
 1779W        W22059   3.005  13.027   4.434 -0.1043 -0.1448 -0.1622
 1780W        W22060   4.315  14.437   4.907 -0.0138  0.1288  0.2609
 1781W        W22061  15.496   0.452  13.286 -0.1135  0.1142  0.1016
 1782W        W22062   7.372   2.723   0.640  0.0186 -0.2882  0.3577
 1783W        W22063  12.350   6.363   3.088 -0.1228  0.0849  0.0027
 1784W        W22064  13.564   1.126   2.030 -0.1266 -0.2316 -0.0151
 1785W        W22065  11.711   6.226  15.236 -0.1188  0.1751 -0.2910
 1786W        W22066   1.936   9.597   0.480  0.2229 -0.0340  0.0767
 1787W        W22067   1.526   3.044  15.117 -0.0976 -0.1284  0.2996
 1788W        W22068   6.964  13.505  12.856  0.2379  0.0675 -0.0877
 1789W        W22069   8.094  14.184  16.313 -0.0343 -0.1026 -0.1749
 1790W        W22070  12.452   8.352  12.896  0.1147  0.1563 -0.2591
 1791W        W22071  13.121  11.644  15.531  0.0486  0.1786 -0.3422
 1792W        W22072  15.035   8.475   4.335 -0.1398 -0.0215  0.0557
 1793W        W22073  17.345   2.145  16.688 -0.1783 -0.0504  0.0131
 1794W        W22074  17.554   0.818  12.545  0.0892  0.1444  0.1083
 1795W        W22075   2.619   8.004  12.678  0.3565 -0.1496  0.0349
 1796W        W22076   1.464   9.484   1.664  0.2688  0.0956 -0.2152
 1797W        W22077  16.965  11.074  13.487  0.1573 -0.1384 -0.2227
 1798W        W22078  10.643   8.212  16.132 -0.1264 -0.1035  0.1410
 1799W        W22079  12.210   9.814  13.919  0.1349 -0.0683 -0.0678
 1800W        W22080  15.153  10.658  16.526  0.2712 -0.0649 -0.0820
 1801W        W22081  13.835   7.116   4.991 -0.2100 -0.4959  0.4395
 1802W        W22082   6.200  14.266   0.583  0.0998 -0.0837  0.1815
 1803W        W22083   0.495   0.441  15.411 -0.1188  0.1353  0.3035
 1804W        W22084   9.513  10.003   0.119 -0.1475 -0.0111  0.1011
 1805W        W22085   4.727  11.413  13.809  0.0855 -0.0934  0.0845
 1806W        W22086  14.809   7.972   0.529  0.0293 -0.4025 -0.0961
 1807W        W22087   3.870  12.358  16.853  0.2661 -0.0398 -0.1898
 1808W        W22088  13.913  13.389  13.101  0.0150  0.1181  0.0385
 1809W        W22089  10.087   3.623   5.702  0.0905  0.0012  0.2003
 1810W        W22090  17.047  15.915  13.746  0.1481  0.1914 -0.0956
 1811W        W22091   8.243   9.958   0.542 -0.2640 -0.2381 -0.2532
 1812W        W22092  16.339   7.501   0.926 -0.0704 -0.3403  0.0444
 1813W        W22093   7.521  11.600   2.428  0.0491 -0.1657 -0.1464
 1814W        W22094   7.154  14.746   4.734  0.1104  0.2036 -0.0157
 1815W        W22095   7.163  12.316  15.643  0.1557 -0.0348  0.0515
 1816W        W22096   9.180  13.292   3.381 -0.2070  0.4178  0.3305
 1817W        W22097  11.712  14.042  14.110 -0.1962  0.0299  0.0310
 1818W        W22098  14.324   8.741  14.906 -0.3830  0.1028 -0.1159
 1819W        W22099  13.730   2.270  15.427 -0.0429  0.0220  0.0030
 1820W        W22100   3.644  12.791  12.714  0.1801 -0.0526  0.0796
 1821W        W22101  17.440  12.042   3.364  0.0104  0.1091  0.0863
 1822W        W22102   6.251  13.725   1.147  0.0868 -0.0311 -0.1979
 1823W        W22103   7.565   5.331   0.001  0.1990 -0.0361  0.1997
 1824W        W22104   4.252   7.446  12.537 -0.0119 -0.1178  0.4090
 1825W        W22105   8.585   2.244  14.082 -0.0093  0.1498 -0.3209
 1826W        W22106  16.496  14.786  16.610  0.1267  0.4766  0.0313
 1827W        W22107   8.911   7.817   1.883 -0.0885 -0.1599 -0.1490
 1828W        W22108  12.881   3.108  11.888  0.2189  0.1998  0.2588
 1829W        W22109  15.210  17.280  15.633  0.0679  0.2931  0.0171
 1830W        W22110   4.393   8.326   5.088 -0.0806  0.1713  0.2298
 1831W        W22111   4.981   9.120  12.182  0.0007 -0.1305 -0.2719
 1832W        W22112  12.957   3.071   5.397  0.1742 -0.0352  0.1024
 1833W        W22113  11.217  17.555  12.217  0.1946 -0.2025 -0.0692
 1834W        W22114   3.355  11.352  14.921 -0.1899  0.2058  0.0180
 1835W        W22115   6.713   4.331   1.870  0.0586  0.1384  0.1185
 1836W        W22116  12.589   5.026  14.541 -0.3395 -0.1324  0.0193
 1837W        W22117  12.661   4.515  14.058 -0.0114 -0.0753  0.1200
 1838W        W22118   1.163  15.789  15.717 -0.2926  0.1530 -0.0213
 1839W        W22119   9.904  10.218  16.819 -0.2789 -0.1724 -0.0804
 1840W        W22120   7.712   5.500  15.200  0.0096 -0.4200 -0.0850
 1841W        W22121   5.063  10.620  15.740  0.1375  0.0431  0.2054
 1842W        W22122  16.342  15.808  13.226  0.2035 -0.0816  0.2620
 1843W        W22123  10.370   5.805  15.269  0.1552  0.1858  0.0425
 1844W        W22124   7.158   2.173   1.909  0.0773  0.2054 -0.3726
 1845W        W22125  12.536  10.420  14.941  0.0847 -0.1951 -0.0987
 1846W        W22126  11.808  11.692  14.442  0.1954  0.0513  0.0195
 1847W        W22127  17.512   0.220  13.276 -0.0552  0.0560  0.0389
 1848W        W22128  17.102   9.007  14.745 -0.1041  0.0758  0.3692
 1849W        W22129   5.263   5.584  12.675  0.0944 -0.0766 -0.1429
 1850W        W22130   6.555  13.856  16.367  0.3830 -0.1595 -0.3869
 1851W        W22131  10.438  10.255  13.646  0.1164  0.1521 -0.1475
 1852W        W22132   8.012   0.238  15.124  0.1088 -0.0065  0.0733
 1853W        W22133   2.486  11.272  13.491  0.0419 -0.1753 -0.1579
 1854W        W22134  14.707   5.596   2.100  0.5489  0.4340  0.2361
 1855W        W22135   8.036  16.606  15.788 -0.0934  0.0373 -0.1722
 1856W        W22136  11.139   3.986  13.121 -0.2418  0.1147  0.1444
 1857W        W22137  15.354  10.848   2.900 -0.0086  0.4328 -0.2858
 1858W        W22138   6.987  11.641  16.376  0.2338  0.0906 -0.1974
 1859W        W22139  13.194  14.861  14.408 -0.1323  0.0533  0.0508
 1860W        W22140   1.526  17.087  13.581 -0.1709  0.3844 -0.3406
 1861W        W22141  15.770   9.935  13.145  0.1485  0.0503  0.2889
 1862W        W22142   6.664  13.289   1.054 -0.1052 -0.0638  0.1245
 1863W        W22143   6.382   7.901   2.805  0.0100 -0.2205  0.1176
 1864W        W22144  14.866  10.109   2.529 -0.2948  0.1847 -0.0744
 1865W        W22145   6.173  16.341  14.626  0.1366  0.0714  0.1409
 1866W        W22146  17.262   6.106  15.728 -0.0498 -0.0447  0.1874
 1867W        W22147   4.231  15.991  12.159  0.1083  0.1140  0.4560
 1868W        W22148   4.829  12.394  16.203  0.2463  0.1139  0.0298
 1869W        W22149   1.825   8.080  16.475 -0.3701 -0.0178  0.1081
 1870W        W22150   6.705  16.918   4.354  0.0701 -0.3449 -0.1172
 1871W        W22151   3.240   1.212  13.499  0.1103 -0.0888 -0.1544
 1872W        W22152  15.753  11.604  15.599 -0.0690 -0.0235 -0.0504
 1873W        W22153   8.367  11.072  12.926 -0.2326  0.0321  0.1350
 1874W        W22154  16.733   6.610   2.594  0.0635 -0.0296  0.3490
 1875W        W22155   2.433  14.729  14.480 -0.2634  0.2255  0.1904
 1876W        W22156   0.771  13.887   1.963  0.0188  0.0473 -0.0783
 1877W        W22157   7.940  13.119  14.274 -0.0633 -0.0088  0.1454
 1878W        W22158   0.696   6.751  14.474  0.2180 -0.2321  0.1887
 1879W        W22159  13.110  11.270   0.037 -0.2082 -0.1163 -0.1943
 1880W        W22160  10.010   2.103  13.097 -0.1550 -0.0664  0.2763
 1881W        W22161  16.925  11.734  14.211 -0.0613 -0.1234 -0.1819
 1882W        W22162   5.442   5.110  15.423  0.0430 -0.1620 -0.0126
 1883W        W22163  10.893   1.537   4.612 -0.0107  0.1155 -0.0038
 1884W        W22164  15.689   7.411   3.889  0.1109  0.0399  0.0017
 1885W        W22165  13.018   4.876  13.972  0.1084  0.1958 -0.0839
 1886W        W22166   3.284   4.533   3.568 -0.0909  0.1370 -0.0202
 1887W        W22167  14.378  14.411  15.779  0.2499 -0.1098 -0.2183
 1888W        W22168   0.157   2.821   2.554 -0.0205 -0.2903  0.2339
 1889W        W22169  10.300   8.781   2.593  0.3687  0.1113  0.1573
 1890W        W22170   5.569   6.927  12.386  0.0435  0.0689 -0.0715
 1891W        W22171  16.679  12.367   3.127  0.0246  0.1313  0.0766
 1892W        W22172   0.580  13.844  13.261  0.1390  0.0589  0.1010
 1893W        W22173   3.428   0.879   1.536 -0.1882  0.0093  0.2496
 1894W        W22174   1.994  12.800   4.384  0.1019 -0.0857  0.1720
 1895W        W22175  15.858   4.403   4.358 -0.1632  0.3099 -0.2639
 1896W        W22176  10.435  10.799  11.885 -0.1131 -0.0543 -0.3419
 1897W        W22177   4.668  12.744   3.422 -0.0117  0.1253  0.0575
 1898W        W22178   2.028  15.103  14.342  0.2504  0.0394 -0.0467
 1899W        W22179   9.402  12.916   2.200 -0.0032  0.0985 -0.4190
 1900W        W22180  15.890  16.857  14.688 -0.1258  0.1346 -0.0078
 1901W        W22181  11.974   0.228   2.287  0.1339 -0.1824 -0.0429
 1902W        W22182   3.381   7.095  14.164  0.1664 -0.0446  0.0300
 1903W        W22183   8.017  10.587  14.104  0.1837 -0.0459 -0.0101
 1904W        W22184   1.519  11.870  16.776 -0.0235  0.4097  0.2539
 1905W        W22185  12.585  13.705  13.942  0.0150 -0.0799 -0.1928
 1906W        W22186  13.663  17.494   2.113 -0.0456  0.4793  0.0491
 1907W        W22187   1.075   0.514  16.540  0.0965  0.4928 -0.1438
 1908W        W22188  10.754   5.453  15.215  0.1572  0.2179 -0.1041
 1909W        W22189   3.803   3.786   3.229 -0.1583 -0.2176 -0.2010
 1910W        W22190  12.771  11.921   5.141 -0.0827 -0.0827 -0.0550
 1911W        W22191  15.257   6.988  14.281  0.2083 -0.1770 -0.1336
 1912W        W22192  11.496   3.755  15.412 -0.1586  0.5152  0.0947
 1913W        W22193   9.225  16.129   4.650  0.2253  0.0882 -0.0010
 1914W        W22194   7.337  14.803  13.202 -0.1199 -0.0076 -0.1059
 1915W        W22195  13.948  11.685   4.943 -0.3686  0.0399  0.1790
 1916W        W22196   1.277  11.214  11.980  0.2131  0.0496 -0.0470
 1917W        W22197  14.218  10.839  14.633 -0.3414  0.0977 -0.2130
 1918W        W22198   0.380  13.771   0.723 -0.1424 -0.2308  0.2085
 1919W        W22199   1.934  16.174   2.348  0.1416  0.0434 -0.3327
 1920W        W22200   9.312   3.328  15.027 -0.1748 -0.0223 -0.1896
 1921W        W22201   0.106   3.387  16.451 -0.0136  0.3286 -0.2265
 1922W        W22202   9.877   7.059   0.410 -0.2267  0.0493  0.1811
 1923W        W22203   6.569   7.461   1.771 -0.1487 -0.1127  0.0938
 1924W        W22204   8.488  12.091  16.561  0.0522  0.0646  0.1631
 1925W        W22205   7.446  17.277   3.651 -0.1973  0.0844 -0.0720
 1926W        W22206   5.145  12.948   3.364  0.0677  0.0716  0.1285
 1927W        W22207  13.789   1.251  15.721  0.2170  0.1414 -0.0665
 1928W        W22208  11.187   3.616   3.913 -0.0803  0.1639  0.1667
 1929W        W22209  13.976  16.153  12.392 -0.1500  0.3586 -0.0464
 1930W        W22210   4.230  16.388   4.305  0.0682 -0.1478  0.1128
 1931W        W22211   7.827   6.311   1.168 -0.0957 -0.1620 -0.0332
 1932W        W22212   3.984   3.576   2.040  0.3184 -0.1862  0.1023
 1933W        W22213  17.462   7.288  16.871 -0.1376 -0.0649  0.1069
 1934W        W22214  11.108   5.397  13.742 -0.1401  0.5898 -0.1498
 1935W        W22215  17.047   5.635  15.669  0.1064  0.4102 -0.3302
 1936W        W22216   5.080   9.887  14.276  0.1179  0.1207 -0.1346
 1937W        W22217   7.503   1.657   4.320  0.0146  0.0619 -0.0277
 1938W        W22218   5.709   2.186   1.269 -0.1661 -0.1174 -0.0511
 1939W        W22219   1.250  10.233   2.432  0.0014  0.1225 -0.0789
 1940W        W22220  11.225   0.725   5.597  0.2406 -0.1359 -0.3712
 1941W        W22221   9.971   3.736  16.699  0.0671 -0.0746  0.0276
 1942W        W22222   5.876   5.298  13.187  0.0128  0.1068  0.1674
 1943W        W22223   8.636   4.801  15.607 -0.3307 -0.0319  0.2795
 1944W        W22224   8.403   1.277   4.869 -0.0801  0.3088 -0.0233
 1945W        W22225   9.786  11.418   0.212 -0.1383 -0.0704 -0.2951
 1946W        W22226  15.801   8.921  16.519  0.1835 -0.0287 -0.1247
 1947W        W22227  16.718   6.207  16.494  0.1194 -0.1481  0.0969
 1948W        W22228  13.217   7.764   1.590 -0.1208 -0.1069  0.2271
 1949W        W22229  11.626   2.541   2.738  0.0071 -0.1054  0.0497
 1950W        W22230   7.691  15.555   0.310  0.1550  0.2916 -0.1711
 1951W        W22231   2.527  11.277   0.743  0.0920  0.1066 -0.0450
 1952W        W22232   5.809   0.130  13.155  0.3603 -0.0513  0.1150
 1953W        W22233   8.203   6.516   3.852 -0.1146 -0.1868  0.0411
 1954W        W22234   7.177   6.974   3.707  0.1900 -0.0093  0.2366
 1955W        W22235  14.556   8.471  13.753  0.0921  0.1446  0.2561
 1956W        W22236   4.258   4.472   2.914 -0.1923  0.4598 -0.0529
 1957W        W22237   4.871  15.023   0.352  0.1102 -0.2129 -0.0499
 1958W        W22238   1.167   5.422   4.128  0.0107 -0.2091 -0.1293
 1959W        W22239  13.138   9.884   3.005 -0.0556  0.0073 -0.0650
 1960W        W22240  10.003  16.417  15.332  0.0011 -0.2677  0.2728
 1961W        W22241  15.703   2.311   2.105  0.0223 -0.3821 -0.1251
 1962W        W22242   4.700   1.556   0.240 -0.0632 -0.2346  0.0180
 1963W        W22243  12.216   9.582   3.035 -0.2245  0.2177  0.0734
 1964W        W22244  10.458   7.812   4.722 -0.0148 -0.0023 -0.2367
 1965W        W22245  10.339  14.691   1.939  0.0896 -0.0768  0.1592
 1966W        W22246   1.171  10.312  13.077  0.0358 -0.0780 -0.0584
 1967W        W22247  13.090  14.447   4.921  0.2792  0.2569  0.1537
 1968W        W22248   5.528   1.629   0.769 -0.1671  0.0166 -0.1053
 1969W        W22249  10.934  14.113  16.435 -0.0450 -0.2599 -0.0450
 1970W        W22250  13.411   0.048  12.508 -0.2722  0.1187 -0.1898
 1971W        W22251  12.614   1.014  16.874  0.0724  0.1546 -0.0728
 1972W        W22252  11.746   0.219   3.953  0.1049  0.1558 -0.1598
 1973W        W22253   9.882   8.161   1.908 -0.0971 -0.0764 -0.0132
 1974W        W22254   5.070  12.890  15.481  0.0892 -0.0831 -0.1735
 1975W        W22255  11.438   1.823   3.842  0.1940 -0.0048  0.0501
 1976W        W22256  11.909  11.861  13.417 -0.0581 -0.1337  0.4056
 1977W        W22257  11.794   2.578   1.056  0.3068  0.0325  0.3121
 1978W        W22258  12.871   9.366   3.102  0.1438 -0.2204  0.1664
 1979W        W22259  12.114  12.011  14.177  0.4389 -0.1109  0.1620
 1980W        W22260  10.545  17.412  14.817  0.5825 -0.3003 -0.0331
 1981W        W22261  14.069  11.777   0.061  0.2211  0.2857  0.2181
 1982W        W22262   6.724   8.547  15.257  0.1541 -0.0090 -0.2696
 1983W        W22263   9.356  10.178  15.485  0.0683  0.0261  0.0888
 1984W        W22264   9.759   0.480  16.323  0.3590 -0.0372  0.0004
 1985W        W22265  17.719   2.034  13.670 -0.0553 -0.0248  0.2003
 1986W        W22266  10.574   5.960  12.553  0.1892  0.0309 -0.1586
 1987W        W22267   2.187  12.951  12.172 -0.0523  0.1807 -0.2027
 1988W        W22268  16.990  12.416  11.964 -0.0194  0.0227  0.0679
 1989W        W22269  10.675  15.296   3.577  0.1444  0.1913  0.1768
 1990W        W22270   0.543  13.495   0.330 -0.0153  0.1047  0.0358
 1991W        W22271   3.065  13.488   0.813  0.1175  0.2152  0.0033
 1992W        W22272  17.521  12.429   3.785  0.0017 -0.0194 -0.4242
 1993W        W22273  14.276  15.356  13.790 -0.0854 -0.1356 -0.1741
 1994W        W22274  12.209   3.216   3.177 -0.0366  0.1956  0.0679
 1995W        W22275   6.034   9.181   0.484 -0.0055  0.3037 -0.3615
 1996W        W22276   0.094   4.412   1.919  0.3532 -0.0719  0.2410
 1997W        W22277  12.101   3.564   2.708  0.1920 -0.1086  0.3990
 1998W        W22278  17.587   8.175  16.546 -0.1366  0.0026 -0.1662
 1999W        W22279   3.052  10.635  12.253 -0.1441  0.1995  0.1093
 2000W        W22280   6.463   9.273  15.167 -0.3231 -0.0832  0.2871
 2001W        W22281   4.438   3.644   1.833  0.0661 -0.1128 -0.0594
 2002W        W22282   8.672   9.180   0.131  0.5288  0.1371 -0.1619
 2003W        W22283  15.712   8.169  12.937  0.2425 -0.3766 -0.0462
 2004W        W22284   3.957   3.376  16.054 -0.5801 -0.0534 -0.1675
 2005W        W22285  15.628  14.109   4.311  0.2520  0.2375 -0.2663
 2006W        W22286   6.837   3.586  15.895  0.1359 -0.1932  0.3989
 2007W        W22287   7.897   9.455   0.647  0.0231 -0.2341 -0.0769
 2008W        W22288   3.567  17.459  13.048 -0.0060 -0.2725  0.1477
 2009W        W22289   1.362   9.352  12.872 -0.0499 -0.1033 -0.4229
 2010W        W22290  13.982   8.440  16.856  0.0177 -0.0999 -0.0387
 2011W        W22291   9.202  16.414   2.471  0.0386 -0.1104  0.1277
 2012W        W22292  11.549   2.607  12.130 -0.0626 -0.4478  0.3900
 2013W        W22293   8.895  15.378  14.140 -0.2109 -0.0491  0.0946
 2014W        W22294   1.260  12.081  14.533  0.2617 -0.3958 -0.0201
 2015W        W22295  17.317  11.668   0.061 -0.0314  0.1758 -0.2989
 2016W        W22296   8.551   5.275   0.449 -0.2344 -0.0903  0.1688
 2017W        W22297   5.325   9.158  12.995  0.0008  0.0226  0.0497
 2018W        W22298  11.260   2.824  12.936  0.3740 -0.0786  0.0597
 2019W        W22299   3.571   8.026   4.176  0.1516  0.0138  0.3595
 2020W        W22300  11.634   7.631   1.820 -0.0864  0.2874  0.0460
 2021W        W22301   5.362  10.904  14.379 -0.0748  0.0520  0.2766
 2022W        W22302  15.783   1.678  16.578  0.0068 -0.2150 -0.0731
 2023W        W22303   5.430   1.518   3.082  0.0044  0.0252  0.1579
 2024W        W22304  10.658   2.815   1.859 -0.3034  0.1249 -0.1812
 2025W        W22305   3.810  10.331  14.739 -0.2389 -0.1467 -0.3686
 2026W        W22306   6.743  15.831  15.582  0.1323  0.1489 -0.2572
 2027W        W22307   5.809   8.279  13.657  0.0201  0.0629  0.1002
 2028W        W22308  11.612  16.014   3.874 -0.4727  0.1304  0.1765
 2029W        W22309  10.560   9.655  14.312 -0.0093  0.0366 -0.1009
 2030W        W22310   6.461  13.862   3.064 -0.2838  0.1923 -0.2088
 2031W        W22311   9.107   9.802   2.492  0.1337  0.1994 -0.3347
 2032W        W22312   0.595  15.393   4.242 -0.0699 -0.2604 -0.0298
 2033W        W22313   6.608   6.437  15.923  0.1972  0.0376  0.2031
 2034W        W22314  14.397  13.119   2.135 -0.0685  0.2555 -0.0546
 2035W        W22315  11.790   7.215  12.587  0.0811  0.0101 -0.0983
 2036W        W22316   0.317   4.849   2.181 -0.3343 -0.0814 -0.0041
 2037W        W22317  12.979  15.842   3.022  0.2058 -0.0739 -0.1410
 2038W        W22318  16.332   5.695  12.798 -0.0597 -0.0186 -0.3641
 2039W        W22319   0.349   1.781   3.622  0.1567  0.0563 -0.3154
 2040W        W22320   9.826  12.754   0.898 -0.3927 -0.3584 -0.0042
 2041W        W22321   5.129   7.084   1.358  0.2753 -0.0868  0.0726
 2042W        W22322   5.585   5.666  13.536  0.1608 -0.0893  0.2957
 2043W        W22323  11.518  11.975  16.697 -0.0761  0.1253 -0.1333
 2044W        W22324   1.105  16.417   0.183  0.3615  0.0380 -0.0829
 2045W        W22325   5.269  11.537   4.397 -0.0416  0.0623 -0.0175
 2046W        W22326  13.335   5.018  16.416  0.3126  0.1843  0.0748
 2047W        W22327  14.251  15.267  16.352  0.2436  0.0897 -0.1148
 2048W        W22328  17.468  15.643   1.326 -0.1166  0.1126 -0.2528
 2049W        W22329  17.318   7.227  13.309 -0.2401  0.0569  0.1444
 2050W        W22330   9.047   2.516   4.819 -0.1231  0.2620 -0.0355
 2051W        W22331   9.388  11.179   4.671 -0.0091 -0.0689 -0.0004
 2052W        W22332   1.208  17.086  12.014 -0.2061  0.0001 -0.0538
 2053W        W22333  15.866  17.590   1.837 -0.3621 -0.1069  0.0940
 2054W        W22334  17.733  13.289   3.942 -0.2631 -0.1744  0.0543
 2055W        W22335   1.898   7.346   3.172 -0.0295  0.1560  0.1131
 2056W        W22336   5.411  13.899   5.859 -0.0117  0.1330  0.2434
 2057W        W22337  14.290   6.020   1.668 -0.0325  0.0145  0.2564
 2058W        W22338  15.126   8.663  12.523  0.0894  0.0627 -0.1588
 2059W        W22339   9.837   6.764   1.872  0.0394 -0.2495  0.1743
 2060W        W22340  16.676   0.316   3.672  0.0730 -0.0804 -0.2520
 2061W        W22341  10.691   6.600   0.731 -0.1649 -0.3772  0.1408
 2062W        W22342   3.370  15.417   0.398 -0.0965 -0.2377 -0.3553
 2063W        W22343   5.493  13.687  16.401  0.1133  0.1413 -0.1789
 2064W        W22344  14.398   8.157   0.235  0.1036  0.1630 -0.0739
 2065W        W22345  10.678   5.576   0.027 -0.4908 -0.1325  0.0399
 2066W        W22346   2.422   6.517  12.818 -0.0352 -0.3751  0.1510
 2067W        W22347   8.580   6.292   4.135 -0.1964 -0.1764 -0.0040
 2068W        W22348   7.489   2.569  14.215 -0.0747  0.1216 -0.2924
 2069W        W22349   8.229   6.849   3.477 -0.1886  0.0525 -0.1977
 2070W        W22350  14.131  11.352  14.794  0.2373  0.1177  0.2820
 2071W        W22351  11.890   6.860  16.195  0.0061 -0.0961 -0.0039
 2072W        W22352   9.486  16.106  13.580 -0.1101 -0.1993 -0.1204
 2073W        W22353  11.733  12.099  13.873  0.1427 -0.2984 -0.0586
 2074W        W22354  15.686  15.502   3.628 -0.1191 -0.2651  0.0656
 2075W        W22355  17.712   1.420  16.807  0.1738 -0.1154 -0.1725
 2076W        W22356   5.610   8.819   1.499 -0.2076  0.0622 -0.0222
 2077W        W22357   1.399   3.205  16.830  0.3129  0.0646  0.0802
 2078W        W22358   7.815   9.632   1.110 -0.2263 -0.1194 -0.2660
 2079W        W22359  17.408   1.265   2.419  0.0965  0.1037  0.1684
 2080W        W22360   6.343   6.016   0.660 -0.1665  0.1230  0.3107
 2081W        W22361  14.388   6.727  14.351  0.2743 -0.0656  0.1993
 2082W        W22362   1.700  17.238   4.299 -0.1816  0.0522 -0.1104
 2083W        W22363   2.144   4.785  13.382  0.0085  0.4801  0.2088
 2084W        W22364   1.343  13.202  12.528  0.2117  0.0622  0.3529
 2085W        W22365  16.535  13.007  13.092 -0.1179 -0.4281  0.0360
 2086W        W22366   3.583  11.003   1.683 -0.0128  0.0101  0.1062
 2087W        W22367  13.888   8.373  13.144 -0.1448 -0.1120 -0.2569
 2088W        W22368   1.800  16.309   3.703  0.2378 -0.2975  0.0120
 2089W        W22369   2.584  15.396   4.660 -0.3365 -0.5584 -0.0986
 2090W        W22370   4.680  10.336   2.882  0.2565 -0.2044  0.2582
 2091W        W22371   1.673  13.983   4.322  0.0433  0.2219 -0.0152
 2092W        W22372   8.117   3.895  14.719  0.2281 -0.2690  0.2760
 2093W        W22373  13.984   5.254   2.903 -0.1247 -0.0851 -0.0609
 2094W        W22374  15.243   8.993   0.838  0.1587  0.0752  0.0699
 2095W        W22375  11.367  16.621  13.226 -0.0564  0.0599  0.1377
 2096W        W22376   9.095  14.651   0.396  0.1487 -0.4690 -0.3181
 2097W        W22377  14.123   3.099   4.340  0.1569  0.1852  0.0981
 2098W        W22378   0.241   6.235  11.059 -0.1638 -0.0639 -0.0121
 2099W        W22379   3.078   1.466  12.929 -0.0570 -0.0235 -0.1049
 2100W        W22380  12.214  12.789  15.106  0.1962 -0.6109  0.2404
 2101W        W22381   9.360   0.885   0.678  0.0872 -0.3009  0.1825
 2102W        W22382   9.468   4.895   4.187  0.0845  0.3603  0.1321
 2103W        W22383  14.078   5.507   4.585  0.1521  0.0966  0.1477
 2104W        W22384  16.295   1.568   4.109 -0.3219 -0.0025 -0.2601
 2105W        W22385  10.097   2.535  14.275 -0.0802  0.0141  0.2412
 2106W        W22386  15.408   0.971   2.536 -0.1521 -0.0531  0.0593
 2107W        W22387   3.991  12.900   3.042 -0.1279  0.0073  0.1221
 2108W        W22388   7.629   9.900   4.721  0.0551 -0.0901  0.0341
 2109W        W22389   3.039  15.938  13.840  0.3197 -0.3645  0.1361
 2110W        W22390   7.619  15.066   2.606  0.1830 -0.0811  0.1662
 2111W        W22391   0.694  15.649  14.866 -0.1510  0.2548 -0.0447
 2112W        W22392   3.690  11.819  15.044  0.0759 -0.0487  0.1758
 2113W        W22393  12.141   7.197   1.261 -0.0029 -0.0441 -0.2070
 2114W        W22394   5.404   6.000  14.446 -0.2495 -0.2750  0.0278
 2115W        W22395   7.047   4.100  15.834  0.0793 -0.4097  0.2318
 2116W        W22396  14.764  13.707  13.257  0.4113 -0.0843  0.0557
 2117W        W22397  16.181  11.961   4.168 -0.0040 -0.2030  0.3332
 2118W        W22398  10.182  15.781   0.307  0.1576 -0.1873 -0.1181
 2119W        W22399   6.962  14.843  16.702 -0.0844  0.3181 -0.1611
 2120W        W22400   9.200   4.314  12.882  0.0937 -0.2918  0.0986
 2121W        W22401  15.812  15.100   2.196  0.0246 -0.3455 -0.1965
 2122W        W22402  16.054  14.830   0.715 -0.2038  0.4204  0.1822
 2123W        W22403   6.902   1.707   1.530 -0.2208 -0.1947 -0.0404
 2124W        W22404   5.083  12.381   1.189  0.0470  0.2112 -0.0468
 2125W        W22405  15.051   7.914  15.256 -0.0595 -0.0450  0.1281
 2126W        W22406   7.562  16.034  13.601  0.3318  0.0910 -0.1616
 2127W        W22407   2.077   2.938   1.673  0.3890 -0.0262  0.4105
 2128W        W22408   7.955  11.469   0.838 -0.0104 -0.4447 -0.0390
 2129W        W22409  10.999  10.385   4.558  0.1046 -0.0215  0.1953
 2130W        W22410   6.711   9.157  13.058 -0.3103  0.1654  0.1445
 2131W        W22411   7.393  11.896  12.964 -0.3985  0.1782  0.2201
 2132W        W22412  13.410  15.389   1.202  0.1856  0.4137 -0.0015
 2133W        W22413   4.515   3.219   0.378 -0.2521  0.1614  0.0466
 2134W        W22414   3.590   2.480  13.542 -0.2186  0.1151 -0.3251
 2135W        W22415   2.645   1.058  12.256  0.1426 -0.0759  0.0249
 2136W        W22416   8.379   2.516  12.707 -0.2912 -0.4341 -0.2379
 2137W        W22417  10.886   1.766  13.592  0.0906 -0.0645  0.0429
 2138W        W22418  10.407   0.222   4.276  0.1266  0.0221 -0.1549
 2139W        W22419   2.650  14.029  16.341  0.0282  0.0564 -0.1364
 2140W        W22420   1.867   7.071   2.512 -0.1857  0.1262 -0.0291
 2141W        W22421   4.249   3.908  15.950  0.1774 -0.1146 -0.0936
 2142W        W22422  17.001   4.972  15.072  0.0277 -0.2271  0.4402
 2143W        W22423   3.091   4.505  15.645  0.0402 -0.0722  0.1570
 2144W        W22424  13.528  10.171  13.969  0.0846 -0.1049  0.5458
 2145W        W22425   0.653  14.856  13.210  0.3740 -0.0081  0.1645
 2146W        W22426  12.846  14.153  16.458 -0.1129 -0.2067  0.1981
 2147W        W22427  15.867   2.854   2.720  0.0053  0.1716 -0.0600
 2148W        W22428   9.287   4.286   4.875  0.1367 -0.0052  0.2024
 2149W        W22429   4.598   3.450   3.762  0.0510  0.2361 -0.0734
 2150W        W22430  12.704  12.419  15.984 -0.3590 -0.2699 -0.0430
 2151W        W22431  17.638  15.977   4.206  0.0249  0.0673  0.1802
 2152W        W22432  12.134   1.235   1.616 -0.0322  0.0675  0.1526
 2153W        W22433  13.878   7.890   4.375  0.0261 -0.1552  0.2427
 2154W        W22434  12.486   3.794   0.166  0.3901  0.1120 -0.2894
 2155W        W22435  16.980   6.524  15.812  0.1756 -0.2462  0.2957
 2156W        W22436  14.341   6.576   1.978  0.0837 -0.0116 -0.0843
 2157W        W22437  16.682   2.215   3.352  0.2680  0.0495  0.0326
 2158W        W22438  13.600   6.904  15.934 -0.1709  0.0742  0.4943
 2159W        W22439   8.483   6.889   2.686  0.1319  0.0445 -0.1289
 2160W        W22440   3.824  11.238  14.688  0.0184  0.0703  0.1631
 2161W        W22441  15.570   5.081   0.539 -0.2122  0.0516 -0.1456
 2162W        W22442   8.606   5.049   1.490  0.0797 -0.1174  0.0401
 2163W        W22443   2.005   7.623  14.509 -0.0855  0.2143  0.3206
 2164W        W22444  10.344   5.344   1.182 -0.2601  0.3242  0.0847
 2165W        W22445  17.321  16.620  12.496 -0.0591 -0.1429 -0.0457
 2166W        W22446   8.340  16.995  15.046 -0.1472 -0.1518  0.1919
 2167W        W22447   5.884   9.731  16.283  0.0551  0.0835  0.0651
 2168W        W22448  16.602   7.660   1.699 -0.0591 -0.0815 -0.0216
 2169W        W22449  15.302  14.779   1.731  0.0301 -0.0999 -0.0579
 2170W        W22450   4.701  12.103  14.272 -0.2172  0.0435 -0.3496
 2171W        W22451   9.828   5.185  16.048  0.0798 -0.0000  0.1256
 2172W        W22452   1.260  12.990  14.129 -0.0529 -0.0510  0.0243
 2173W        W22453  10.050   1.959  13.591 -0.2804 -0.1705 -0.1252
 2174W        W22454   5.460   9.554   3.116 -0.2332  0.2610  0.2192
 2175W        W22455  14.664  16.498   0.818  0.2652  0.2491  0.0084
 2176W        W22456  16.669  10.657   2.420  0.0721  0.2519  0.2796
 2177W        W22457   0.240   9.145   0.489  0.2928 -0.0107 -0.2289
 2178W        W22458   1.007   3.037  13.443 -0.1388  0.2474  0.0238
 2179W        W22459   0.501   2.101  13.652  0.3650  0.0510  0.0690
 2180W        W22460  11.520   4.419   0.109  0.2774  0.0150  0.2240
 2181W        W22461   6.473   1.731   1.946 -0.2652 -0.1000  0.3106
 2182W        W22462  14.276   0.450  14.256  0.0297 -0.1578 -0.0197
 2183W        W22463   4.883  12.832   1.108  0.1117  0.0134 -0.0352
 2184W        W22464   5.254  10.004   1.229 -0.2719  0.1957  0.2027
 2185W        W22465   7.478   4.185   0.158 -0.0564  0.0141  0.1531
 2186W        W22466  17.030   2.708   1.785  0.0706 -0.1783 -0.0320
 2187W        W22467  16.734   2.589   2.486  0.0999  0.3340  0.1962
 2188W        W22468   9.145  13.654  11.957  0.1245  0.1632 -0.3510
 2189W        W22469   2.336   5.585   1.416 -0.0511 -0.0576  0.0134
 2190W        W22470   8.670   8.541  15.725  0.0732 -0.0124  0.2373
 2191W        W22471  11.489  11.290  14.344  0.3353 -0.0108 -0.3432
 2192W        W22472   3.537   6.847   1.063 -0.0596  0.0551 -0.0162
 2193W        W22473   8.644  14.150  13.250 -0.0811  0.0029 -0.0102
 2194W        W22474  12.524   9.250  15.474  0.1288  0.0446 -0.2808
 2195W        W22475  13.812  16.764   4.149 -0.1744 -0.0183 -0.0429
 2196W        W22476   7.755  14.541  13.334  0.0251 -0.3490  0.2554
 2197W        W22477  13.357  10.604   0.421 -0.1967  0.1133  0.1900
 2198W        W22478  11.637   3.608   0.308  0.0312 -0.2999 -0.1220
 2199W        W22479   0.020   4.864   0.046 -0.1585  0.0647  0.0910
 2200W        W22480  11.264   5.604  16.455  0.1496  0.2153  0.0686
 2201W        W22481   6.333   8.859   2.700  0.0415  0.3591 -0.1517
 2202W        W22482   4.368   5.747  14.232  0.2460 -0.1319 -0.1275
 2203W        W22483   7.313  13.148  16.290  0.0658  0.1572 -0.1263
 2204W        W22484   5.284   1.648  16.623  0.1466 -0.1153  0.0342
 2205W        W22485  13.338   2.596  16.510 -0.2678  0.1865 -0.1966
 2206W        W22486  11.737  14.440   0.899  0.0791 -0.2529  0.2283
 2207W        W22487  15.775  10.375  14.751  0.0721 -0.1291 -0.1527
 2208W        W22488   7.625  16.978   2.622  0.0723  0.0974 -0.0088
 2209W        W22489   2.508  11.343   4.325 -0.1755 -0.0963 -0.1901
 2210W        W22490   3.498  13.724   4.157 -0.1381 -0.0836  0.1317
 2211W        W22491  17.229  14.171  16.150  0.0249 -0.2045  0.1582
 2212W        W22492  14.800  15.051   4.840 -0.1613  0.1219 -0.0675
 2213W        W22493   6.664  14.769   4.433  0.0953  0.1702  0.2898
 2214W        W22494   3.069  14.233   2.343  0.1956 -0.2940  0.1702
 2215W        W22495  15.017   8.007   0.998  0.2054  0.1305  0.0703
 2216W        W22496   8.674   9.904  15.321 -0.0669  0.1821  0.0963
 2217W        W22497  11.609   5.250  16.340  0.0005 -0.1754  0.0820
 2218W        W22498  17.724   1.361  12.670  0.0187  0.1539 -0.1264
 2219W        W22499  15.426   1.335  13.174  0.3149  0.2694  0.0718
 2220W        W22500  13.211  11.257   5.277 -0.3136 -0.3201  0.0887
 2221W        W22501   2.296  10.633  12.772  0.1552 -0.2045 -0.1376
 2222W        W22502  13.075   9.939   2.492  0.1599  0.2291  0.0740
 2223W        W22503   9.332   1.405   1.482 -0.2792 -0.1091  0.0543
 2224W        W22504  11.900   2.846   3.010 -0.1158 -0.1278  0.0467
 2225W        W22505  10.057  12.786  12.424 -0.2811 -0.0325  0.1130
 2226W        W22506  13.785   0.726   4.541  0.0390  0.1723  0.0231
 2227W        W22507  11.676   0.727  12.005 -0.1602  0.4054 -0.2317
 2228W        W22508  12.511  15.194  14.767  0.1295  0.5204  0.0268
 2229W        W22509  15.915   1.937   4.097 -0.0007  0.1938 -0.2017
 2230W        W22510   2.944  15.412  14.450  0.2069  0.3401  0.1544
 2231W        W22511  14.922   5.497  16.072  0.0182  0.1273 -0.2964
 2232W        W22512  13.817  15.484   0.321 -0.1114 -0.1172  0.4890
 2233W        W22513   5.824   9.293   4.419 -0.0528 -0.1644  0.1529
 2234W        W22514   9.684  11.505   1.984 -0.1502 -0.2767 -0.3060
 2235W        W22515   7.842   0.548   3.415 -0.0301  0.0784 -0.0406
 2236W        W22516   7.150  10.750  14.926 -0.1296  0.1748  0.1079
 2237W        W22517   6.854   1.620   1.036  0.2046  0.1167 -0.1243
 2238W        W22518   8.280   4.928   0.152 -0.1577  0.0768  0.2012
 2239W        W22519   9.785  10.576   3.945 -0.1214 -0.2141  0.4545
 2240W        W22520   6.766  12.642  14.713  0.0563  0.0392 -0.0904
 2241W        W22521  15.564   9.347   2.483 -0.2076 -0.2568 -0.0959
 2242W        W22522   7.618   7.727  16.253 -0.0070  0.0537  0.1751
 2243W        W22523  14.835   3.059  14.593 -0.1006 -0.2417 -0.2909
 2244W        W22524   1.119  15.385   3.510  0.1655 -0.2614 -0.3031
 2245W        W22525   8.550  16.861   4.322  0.0866  0.1195  0.2864
 2246W        W22526   7.171  13.447   2.540  0.0053  0.0653  0.0767
 2247W        W22527   0.250   8.386  14.916  0.0090 -0.0184 -0.3478
 2248W        W22528  10.598  10.938   1.335 -0.0197 -0.1418  0.0063
 2249W        W22529   5.461   0.202   5.120  0.0771 -0.4060  0.3498
 2250W        W22530   8.003  14.515   0.233 -0.2504 -0.0947 -0.2063
 2251W        W22531  15.262   5.868  16.166 -0.0336 -0.1360  0.1987
 2252W        W22532   9.450   4.844  15.143 -0.2110  0.0837 -0.1261
 2253W        W22533   7.797   1.123  15.740 -0.3432 -0.3344 -0.0394
 2254W        W22534   3.620   1.713  12.340 -0.3084  0.1941 -0.2768
 2255W        W22535   9.667  16.429  16.152  0.3005  0.2590 -0.2821
 2256W        W22536   6.064  15.333  15.886  0.2667  0.1524  0.0870
 2257W        W22537  16.341  12.984  12.598 -0.0146 -0.0516 -0.0125
 2258W        W22538  11.395  13.220   4.456  0.0779 -0.0383 -0.0117
 2259W        W22539   1.232   5.718   0.692 -0.1434  0.2924  0.1127
 2260W        W22540  17.438   3.626   0.734  0.1778  0.2262  0.1168
 2261W        W22541   5.209   5.648  15.453 -0.1332  0.1377 -0.3931
 2262W        W22542   6.645   1.749  14.723  0.0620 -0.0308 -0.2367
 2263W        W22543  13.763   9.830  14.354  0.1752 -0.3489  0.0290
 2264W        W22544  14.246   7.979  16.620 -0.0799 -0.0426  0.4008
 2265W        W22545  14.189   5.028  14.761  0.2294 -0.1178  0.0620
 2266W        W22546  10.093   1.549  16.331 -0.2151  0.4339 -0.0159
 2267W        W22547  15.374   4.441   3.732  0.0882 -0.1867  0.1799
 2268W        W22548   4.975  12.488  14.523 -0.1771 -0.0730  0.1074
 2269W        W22549   8.169  13.114   1.787 -0.1182 -0.0247 -0.1805
 2270W        W22550  15.803  14.844  14.379  0.2600  0.2592  0.1914
 2271W        W22551  10.135  15.541   3.604  0.2606  0.1744 -0.1711
 2272W        W22552   8.713   3.605   2.434  0.5569 -0.1522 -0.1233
 2273W        W22553  10.177   2.594   0.328 -0.0868  0.2902 -0.0557
 2274W        W22554  15.625   5.774  12.134  0.2538 -0.1359  0.0502
 2275W        W22555   8.189   4.863  15.872  0.2576 -0.0665  0.1619
 2276W        W22556  11.110  15.781   5.419 -0.0836  0.1138 -0.2712
 2277W        W22557   0.927  10.979   0.022  0.0223  0.0518  0.4148
 2278W        W22558  12.298  10.181   1.226  0.0034 -0.3088  0.1935
 2279W        W22559   0.811  17.397   4.784 -0.0547 -0.0500 -0.0306
 2280W        W22560   0.327   6.571  14.134  0.1081 -0.2050 -0.0049
 2281W        W22561  15.286   9.704  14.813  0.3973  0.0274  0.0935
 2282W        W22562   7.609  15.490   2.860 -0.0746 -0.2101  0.2285
 2283W        W22563   5.404  13.121  13.282 -0.2594  0.1341 -0.0869
 2284W        W22564   5.176  12.201  14.178  0.1718 -0.0939 -0.1435
 2285W        W22565   3.538   8.203   0.899  0.0966  0.0349  0.2225
 2286W        W22566   5.862   6.705   1.596 -0.2188  0.1120  0.1095
 2287W        W22567   7.377   7.104   3.236 -0.1257  0.0855 -0.1197
 2288W        W22568   9.771   7.763   4.598 -0.2001 -0.0933  0.1959
 2289W        W22569   0.180   1.365   4.613  0.1239 -0.0738 -0.0788
 2290W        W22570  14.408  11.157   4.446 -0.0813  0.2553  0.0214
 2291W        W22571   4.589   6.109  12.705  0.1146 -0.1553 -0.0770
 2292W        W22572   6.059  15.329   0.680 -0.3530 -0.0576 -0.2974
 2293W        W22573  10.828   1.341  13.372  0.0125 -0.4048  0.1592
 2294W        W22574   5.399   1.613  14.058 -0.0107  0.1833 -0.0332
 2295W        W22575   5.143   4.307   2.691  0.2100 -0.1433 -0.1708
 2296W        W22576   9.833  16.878  15.257 -0.4368 -0.1194 -0.0484
 2297W        W22577  15.586  15.005   0.425 -0.0972  0.0937  0.2761
 2298W        W22578  15.078   1.466  15.979 -0.1707  0.1253  0.0911
 2299W        W22579   5.230   3.927  13.747 -0.3152 -0.0055 -0.0989
 2300W        W22580   6.263  14.255  16.163 -0.0956 -0.1305 -0.4811
 2301W        W22581   6.823   9.906  13.876  0.2291 -0.0431 -0.0910
 2302W        W22582   9.002   8.711  16.226 -0.2905  0.1300  0.1083
 2303W        W22583   1.870  11.419   4.178 -0.0761 -0.0574 -0.1378
 2304W        W22584   7.293   4.018   2.325 -0.0375  0.0776 -0.1512
 2305W        W22585   9.090  13.076  15.923  0.1862  0.1747  0.2518
 2306W        W22586   6.849  15.718  14.707  0.2436 -0.1041  0.1807
 2307W        W22587   8.659   9.357   1.167  0.0140 -0.1245  0.2874
 2308W        W22588   2.401  11.030   2.771 -0.0966 -0.0133 -0.1375
 2309W        W22589   7.567   5.855  16.709 -0.2646  0.0418  0.1149
 2310W        W22590   8.332  12.745  14.030 -0.0441  0.0624  0.1231
 2311W        W22591   3.619   0.523   4.552 -0.0232  0.2009  0.1942
 2312W        W22592  16.674  11.095   2.726 -0.0650  0.0199  0.0347
 2313W        W22593   1.820   6.428   3.136  0.0627  0.0581 -0.1278
 2314W        W22594   4.192  10.285   1.187 -0.0889  0.1547  0.3948
 2315W        W22595   5.587   2.178   4.149  0.0268  0.1012  0.3469
 2316W        W22596  11.005   0.218  16.028 -0.4167 -0.1296 -0.1232
 2317W        W22597  14.053   0.296   0.416 -0.1560 -0.0948 -0.2966
 2318W        W22598   7.334   1.530  12.319 -0.0332 -0.0616  0.0757
 2319W        W22599   4.998   7.784   0.135  0.2693 -0.1259  0.0261
 2320W        W22600  10.174  11.618  12.150 -0.1026 -0.1768 -0.0668
 2321W        W22601   3.424  10.048  12.980  0.0768 -0.1123  0.0906
 2322W        W22602   8.936   1.456   2.526  0.1041  0.0866  0.1412
 2323W        W22603  15.639   1.923   2.483  0.3618 -0.0364 -0.1416
 2324W        W22604   3.450   9.228   2.292  0.0692 -0.2733  0.0398
 2325W        W22605  11.394  12.813  15.935  0.2586 -0.0754  0.1278
 2326W        W22606   0.044  12.044  13.096  0.1362 -0.2418  0.1625
 2327W        W22607  17.304  13.362   0.075 -0.0358  0.2297  0.0365
 2328W        W22608   7.291  16.309   4.152 -0.1560 -0.1499  0.0053
 2329W        W22609  10.123   7.298   1.334 -0.0660  0.3653  0.0692
 2330W        W22610  12.413  17.250  14.414 -0.1376  0.1727  0.0660
 2331W        W22611   1.988   0.622  14.513 -0.2391  0.0424  0.1802
 2332W        W22612   7.051  16.921   3.418 -0.1576 -0.0483 -0.0162
 2333W        W22613  11.734  10.058  12.758  0.2853  0.0165 -0.1273
 2334W        W22614   2.960   0.031   4.604 -0.1421 -0.0908 -0.2392
 2335W        W22615   0.220  11.996  15.732  0.1383  0.0002  0.3514
 2336W        W22616  16.605   1.734   0.268  0.1807 -0.0980  0.1947
 2337W        W22617  13.811   7.855   4.873 -0.2738  0.1712 -0.2563
 2338W        W22618   4.615  11.732  15.205  0.1563  0.0901  0.2768
 2339W        W22619   0.879   3.712   2.716  0.1263  0.2818 -0.4069
 2340W        W22620  10.030  17.227   2.535  0.0168 -0.1580 -0.1625
 2341W        W22621  12.035   4.256  16.665 -0.0377 -0.0154  0.0594
 2342W        W22622  10.224   0.138  13.190  0.0635 -0.1717 -0.0142
 2343W        W22623  15.845  16.749   1.649  0.1367  0.0235 -0.2606
 2344W        W22624   9.430   3.893   3.608  0.1511  0.0020 -0.2576
 2345W        W22625   1.070   9.147   1.771  0.2075 -0.0340 -0.0842
 2346W        W22626  16.956   1.897   3.080  0.3572 -0.1078 -0.0154
 2347W        W22627  11.836  11.647   0.065 -0.0475  0.0835 -0.0074
 2348W        W22628   1.315   1.738   4.041 -0.1220  0.0851  0.2239
 2349W        W22629   8.162  12.759   1.352 -0.0941  0.0698  0.0733
 2350W        W22630   2.361   5.095  16.059 -0.0092  0.0206  0.3760
 2351W        W22631  13.855   7.419  14.948  0.0154 -0.0052  0.0211
 2352W        W22632  14.213   9.232   3.711  0.2831  0.1700  0.0499
 2353W        W22633  16.115  16.645   0.786  0.1051  0.0716 -0.0782
 2354W        W22634  17.160  13.817   2.120  0.2713 -0.0475  0.4935
 2355W        W22635  10.815   0.374   4.005  0.0085 -0.0253 -0.2308
 2356W        W22636  13.265   2.371  12.559 -0.1345 -0.3772 -0.0019
 2357W        W22637   4.718   5.794  15.360  0.1377  0.3855  0.0109
 2358W        W22638   5.782  12.952   4.789  0.0260 -0.0186  0.0286
 2359W        W22639   1.638   6.795  13.821  0.0173 -0.1077  0.2575
 2360W        W22640   8.459   5.134   2.584  0.1607  0.1682  0.0077
 2361W        W22641   3.560   5.013  15.079  0.0197  0.1620 -0.0428
 2362W        W22642  16.775  10.656  15.512  0.0187  0.1062  0.0446
 2363W        W22643  15.913  13.539   0.496  0.0947 -0.1296  0.1090
 2364W        W22644  10.827   7.204   2.569 -0.1771 -0.0380  0.0533
 2365W        W22645  10.041   3.460   2.888 -0.2459  0.1816  0.0040
 2366W        W22646   5.360  14.830   2.576 -0.0539  0.3807  0.1812
 2367W        W22647   3.025   8.003  13.661  0.0030 -0.1477 -0.2601
 2368W        W22648   0.665   4.045  14.082  0.3764  0.1336 -0.1084
 2369W        W22649   6.092   4.903   4.074 -0.0458  0.0234  0.1123
 2370W        W22650  12.652  10.662  13.078 -0.4006 -0.1398 -0.1361
 2371W        W22651   4.817  10.887   1.139 -0.0058 -0.1235 -0.0489
 2372W        W22652  12.358   0.767  14.702  0.1093  0.0775 -0.2632
 2373W        W22653   4.317  14.553  15.616  0.0292  0.0912 -0.1267
 2374W        W22654  10.977   7.880  15.149 -0.1513 -0.1033  0.1632
 2375W        W22655  12.397   8.824  12.798 -0.0000 -0.0117 -0.0903
 2376W        W22656   3.987   1.987  15.662  0.0443  0.2516  0.2249
 2377W        W22657   9.295  15.325   0.332 -0.1138  0.1640 -0.0711
 2378W        W22658   8.872  10.286  15.486 -0.1286  0.4140 -0.0225
 2379W        W22659   1.228  15.738   4.380 -0.3116 -0.1326 -0.0803
 2380W        W22660  12.077  13.124  12.614 -0.2032  0.0516  0.0209
 2381W        W22661   7.093   5.690   2.409  0.0668  0.1476 -0.2450
 2382W        W22662   6.739  11.354  16.018  0.0064  0.2749  0.4589
 2383W        W22663  16.982   4.950   2.306 -0.1895 -0.2571 -0.1625
 2384W        W22664   7.335   4.961  14.631  0.1518  0.0067  0.2783
 2385W        W22665   9.483   2.162   0.157 -0.0242  0.3552 -0.2345
 2386W        W22666  11.304   0.032   4.143 -0.2080 -0.2009  0.2632
 2387W        W22667  10.204   1.071   0.417  0.2618 -0.1281 -0.0143
 2388W        W22668   1.879  13.576  15.442  0.2139  0.1685  0.0529
 2389W        W22669  10.635   6.733  13.459  0.1230  0.0875  0.1495
 2390W        W22670   7.078  15.639   5.048  0.0563 -0.0761 -0.0682
 2391W        W22671   0.617   7.331   1.787 -0.0784 -0.3374 -0.2220
 2392W        W22672  12.211   4.183  16.083  0.0161  0.2004 -0.0746
 2393W        W22673   9.487  14.349   0.451 -0.2178 -0.1306 -0.1343
 2394W        W22674  10.432  12.550  12.179  0.3389  0.0112  0.1371
 2395W        W22675   3.610  16.967   3.801 -0.0078  0.1746  0.1338
 2396W        W22676   1.162   4.752  14.270  0.0389 -0.1138  0.0041
 2397W        W22677  12.955  17.680   0.060  0.0988  0.0707 -0.1349
 2398W        W22678   1.636   6.206  15.030 -0.3107 -0.0082 -0.0480
 2399W        W22679  13.385  15.695  16.489  0.1166 -0.1775 -0.3641
 2400W        W22680   2.768  11.656  12.205 -0.3393 -0.0060 -0.2724
 2401W        W22681  14.968  17.086   4.838 -0.1583  0.1476 -0.2341
 2402W        W22682   9.345   8.173   1.941 -0.1656 -0.0205  0.1748
 2403W        W22683  15.269  11.484   5.195  0.1740 -0.0621  0.1527
 2404W        W22684   0.810  14.706  16.625  0.0023 -0.3018 -0.0972
 2405W        W22685   1.088  17.076   1.519  0.0480  0.0556  0.1962
 2406W        W22686   5.120  10.441   0.316  0.0175 -0.2281 -0.3324
 2407W        W22687   0.141   0.147  16.501 -0.0852  0.2796 -0.0981
 2408W        W22688  10.211   5.710   4.474 -0.4757 -0.2360 -0.2288
 2409W        W22689   6.950  11.819  15.897  0.0356  0.2650  0.0183
 2410W        W22690   4.087  14.910   0.012  0.1208  0.0256  0.1924
 2411W        W22691   0.328  14.432   4.767  0.1128 -0.2407 -0.4811
 2412W        W22692  11.013   6.582   1.969  0.0231  0.1439 -0.1263
 2413W        W22693   7.500  16.981   4.563 -0.0545  0.1418  0.0755
 2414W        W22694  16.052   0.379   2.753  0.1358  0.0205 -0.3198
 2415W        W22695  17.676  11.495   3.924  0.1690 -0.1461  0.0118
 2416W        W22696  13.535   5.636   3.706 -0.0651 -0.2458  0.3150
 2417W        W22697   6.169  13.854   2.580 -0.2127 -0.2911 -0.1987
 2418W        W22698   5.839   0.708   0.335 -0.1184  0.0578  0.4392
 2419W        W22699  11.579   0.882   0.181  0.0237  0.0833 -0.2445
 2420W        W22700   5.387   2.775   4.280 -0.0160  0.3783 -0.1696
 2421W        W22701   6.865   0.496  15.246  0.1956  0.5036  0.1088
 2422W        W22702   3.148  11.121   4.490 -0.0712  0.0013  0.0871
 2423W        W22703  16.179  15.969  16.472  0.0925  0.2278 -0.0915
 2424W        W22704   5.524   2.560  15.969  0.0848 -0.0293 -0.2568
 2425W        W22705  15.834   9.036   4.085 -0.0408 -0.2260  0.2243
 2426W        W22706   9.793   8.851   4.335 -0.0493  0.1324  0.1447
 2427W        W22707  16.441   0.981  12.619 -0.0934 -0.1021 -0.4119
 2428W        W22708  11.926   5.025   4.697  0.0735  0.0852 -0.0630
 2429W        W22709   4.274   7.627   4.736  0.0023 -0.1830 -0.1893
 2430W        W22710  15.942  15.930   0.231  0.1496 -0.0587  0.0305
 2431W        W22711   9.704   2.259   4.627  0.2742 -0.0065  0.2836
 2432W        W22712   4.103   1.226   3.643 -0.2455 -0.0054  0.0935
 2433W        W22713   6.083   2.771  15.449  0.0576 -0.0360 -0.1584
 2434W        W22714  11.115  12.293   2.949  0.2242 -0.1090  0.3068
 2435W        W22715   1.502  16.087  11.754 -0.1898  0.1557  0.0362
 2436W        W22716  13.741  11.806  16.546 -0.0483  0.2114 -0.2166
 2437W        W22717  13.386  16.841   3.852  0.1416 -0.1843 -0.0478
 2438W        W22718  10.552   8.961   1.100  0.2213 -0.0234 -0.2808
 2439W        W22719   1.524  16.985   1.652 -0.0382 -0.2646  0.0563
 2440W        W22720   8.176   3.903   1.572  0.0454 -0.0915  0.0137
 2441W        W22721  10.704   3.193   4.489  0.1149 -0.0370  0.1822
 2442W        W22722   6.553  11.784  16.694 -0.2139  0.2899 -0.0411
 2443W        W22723   2.512  10.819   1.578 -0.0943  0.2590  0.2488
 2444W        W22724   7.232   7.653   1.127  0.1786 -0.3327  0.1458
 2445W        W22725   3.773  11.528   3.685  0.0663  0.0827  0.1715
 2446W        W22726   2.341  17.165  15.810 -0.1403  0.2057  0.2047
 2447W        W22727   0.743  11.356  14.200 -0.2211  0.1718 -0.1033
 2448W        W22728   9.106   5.670   1.600  0.2896 -0.2379  0.0877
 2449W        W22729  12.154  15.411  12.421 -0.0489  0.0112  0.0127
 2450W        W22730   2.395  13.701  15.423 -0.1364 -0.1674 -0.1658
 2451W        W22731   3.379   2.337  12.552 -0.2787 -0.0576  0.0870
 2452W        W22732   9.443  11.457  15.926 -0.0356  0.0526  0.1489
 2453W        W22733   9.261   2.795  14.717  0.0728  0.0893 -0.1913
 2454W        W22734   0.091  15.489   0.899  0.1369 -0.1188  0.0361
 2455W        W22735  17.439   6.496  14.567  0.2196 -0.1220  0.2410
 2456W        W22736   6.293  15.875  15.197  0.3422  0.1541  0.0557
 2457W        W22737  11.852   7.961  12.472 -0.3060  0.1255 -0.1501
 2458W        W22738   2.454  11.840   2.233  0.0039 -0.1092  0.1018
 2459W        W22739   7.370   6.566   1.897 -0.3129  0.0239 -0.0220
 2460W        W22740   6.795  16.332  12.449  0.0849 -0.1191  0.0440
 2461W        W22741  15.220  17.514  16.415  0.1792  0.2705 -0.2329
 2462W        W22742   8.431  12.976  16.432  0.1005 -0.0022  0.0539
 2463W        W22743  15.705  17.583  16.122  0.1648 -0.0042  0.0024
 2464W        W22744  17.219  10.503  15.442  0.1745 -0.0300 -0.2511
 2465W        W22745  12.571   5.070   3.114  0.0068  0.1531 -0.0953
 2466W        W22746  10.767  13.572   1.546  0.0151 -0.0418 -0.3811
 2467W        W22747  11.235  14.576  12.469  0.2208 -0.1730  0.1043
 2468W        W22748   5.967  14.412   0.990  0.4217 -0.0502  0.1458
 2469W        W22749   7.045  14.755   4.072 -0.3282  0.3076 -0.0569
 2470W        W22750   0.308  13.632   2.503  0.1120  0.1067  0.1051
 2471W        W22751   4.881  15.424   3.690  0.1502  0.1322 -0.0261
 2472W        W22752  16.118  16.319   4.542 -0.0125  0.0205 -0.0344
 2473W        W22753   7.418  14.668   0.117  0.0288  0.1354 -0.2466
 2474W        W22754   3.676   1.379   1.447 -0.1078  0.1293 -0.0652
 2475W        W22755  15.554  15.730   4.984 -0.1322 -0.2534 -0.0415
 2476W        W22756   5.493   5.685   1.460  0.0221 -0.3507  0.0154
 2477W        W22757   1.178   5.681   1.205 -0.2518 -0.0226  0.0303
 2478W        W22758   7.860  12.505   0.029  0.1960 -0.2200  0.0320
 2479W        W22759  10.624   3.003   3.584  0.1672  0.0184 -0.1262
 2480W        W22760   4.989  10.963  12.384  0.1468 -0.0727  0.1798
 2481W        W22761  16.129   2.825  12.363 -0.1559 -0.0126 -0.0300
 2482W        W22762   1.948   2.519   2.111  0.1183 -0.0865  0.2178
 2483W        W22763   1.270  10.633  16.633 -0.0437 -0.0863 -0.0160
 2484W        W22764  15.352  16.679  12.476 -0.0158 -0.0122  0.1629
 2485W        W22765  10.577  15.987   0.563 -0.0730  0.0974 -0.0380
 2486W        W22766   0.121   2.505   4.738 -0.1810  0.1186  0.1638
 2487W        W22767   7.803  15.154   4.697 -0.0499 -0.2628 -0.1712
 2488W        W22768   9.758   4.181  13.803  0.3281 -0.0602  0.0353
 2489W        W22769   5.704   5.734   4.861 -0.0556 -0.1055  0.0513
 2490W        W22770  10.197   9.936  15.600  0.1447  0.0103  0.0866
 2491W        W22771   4.722  15.471  15.854  0.1020  0.0205  0.0521
 2492W        W22772   1.527  15.282   3.808  0.1261  0.1176 -0.1241
 2493W        W22773  13.765   3.290  15.762 -0.0278 -0.4739 -0.4173
 2494W        W22774   0.686   5.074   1.343  0.0501  0.3476  0.0779
 2495W        W22775   6.966  12.329   1.662 -0.2351 -0.0882 -0.0549
 2496W        W22776   0.771  10.069   4.483 -0.2445  0.1352 -0.0045
 2497W        W22777   8.964  13.256   0.991  0.0116  0.0490 -0.0177
 2498W        W22778   7.106   7.449  13.812 -0.1196 -0.3418 -0.5794
 2499W        W22779  12.704  16.364  14.855 -0.2440  0.1320  0.0139
 2500W        W22780   3.508   2.961   0.148  0.2260  0.0594  0.1620
 2501W        W22781  14.987  15.006   2.106 -0.1342  0.1608 -0.2018
 2502W        W22782   5.617   6.605   3.272  0.4387  0.0626 -0.0575
 2503W        W22783  16.999   0.316  14.518  0.0968 -0.2473 -0.0053
 2504W        W22784   0.037   5.335   0.410  0.1505  0.0544 -0.0179
 2505W        W22785   9.930   3.776   2.363  0.1367  0.0261  0.0278
 2506W        W22786  10.491   7.706   3.306 -0.0579 -0.0637  0.1030
 2507W        W22787  13.422   6.993   1.168  0.1323 -0.0559  0.0210
 2508W        W22788  10.051  17.573   4.208 -0.3002 -0.0654  0.0666
 2509W        W22789   6.367  15.166   3.328  0.0361 -0.2217  0.0903
 2510W        W22790   7.293   9.818  12.983 -0.0467 -0.3524  0.2433
 2511W        W22791   2.650  14.140   3.212  0.1437  0.4186  0.0334
 2512W        W22792  11.167   1.792   2.930 -0.0271 -0.2039 -0.1959
 2513W        W22793   3.210   6.875   0.690  0.1753 -0.0894  0.1232
 2514W        W22794   9.035  13.251   2.379 -0.2157  0.3090 -0.0730
 2515W        W22795   6.055  10.029  12.504  0.0187 -0.2153 -0.0630
 2516W        W22796   9.090   1.032   2.770 -0.4331 -0.0435  0.1064
 2517W        W22797   0.933   0.511  15.056 -0.0085  0.0833  0.0952
 2518W        W22798  17.184  14.891  14.285  0.0464  0.0455  0.1759
 2519W        W22799   8.820  11.701   2.614  0.0526  0.0298  0.0827
 2520W        W22800   6.862   7.909  13.789  0.1872  0.0448 -0.2603
 2521W        W22801  11.764  13.253  12.259  0.1038  0.3221  0.0892
 2522W        W22802   2.072   0.247   4.718 -0.0499  0.0670 -0.1632
 2523W        W22803   6.083   8.027  14.490 -0.0953 -0.1466  0.2454
 2524W        W22804  13.778   7.595  16.556 -0.0494  0.0667  0.5260
 2525W        W22805  14.073   8.922  14.537 -0.1906  0.3307  0.0617
 2526W        W22806  11.446   9.500  15.823  0.0941  0.0573  0.0425
 2527W        W22807   4.093  15.366  14.910 -0.1282 -0.0461 -0.0847
 2528W        W22808  13.965   9.289  12.692 -0.1593 -0.4130  0.0024
 2529W        W22809  10.221   6.280  16.744 -0.0046  0.2807  0.3933
 2530W        W22810   5.795  13.458   0.976  0.1946  0.0520  0.2237
 2531W        W22811  16.067   9.607  15.614 -0.1261  0.2130 -0.0980
 2532W        W22812   7.932  10.235  12.727  0.0013  0.0571  0.2770
 2533W        W22813   9.558  11.808   0.372 -0.0789  0.0683 -0.1933
 2534W        W22814   2.389   7.369  14.991  0.0157 -0.0592  0.1463
 2535W        W22815   5.089   4.420   3.580 -0.1360 -0.0183  0.1137
 2536W        W22816  14.166   7.616  12.151 -0.0911  0.1638 -0.2945
 2537W        W22817   4.090   9.653   1.737 -0.1208  0.5529  0.3479
 2538W        W22818   3.611   1.210  15.056  0.1444  0.0065 -0.0837
 2539W        W22819  13.462  13.028   3.170 -0.0252 -0.2211  0.0081
 2540W        W22820   8.726   2.926   4.608  0.1848 -0.2436  0.0076
 2541W        W22821  12.974  15.467  16.824  0.1461 -0.2437 -0.1659
 2542W        W22822   7.919  10.703  13.526  0.0729  0.0825  0.1389
 2543W        W22823   5.479   9.903  12.406  0.1064 -0.3932 -0.2552
 2544W        W22824   1.750   5.212   2.202 -0.0494 -0.0878 -0.1374
 2545W        W22825  15.129   3.558  16.180  0.0423  0.0732  0.0125
 2546W        W22826   4.621   7.107  12.415 -0.0719  0.0850  0.3771
 2547W        W22827   9.127  15.397  13.686  0.1425  0.1448 -0.1027
 2548W        W22828   3.538  13.501  16.058  0.0397 -0.0704  0.0757
 2549W        W22829  13.978  14.175  15.524  0.2066  0.2205 -0.0261
 2550W        W22830   5.669  12.460  15.039 -0.0520  0.2732 -0.1047
 2551W        W22831   5.721   7.836  13.519 -0.1682  0.2913  0.0603
 2552W        W22832  15.440   8.768   4.211 -0.0106  0.0684 -0.0404
 2553W        W22833   3.093   9.371  13.836  0.1735 -0.1249 -0.0735
 2554W        W22834  17.704   0.631  16.298 -0.0373 -0.1791  0.0673
 2555W        W22835   2.710   3.693  16.189 -0.0190 -0.1283  0.0101
 2556W        W22836   3.343   7.203  16.585  0.1466  0.1678 -0.2883
 2557W        W22837  12.568  17.299  15.020  0.0277  0.1267  0.1907
 2558W        W22838  11.726   6.358   1.706 -0.0541  0.0740  0.1328
 2559W        W22839  12.901   7.070   4.452 -0.2285  0.0320 -0.0710
 2560W        W22840  11.935   3.101  13.475  0.0496 -0.1460 -0.1042
 2561W        W22841   0.159   7.491   2.058  0.1087  0.2503  0.3811
 2562W        W22842   9.957   4.772   0.805 -0.0580  0.2361  0.0254
 2563W        W22843  17.100   5.436   2.958  0.0619 -0.0481  0.0971
 2564W        W22844  14.619  14.964  13.762  0.0970  0.0187 -0.0928
 2565W        W22845  16.760   0.618   0.554  0.0111 -0.0301  0.0507
 2566W        W22846   1.938   0.180  13.019  0.1493 -0.1153 -0.0726
 2567W        W22847  14.462  13.263  14.257 -0.0802  0.1415  0.0544
 2568W        W22848  12.709   0.196   2.005 -0.0061  0.2357 -0.0345
 2569W        W22849   4.855  14.066   3.097 -0.1272 -0.0345 -0.3675
 2570W        W22850  13.982   2.592   0.759 -0.2083  0.1004  0.2651
 2571W        W22851  16.677   2.794  12.218  0.0768 -0.0175 -0.3624
 2572W        W22852   2.706   8.003   4.308 -0.0030  0.3559 -0.0651
 2573W        W22853   4.845   1.125  14.421  0.3144  0.0639 -0.2976
 2574W        W22854   5.158   6.164   4.640 -0.0901  0.0256  0.1176
 2575W        W22855   7.128  16.637   4.430  0.0984 -0.0184  0.2098
 2576W        W22856  11.077  10.865  11.179  0.2805  0.5069  0.2394
 2577W        W22857  13.309  14.861  16.028  0.0706 -0.2393  0.0313
 2578W        W22858   8.250  13.814   3.795 -0.1282 -0.1118  0.0784
 2579W        W22859   1.024   0.787   2.234  0.2012  0.2344 -0.0473
 2580W        W22860  16.631  11.955   4.009 -0.1949  0.0336 -0.0829
 2581W        W22861   0.708  11.379  16.702  0.1454  0.4702 -0.1671
 2582W        W22862  14.698   2.393   1.270  0.3203  0.0190 -0.1314
 2583W        W22863   9.415  13.493   4.296 -0.0919  0.0665 -0.0601
 2584W        W22864   3.211   8.711   1.536 -0.2439 -0.0387 -0.3281
 2585W        W22865  12.865   5.879   1.018 -0.0324  0.1822  0.2614
 2586W        W22866   4.064   7.880   4.361  0.1220 -0.0984  0.0031
 2587W        W22867   7.125   4.215  15.277 -0.0409 -0.0398 -0.1460
 2588W        W22868  17.059   1.869   3.587  0.1809  0.1409  0.1189
 2589W        W22869  13.304  12.026  13.220 -0.0908 -0.0345  0.2478
 2590W        W22870  15.050   7.712  13.629 -0.0984 -0.2624 -0.0399
 2591W        W22871  11.414   2.174   4.640  0.0371 -0.0418  0.1251
 2592W        W22872  13.160  10.241   1.309  0.0515  0.0913  0.3963
 2593W        W22873   2.491   3.985  12.242 -0.0704 -0.1070  0.1581
 2594W        W22874  12.708   0.655   1.298  0.1195  0.1469 -0.0968
 2595W        W22875   6.193  10.851  13.177 -0.0162  0.0400  0.0689
 2596W        W22876   3.379  10.301  12.002 -0.4787 -0.1281 -0.0617
 2597W        W22877  13.371  14.960   3.013  0.1781  0.1355  0.1161
 2598W        W22878   9.046   6.828   0.972  0.1156 -0.2850 -0.0914
 2599W        W22879  10.052  15.857   4.029 -0.2404  0.1930  0.1019
 2600W        W22880   5.215   7.546   0.546 -0.2040  0.1742 -0.0839
 2601W        W22881   7.216  15.984  14.803  0.0946  0.1335 -0.0526
 2602W        W22882   0.885  11.104  14.665 -0.1672 -0.2538 -0.1237
 2603W        W22883  13.332  16.729  16.797  0.1171 -0.5738 -0.0724
 2604W        W22884   1.715  13.350   3.681 -0.3601  0.1691  0.3745
 2605W        W22885   9.623   3.683  12.308 -0.1973  0.1431  0.1999
 2606W        W22886  12.989   8.513  13.600 -0.1281  0.2219  0.0765
 2607W        W22887  17.711   2.597   3.683 -0.0365  0.0842  0.1037
 2608W        W22888  15.623  10.863  15.040  0.1351 -0.2169  0.2421
 2609W        W22889   7.315   7.709   2.792  0.0671 -0.1922  0.1224
 2610W        W22890  11.615   4.585   6.041  0.0913 -0.0365  0.2421
 2611W        W22891   1.077  17.378  12.850 -0.2593 -0.0811 -0.1233
 2612W        W22892   3.029   7.070   4.547 -0.2285  0.0937  0.0865
 2613W        W22893   9.281   5.324  12.733  0.2381 -0.0020  0.1251
 2614W        W22894  14.916   6.429   2.021  0.2619 -0.0535  0.1405
 2615W        W22895   4.337   4.295  16.285 -0.0262  0.2730 -0.0037
 2616W        W22896  10.807  16.995   4.658 -0.1186 -0.3923  0.1862
 2617W        W22897  16.183  12.706  15.843  0.2950  0.1159 -0.1860
 2618W        W22898  11.732  17.718  13.201  0.0110 -0.1324 -0.0509
 2619W        W22899   5.984  12.141   2.454 -0.1254 -0.0780  0.1774
 2620W        W22900   2.868  15.423   3.666  0.0485 -0.0762 -0.1878
 2621W        W22901   5.572  10.764  15.334 -0.1192  0.0849  0.3093
 2622W        W22902   3.181  17.503  14.939  0.2515  0.1990  0.1066
 2623W        W22903   8.775   4.453   4.548 -0.0957 -0.0674 -0.1359
 2624W        W22904   4.419  14.763  15.160  0.2189 -0.4090  0.1993
 2625W        W22905  16.518  16.446   2.591 -0.2838  0.1996 -0.0286
 2626W        W22906  12.182   0.516   5.069  0.0249 -0.3085  0.0152
 2627W        W22907   4.947  17.243   1.966  0.0311 -0.0766 -0.1816
 2628W        W22908   5.999   3.336   0.060 -0.0224 -0.2148 -0.2652
 2629W        W22909   7.611   2.898   3.559 -0.3301  0.4006  0.1132
 2630W        W22910  13.330  12.789  13.120  0.1422  0.1132 -0.0869
 2631W        W22911   1.962   3.153  15.320  0.1301 -0.0450  0.2169
 2632W        W22912   0.818  17.697   3.558 -0.0327  0.2676  0.1191
 2633W        W22913   0.018  15.652  14.287  0.0017  0.0405 -0.1180
 2634W        W22914   4.478   6.611  15.101  0.0423 -0.0371  0.1259
 2635W        W22915  13.158   7.195   0.201 -0.0292 -0.1248  0.1882
 2636W        W22916  16.335   0.661   3.489 -0.0579 -0.0330 -0.1145
 2637W        W22917  10.419   3.943   3.691  0.0147 -0.0443 -0.2064
 2638W        W22918   1.703   2.105  12.298 -0.3904 -0.0376  0.0566
 2639W        W22919   9.338  12.852  11.968 -0.4677  0.0355 -0.2268
 2640W        W22920   0.450  12.912   1.022  0.1639 -0.0411 -0.2249
 2641W        W22921   7.384   9.675  15.600  0.1185  0.0044 -0.1437
 2642W        W22922   1.295  13.397  15.376 -0.0826  0.1350  0.1351
 2643W        W22923   9.301  14.927  12.952  0.0452 -0.2582  0.2925
 2644W        W22924  10.771   5.462   2.688  0.2105 -0.0217 -0.2949
 2645W        W22925   9.110   7.079  12.925 -0.1985 -0.1165 -0.1552
 2646W        W22926   6.996  17.135  13.103 -0.0324 -0.0060  0.1228
 2647W        W22927  14.726   6.971  13.070 -0.2493 -0.0627 -0.6809
 2648W        W22928   5.948   9.937   1.881  0.2548 -0.1309  0.1141
 2649W        W22929   4.108   6.845  16.487 -0.0516  0.0305 -0.0763
 2650W        W22930  13.099  11.305   4.704  0.0130  0.0017 -0.0975
 2651W        W22931  15.437  14.620   3.863  0.0504  0.1627  0.1601
 2652W        W22932  14.294   6.195  14.177 -0.0168  0.0740 -0.0529
 2653W        W22933  17.157  16.807   4.626 -0.1487 -0.2192  0.1399
 2654W        W22934   4.777   9.927   3.573  0.1051 -0.0850 -0.0883
 2655W        W22935   6.782  11.377  13.476  0.0307  0.0549 -0.0232
 2656W        W22936   4.631   7.455   0.679  0.2305  0.2530 -0.1834
 2657W        W22937   5.916  11.662   2.460 -0.1887 -0.0141  0.0790
 2658W        W22938   8.590   9.010  14.862 -0.0400 -0.1131  0.0442
 2659W        W22939   9.173   3.545  12.178 -0.2557 -0.0845  0.1361
 2660W        W22940   2.482   6.297  12.251 -0.0240  0.0664  0.0825
 2661W        W22941  11.442   4.379   3.054 -0.1045 -0.0660  0.0248
 2662W        W22942   9.656   1.015   0.311  0.4675  0.1290  0.4493
 2663W        W22943   9.401   5.259   0.318 -0.2584 -0.0583 -0.0639
 2664W        W22944   1.467  10.238  16.814 -0.0776  0.0487 -0.0169
 2665W        W22945  14.845   3.316   4.856  0.0782 -0.0464 -0.1379
 2666W        W22946   6.288  13.684  16.792 -0.3456  0.3240  0.4103
 2667W        W22947   8.291  14.242  14.776 -0.4664  0.1158 -0.1671
 2668W        W22948   6.226  11.112   1.609  0.1392  0.2550  0.1200
 2669W        W22949  15.232  13.691   4.882  0.1541 -0.0027  0.2209
 2670W        W22950  17.737  10.340  16.796  0.0648  0.1094 -0.0611
 2671W        W22951   5.852  12.933   2.941  0.2206 -0.0987 -0.1862
 2672W        W22952   2.264  13.295  14.102  0.1029 -0.3777 -0.0167
 2673W        W22953  14.298   4.866  16.749  0.0174  0.0918 -0.0310
 2674W        W22954   7.666   2.569  16.740  0.1627 -0.1037 -0.0162
 2675W        W22955   7.592   4.303  15.427  0.1399  0.0749  0.1592
 2676W        W22956   5.692   8.559  16.137  0.0392 -0.1850 -0.0777
 2677W        W22957  10.653  15.227  15.704 -0.0019  0.1917  0.3729
 2678W        W22958   7.882  15.993  12.628  0.0966  0.0366 -0.0838
 2679W        W22959  17.332  11.186   0.319  0.0453  0.2794 -0.2611
 2680W        W22960  15.071   6.161  12.932  0.3092  0.1206 -0.1604
 2681W        W22961  13.691  13.090   4.944 -0.2920 -0.1196  0.0468
 2682W        W22962  13.898   4.345  12.239  0.0303  0.0122  0.1424
 2683W        W22963  10.157   2.456  16.383  0.3477  0.4645  0.0275
 2684W        W22964   7.307  17.040   2.093 -0.1765  0.0375 -0.0349
 2685W        W22965   1.775   9.808   1.463 -0.0504  0.0464  0.1166
 2686W        W22966  16.595  16.020  14.498  0.1061 -0.0851  0.2336
 2687W        W22967   1.869   7.534   2.697 -0.1034 -0.0199 -0.3283
 2688W        W22968  14.555  13.802   1.647 -0.0374 -0.1675 -0.0019
 2689W        W22969   4.312  10.428  16.109 -0.3327 -0.0980  0.1678
 2690W        W22970  17.658   8.357  14.478 -0.1821  0.1578  0.0356
 2691W        W22971   4.300   1.667   3.516  0.0183  0.2818 -0.0118
 2692W        W22972   9.472  13.016  14.114 -0.1396  0.0782 -0.3551
 2693W        W22973   1.754  12.493   3.331 -0.1194  0.0027  0.2027
 2694W        W22974  13.874  16.303   3.056  0.0376  0.2226  0.0140
 2695W        W22975   4.156   6.805  15.961 -0.3864 -0.2268  0.0930
 2696W        W22976   2.660  16.527   1.676 -0.0339  0.0486  0.0470
 2697W        W22977   0.383  16.755  14.936  0.0071  0.1199  0.0925
 2698W        W22978   7.600  12.112   4.852  0.0802 -0.2407 -0.0148
 2699W        W22979   7.733   7.535  14.392  0.3031 -0.1309 -0.2078
 2700W        W22980  12.388  15.864   3.429 -0.1703  0.1608  0.0824
 2701W        W22981  13.787   4.376   0.252 -0.1670  0.1723 -0.1214
 2702W        W22982   9.603  15.989  15.339  0.2239 -0.0540 -0.0185
 2703W        W22983   1.031   3.490   0.426  0.1100 -0.1250  0.0261
 2704W        W22984   2.127  11.079   1.815 -0.2613  0.0029  0.0895
 2705W        W22985   5.915   3.474   0.723 -0.1826  0.1604  0.0597
 2706W        W22986   4.645   0.343  16.851  0.1342  0.1275  0.1039
 2707W        W22987   0.660   3.375  13.136  0.1162 -0.1451  0.1087
 2708W        W22988  13.746  16.326  15.152  0.0951 -0.0379  0.0796
 2709W        W22989  12.810  12.532   2.149  0.1532  0.1454 -0.1023
 2710W        W22990  14.029  17.626  13.811 -0.3326  0.2115  0.0711
 2711W        W22991   2.290   4.126  14.827 -0.0210 -0.0118 -0.2416
 2712W        W22992   2.390  10.968  13.074 -0.0437  0.1815 -0.2719
 2713W        W22993   6.293   6.364   4.468  0.0674  0.0896  0.1733
 2714W        W22994  11.103  15.927  16.249 -0.1793 -0.0496  0.2251
 2715W        W22995   6.725  12.159   4.264  0.1129  0.0551  0.0595
 2716W        W22996   1.504   1.555   3.528  0.0235 -0.1077 -0.1571
 2717W        W22997  11.352  12.059   4.876 -0.3224  0.0268  0.2354
 2718W        W22998   8.721   0.663   3.200 -0.1153  0.0234  0.0918
 2719W        W22999   4.269   3.853   2.792  0.2492  0.0847  0.0492
 2720W        W23000  14.312  14.729   0.128 -0.1078 -0.2000  0.1145
 2721W        W23001   1.749   1.765   0.735  0.2689 -0.1134 -0.0180
 2722W        W23002   5.304   0.338   2.215 -0.2149  0.0505 -0.1445
 2723W        W23003  14.993  16.189   1.082  0.2323  0.2773  0.3134
 2724W        W23004  15.972   3.848  14.545  0.0587  0.0774 -0.0753
 2725W        W23005  14.229   7.851  15.011 -0.1545  0.2010  0.0326
 2726W        W23006   7.403   6.644  12.852  0.0965  0.2892 -0.2294
 2727W        W23007   6.062  14.203   0.115 -0.1450  0.0385  0.0495
 2728W        W23008   8.702  11.134  11.986  0.1188 -0.2526 -0.1262
 2729W        W23009  10.493   6.676  16.831 -0.1258 -0.1108 -0.0967
 2730W        W23010   6.722  11.217  16.503  0.0680  0.0990 -0.0611
 2731W        W23011   3.456   4.293   3.170  0.3932 -0.4235 -0.3108
 2732W        W23012   7.182   9.530   2.911  0.2043  0.1941  0.0245
 2733W        W23013  12.290   0.561  16.333 -0.0262  0.0873 -0.1594
 2734W        W23014  11.162   1.465   5.042  0.0460  0.3540  0.0407
 2735W        W23015  16.848  16.929  15.125  0.0838 -0.0660  0.1439
 2736W        W23016   6.963  12.636  15.185  0.2889  0.1876  0.2823
 2737W        W23017  16.685  16.692  15.533  0.1150  0.1767  0.0285
 2738W        W23018  11.780   9.870   4.341  0.4886 -0.1074  0.0819
 2739W        W23019   9.390   6.913   0.455  0.2457 -0.3054  0.0141
 2740W        W23020   1.938  17.031   3.402  0.0049  0.0468 -0.4017
 2741W        W23021   0.265   5.933  13.640  0.2082  0.0377  0.2449
 2742W        W23022   7.875   6.719  11.976  0.2720 -0.0680 -0.1428
 2743W        W23023   8.426  14.331   2.679  0.0072 -0.0693  0.2337
 2744W        W23024   2.968  14.621  13.695 -0.1816 -0.2051 -0.1222
 2745W        W23025  10.008   7.328  13.991 -0.1300 -0.0134 -0.1246
 2746W        W23026  11.864   5.267   1.374  0.1658 -0.0851 -0.1756
 2747W        W23027  15.547   0.235  12.413  0.0172  0.0102 -0.1117
 2748W        W23028  13.096  10.668  16.314 -0.1306  0.3035 -0.4971
 2749W        W23029  14.765  13.947  12.773 -0.1315 -0.1683 -0.0740
 2750W        W23030   5.221   9.644  13.237  0.0463  0.0157 -0.3390
 2751W        W23031   3.728   3.067  16.492 -0.0700  0.0435  0.0443
 2752W        W23032   5.838  14.630  13.544 -0.0307 -0.2910 -0.0136
 2753W        W23033   1.059   4.793   1.607  0.0051 -0.1070  0.5033
 2754W        W23034   6.980   0.805   3.006 -0.0917  0.1313 -0.1320
 2755W        W23035   6.796   9.551   0.194 -0.0337  0.1381 -0.1145
 2756W        W23036  15.637  17.393   2.916  0.1418 -0.1925  0.0944
 2757W        W23037  13.913   4.458  15.726 -0.2617  0.2422 -0.1109
 2758W        W23038   4.434  10.747  16.529 -0.1445 -0.0418  0.0719
 2759W        W23039  15.992   8.663   4.354 -0.2133  0.0558 -0.0602
 2760W        W23040  13.859   2.675  12.288  0.1762  0.3280 -0.0228
 2761W        W23041   3.910  12.493  14.149  0.1538 -0.3095  0.2097
 2762W        W23042  14.155  16.037   4.624  0.0573 -0.1475  0.0696
 2763W        W23043   3.098   4.094   3.869 -0.2592 -0.0432  0.1867
 2764W        W23044  17.459   0.959  15.452 -0.0347 -0.2443  0.0107
 2765W        W23045  15.869  10.370   3.544 -0.0071  0.1242 -0.0848
 2766W        W23046  14.556   4.187  15.220 -0.0960  0.0254  0.3319
 2767W        W23047   8.824  17.548   3.107 -0.3464 -0.1384  0.0071
 2768W        W23048   4.379  13.910   2.774 -0.2694  0.2300  0.2283
 2769W        W23049   6.218  17.446   4.461 -0.1744 -0.0343 -0.0404
 2770W        W23050   5.637  16.801   4.697  0.1580  0.0698  0.1561
 2771W        W23051   3.537   0.322   1.617  0.1792  0.0671  0.0683
 2772W        W23052  11.449  15.678  13.296 -0.1358 -0.2225 -0.0616
 2773W        W23053  16.934   5.935   2.998 -0.0778  0.0278 -0.0947
 2774W        W23054   5.427  16.487   1.190  0.0476 -0.3281 -0.2027
 2775W        W23055   2.976   1.730   2.610  0.1348  0.1327 -0.1054
 2776W        W23056  12.248  14.412   2.880  0.2295  0.0576 -0.2319
 2777W        W23057  12.048   3.035  12.573  0.0245  0.2726 -0.5579
 2778W        W23058  16.807  14.400  13.363  0.0696 -0.3490  0.0241
 2779W        W23059   6.874   5.160  14.078 -0.0996 -0.0820 -0.0109
 2780W        W23060   7.526  16.662  12.529 -0.1615  0.0976  0.0102
 2781W        W23061   3.437   1.537   6.029  0.1479 -0.1017 -0.2190
 2782W        W23062  11.210   0.635  12.876 -0.1613  0.0317 -0.2362
 2783W        W23063   6.103   8.013   4.105 -0.0015  0.1054 -0.3673
 2784W        W23064  16.118   3.054  13.850 -0.1748  0.1143  0.1989
 2785W        W23065  14.734  16.836   0.094 -0.0644 -0.5201 -0.1017
 2786W        W23066  16.289  14.324   5.425 -0.3536  0.3504 -0.1885
 2787W        W23067   3.265   8.571   0.649  0.0186  0.0862  0.1102
 2788W        W23068  12.734   7.994   2.633 -0.2035  0.0802  0.0693
 2789W        W23069   6.884   0.445   4.447  0.1464  0.0840  0.0782
 2790W        W23070  10.611   9.422  13.869  0.1791 -0.0482 -0.0331
 2791W        W23071   1.015   6.983   1.141 -0.1268 -0.0271 -0.2147
 2792W        W23072   9.990   9.294  12.007  0.0432  0.0637 -0.2573
 2793W        W23073   5.587   0.048   0.898 -0.1603  0.1268 -0.1219
 2794W        W23074   7.619   6.336  11.780 -0.2181 -0.0413 -0.0961
 2795W        W23075  12.835  10.013   4.531  0.0013 -0.1043 -0.0854
 2796W        W23076  10.911   6.458  12.276 -0.1724  0.1510  0.3830
 2797W        W23077   7.380  14.046  11.728  0.0663 -0.0438 -0.1186
 2798W        W23078   7.379   9.347  14.961 -0.0382 -0.0384  0.2574
 2799W        W23079  10.213   9.869   4.414  0.0709  0.0790  0.1029
 2800W        W23080  11.344  15.149   3.905 -0.3377 -0.0913 -0.0883
 2801W        W23081   7.734   6.052  10.930  0.0648  0.0660 -0.5632
 2802W        W23082   1.990  13.202  16.848  0.0309 -0.1593 -0.1891
 2803W        W23083  14.141   8.877  16.666 -0.2647 -0.0321  0.0899
 2804W        W23084   6.462   1.616   1.454  0.2894 -0.1489 -0.0872
 2805W        W23085   0.526   5.264   2.411  0.2172 -0.0969 -0.2062
 2806W        W23086   3.996   3.386   2.483 -0.0908 -0.2098  0.2079
 2807W        W23087  16.941   2.480  15.914 -0.3371 -0.2198 -0.0530
 2808W        W23088   4.148   2.225   0.670 -0.1237  0.0026  0.1489
 2809W        W23089   0.678   0.708  13.589 -0.1608  0.1374 -0.0269
 2810W        W23090   4.266   2.864  13.691 -0.0542  0.6085 -0.1418
 2811W        W23091   4.040   2.005   4.760 -0.0084  0.0432 -0.1213
 2812W        W23092   3.837   7.112  15.635  0.0129  0.0978  0.3816
 2813W        W23093  10.625   5.977  14.762  0.2504  0.0361  0.0953
 2814W        W23094  15.700   9.138   0.600  0.0219  0.0556 -0.1610
 2815W        W23095   3.992  14.563  16.516 -0.0118 -0.0600 -0.2449
 2816W        W23096  15.426   1.851  16.252 -0.2250 -0.0880 -0.0962
 2817W        W23097   0.038   7.914  12.253  0.2023  0.2255  0.2673
 2818W        W23098   7.410  15.985   0.575 -0.2117  0.2932  0.1225
 2819W        W23099  13.961   2.967  14.590  0.0944  0.0754  0.1715
 2820W        W23100  13.927  13.008  11.986  0.0105 -0.0585 -0.0629
 2821W        W23101   9.637   7.173   4.602 -0.0358  0.0695  0.1713
 2822W        W23102  11.730   9.286   4.926  0.0962 -0.0391  0.1352
 2823W        W23103   9.337  11.490   1.506  0.3563  0.0815  0.0550
 2824W        W23104  15.260  17.628  15.952 -0.1406  0.0507 -0.1863
 2825W        W23105  13.949  10.350   4.180  0.3698 -0.0496  0.1377
 2826W        W23106   5.173   8.470  14.839  0.1016 -0.1094  0.0485
 2827W        W23107   8.893   7.152  13.372 -0.1816  0.0467  0.2046
 2828W        W23108  11.885   6.342  16.074  0.1341  0.1924  0.0220
 2829W        W23109   2.360  16.914   3.010 -0.2058 -0.4006 -0.6067
 2830W        W23110   1.095  15.176   4.031  0.0470 -0.1557  0.2528
 2831W        W23111   7.232  10.971  12.021  0.0616  0.1303  0.0067
 2832W        W23112  12.875   2.235  12.193  0.1530 -0.0900 -0.1936
 2833W        W23113  10.145  16.299  16.099 -0.0929  0.1889 -0.1224
 2834W        W23114   2.855   1.677  14.569  0.1517  0.2106 -0.0851
 2835W        W23115   6.846   6.010  15.145  0.3378 -0.0562  0.2110
 2836W        W23116  14.479  11.901   1.294 -0.3570  0.0882  0.2743
 2837W        W23117  14.104   0.778   2.873  0.2618  0.1233  0.0175
 2838W        W23118   8.432  15.124   3.412  0.0782  0.2577 -0.0475
 2839W        W23119  16.091   8.923  13.980 -0.1456 -0.3416  0.1358
 2840W        W23120   6.543  13.660  13.910 -0.1004  0.1942 -0.1015
 2841W        W23121   5.344   9.980   0.263 -0.1719  0.1660  0.3092
 2842W        W23122  12.723  17.190   3.293  0.2554  0.3502  0.1399
 2843W        W23123  14.352  12.926  15.737 -0.1466 -0.0004  0.0892
 2844W        W23124  15.930  12.931  13.587 -0.0795  0.0050 -0.3783
 2845W        W23125   0.928  15.554  15.319 -0.0791 -0.0761 -0.0816
 2846W        W23126  11.250   4.449   1.343  0.0747 -0.0348 -0.2753
 2847W        W23127   9.386  14.772  16.083 -0.0572  0.0050 -0.1881
 2848W        W23128   3.177  13.162  14.068 -0.0541 -0.1806  0.1036
 2849W        W23129  14.163   5.513   3.325  0.3394 -0.0987 -0.2638
 2850W        W23130   3.141  16.628   2.575 -0.0950 -0.1356 -0.0523
 2851W        W23131  16.881  13.641  12.438  0.1222 -0.1347  0.0829
 2852W        W23132   9.245   9.343   2.740 -0.1961 -0.0760 -0.0305
 2853W        W23133  15.154  13.261  13.011 -0.0516  0.2925 -0.2403
 2854W        W23134   7.758  16.947  13.840  0.1128  0.1811 -0.1569
 2855W        W23135  16.451  12.937  15.127 -0.0270 -0.0229 -0.1019
 2856W        W23136  10.343   7.913   2.282  0.3554 -0.0198  0.1555
 2857W        W23137  10.841   6.414  14.821 -0.0905 -0.0650 -0.1712
 2858W        W23138  14.439   7.386  15.849 -0.1399  0.0295  0.1139
 2859W        W23139   8.128  11.967   0.865 -0.0120 -0.1755 -0.0040
 2860W        W23140   2.282  14.327   2.889  0.4875 -0.2648  0.1809
 2861W        W23141  11.333   2.762  14.549  0.0986  0.0098 -0.0976
 2862W        W23142  13.725   9.885   3.003 -0.2667 -0.2311  0.1027
 2863W        W23143  16.742   0.811  12.211  0.3325  0.0363 -0.1762
 2864W        W23144   4.572   3.443   2.625  0.0925  0.0919  0.2872
 2865W        W23145   5.358  17.678   2.556  0.2094 -0.0066 -0.1464
 2866W        W23146   4.316   1.136   2.070 -0.1624  0.0561  0.1248
 2867W        W23147   7.916   9.575   2.182 -0.0394 -0.1931  0.1545
 2868W        W23148  15.404  15.238   1.934  0.2105  0.0380  0.1321
 2869W        W23149  14.849  12.073   4.856  0.0317  0.1008  0.2514
 2870W        W23150  15.169   9.242  15.265  0.0639 -0.4501 -0.1366
 2871W        W23151  13.898  10.309  11.403  0.0418 -0.0423 -0.1801
 2872W        W23152   4.897   2.653   1.559  0.0206 -0.5159  0.1365
 2873W        W23153   9.545  11.579  14.423 -0.1749  0.1908  0.0920
 2874W        W23154  13.015   3.764  14.498 -0.0120 -0.0344  0.0658
 2875W        W23155  15.819   2.874   0.871  0.0358 -0.2571 -0.0107
 2876W        W23156  17.437   6.690  13.508  0.0477  0.2220 -0.1917
 2877W        W23157  15.989   6.122  12.332 -0.0867 -0.1182  0.0464
 2878W        W23158   8.191   9.761  15.074 -0.2796  0.0848  0.2300
 2879W        W23159   0.521  16.219   3.747  0.2113 -0.0379  0.2407
 2880W        W23160   4.023   2.063   3.700 -0.1677  0.0733 -0.5047
 2881W        W23161  10.965   4.583  16.296 -0.2318  0.0632 -0.1212
 2882W        W23162   2.661   6.231   0.975 -0.0550  0.0532 -0.0923
 2883W        W23163  11.205   7.277   3.383 -0.1899  0.1160 -0.2179
 2884W        W23164  15.294   3.517  14.261  0.0977 -0.2546 -0.0137
 2885W        W23165  17.113   1.021  16.418 -0.2233 -0.1102  0.0694
 2886W        W23166   1.943   6.915   2.061  0.0558 -0.1208  0.0466
 2887W        W23167   5.689   0.972  14.519 -0.2709 -0.3495  0.4251
 2888W        W23168  17.162  13.221   3.356  0.3196  0.0339 -0.1083
 2889W        W23169   4.938   1.936   2.771 -0.0677  0.1592 -0.2510
 2890W        W23170   8.641   7.242  15.959 -0.1284 -0.1520  0.0004
 2891W        W23171   3.565  10.694  12.270 -0.0738 -0.1755  0.2953
 2892W        W23172   1.182   3.245   3.650  0.4169  0.0462 -0.1742
 2893W        W23173  14.319   0.494  15.425 -0.0326  0.1196  0.0650
 2894W        W23174   0.828   5.384  15.402 -0.1676  0.1679  0.0318
 2895W        W23175  11.646  12.704   0.486 -0.2480 -0.2363 -0.1677
 2896W        W23176   8.802   2.483  15.097 -0.0491 -0.1936  0.0822
 2897W        W23177  12.059  17.345   0.525  0.2117  0.2118  0.1469
 2898W        W23178   7.990  12.481  12.909  0.2669 -0.1884  0.0250
 2899W        W23179   9.398  10.452  12.327  0.1538 -0.1111 -0.2687
 2900W        W23180   0.313   5.969  12.952 -0.0108 -0.0368 -0.2197
 2901W        W23181  14.407   5.446   4.194 -0.0920  0.0982  0.4635
 2902W        W23182   0.094   0.710  15.168 -0.3232 -0.3050  0.2721
 2903W        W23183   9.210  13.938   4.153  0.0543  0.2388 -0.0317
 2904W        W23184   8.908   9.950   4.720 -0.0064 -0.1955 -0.0132
 2905W        W23185  15.546  10.405   1.711  0.2713 -0.1941  0.0078
 2906W        W23186  11.832   9.622   1.916 -0.0094  0.1104  0.0154
 2907W        W23187  13.942  15.536   1.207  0.1772  0.2485 -0.0129
 2908W        W23188  11.552   7.225   1.493 -0.0305  0.0813 -0.0190
 2909W        W23189  14.709   4.569  12.774  0.1538 -0.0870  0.0274
 2910W        W23190  14.919   2.947   1.065  0.0864  0.0485  0.1397
 2911W        W23191  15.725  15.845   2.118  0.0807 -0.0464 -0.1420
 2912W        W23192   2.830   4.910   1.668 -0.1007  0.2023  0.1536
 2913W        W23193  12.299  10.576  12.343 -0.2655  0.0086  0.1851
 2914W        W23194  17.129  11.919  16.502 -0.0871 -0.1278  0.2589
 2915W        W23195   7.346   1.071  15.942 -0.1578 -0.1119  0.1575
 2916W        W23196   3.952   4.158   4.670  0.4420  0.1632 -0.0456
 2917W        W23197   6.977   1.333   2.928 -0.0151  0.1381  0.0934
 2918W        W23198   7.645   7.496   3.388  0.0216  0.0598  0.1206
 2919W        W23199   2.628   1.295   4.336  0.2488  0.0912  0.1572
 2920W        W23200  13.327   1.323   5.070  0.0976  0.2286 -0.2953
 2921W        W23201  12.672   4.930   5.265 -0.1542 -0.0887 -0.0539
 2922W        W23202  11.719   7.203  15.199  0.0519  0.2307  0.0411
 2923W        W23203   3.472   7.525  15.991 -0.0263  0.1044  0.1549
 2924W        W23204   0.412   2.253   3.036 -0.2068  0.1615  0.5316
 2925W        W23205   4.020   5.141   4.389 -0.1999  0.0651  0.0217
 2926W        W23206  14.509  17.146   3.301  0.1997  0.0133 -0.1089
 2927W        W23207  15.996   1.719  15.083 -0.0779  0.0870 -0.2305
 2928W        W23208  12.196   8.155   0.231 -0.1920 -0.2502  0.6301
 2929W        W23209  16.081   4.706  13.855  0.1217  0.0404  0.1187
 2930W        W23210  14.051   6.451   3.948  0.2129 -0.0081  0.0926
 2931W        W23211  14.981  17.703  14.831 -0.1255  0.0505  0.2612
 2932W        W23212   8.611   5.649  11.895  0.0283 -0.1115  0.0489
 2933W        W23213   0.508  13.951  13.801 -0.0401  0.1588 -0.2074
 2934W        W23214  15.365  16.470  13.073 -0.1686  0.0210 -0.3504
 2935W        W23215   5.295   2.321   4.532 -0.1414  0.3365 -0.3431
 2936W        W23216  14.145   4.407   1.695  0.1293 -0.2010  0.1559
 2937W        W23217   3.380  16.874   3.034  0.2212  0.0209  0.2760
 2938W        W23218  11.414  14.707   3.465  0.2501  0.0834  0.1042
 2939W        W23219   9.309   3.140   1.273  0.1390  0.1481  0.5329
 2940W        W23220   3.619   1.198  12.258 -0.2327 -0.1375  0.1991
 2941W        W23221  12.520  16.220   1.769  0.0707 -0.0428 -0.1240
 2942W        W23222  11.811  14.179   0.478  0.0563  0.0269  0.1187
 2943W        W23223  13.545  14.244  15.200 -0.1045 -0.2547 -0.0510
 2944W        W23224  12.745   4.989  13.119 -0.2665  0.0880 -0.2230
 2945W        W23225  13.370   3.818   1.675 -0.3467 -0.2265 -0.0018
 2946W        W23226   6.891   7.913  12.791  0.1244  0.1230  0.1574
 2947W        W23227   9.795   2.001   1.898  0.1950 -0.2174  0.2807
 2948W        W23228  11.600   5.873  14.868 -0.1007 -0.0873  0.2250
 2949W        W23229   6.989   1.778  12.668 -0.0311  0.2487 -0.0602
 2950W        W23230   8.578  13.929  15.630 -0.0314  0.0258 -0.0616
 2951W        W23231  11.287   3.870   2.948 -0.0221  0.1001  0.0476
 2952W        W23232   6.368   5.096  15.003  0.1265 -0.0550 -0.3608
 2953W        W23233   2.248   6.241   3.681 -0.1585 -0.2365 -0.2418
 2954W        W23234  13.276  16.374   3.014 -0.0855 -0.1682  0.2489
 2955W        W23235   2.252   6.465  16.564 -0.0166 -0.0349 -0.0665
 2956W        W23236  16.265   0.698  12.259  0.0909 -0.1200  0.0440
 2957W        W23237  13.961   0.159   4.583 -0.4872  0.2996  0.1364
 2958W        W23238   8.123  12.886  15.527 -0.0140  0.0520  0.0191
 2959W        W23239   6.180  16.666  15.472  0.0869  0.0446  0.1646
 2960W        W23240   8.830   0.041   0.811  0.0985 -0.0840 -0.2287
 2961W        W23241   7.735   6.178  13.677 -0.0874  0.1159  0.3222
 2962W        W23242   0.827  16.339  12.312 -0.0688  0.0294  0.0232
 2963W        W23243  15.684   9.996  15.069  0.0362 -0.0244  0.1005
 2964W        W23244   0.755  10.643  14.601  0.3544 -0.1602 -0.0920
 2965W        W23245  11.852   5.155   3.422 -0.2108  0.2493  0.1333
 2966W        W23246  17.557   1.361   0.417 -0.0852  0.0451 -0.3787
 2967W        W23247   8.141   2.141   0.904 -0.0138 -0.1362 -0.1765
 2968W        W23248   8.632  10.145   1.775 -0.1039  0.1655  0.1223
 2969W        W23249   2.501  14.290  13.843  0.2169 -0.1212 -0.1671
 2970W        W23250   1.625   4.544   1.168  0.1407  0.0206  0.0921
 2971W        W23251  10.089  15.465  16.843 -0.1499  0.1142  0.3037
 2972W        W23252   4.672   4.470   3.878 -0.0613 -0.1314  0.1303
 2973W        W23253   0.841  15.583   4.658  0.1511 -0.0559  0.0948
 2974W        W23254   0.202  13.230  15.978 -0.0648  0.1425 -0.0887
 2975W        W23255  15.200  11.046  12.491  0.2743  0.1958  0.0574
 2976W        W23256  17.273  10.824  16.750 -0.0753 -0.2826 -0.2267
 2977W        W23257   0.901  17.690  13.228  0.1171  0.1686  0.1085
 2978W        W23258  16.751  12.239  16.455  0.0335  0.1015 -0.0436
 2979W        W23259  11.427   2.376   3.904 -0.1535  0.0009 -0.0133
 2980W        W23260  13.577  15.438   2.944 -0.1393  0.0285  0.1297
 2981W        W23261  12.842   5.090  15.029 -0.0695  0.0594 -0.0277
 2982W        W23262   0.675  15.078  15.268 -0.1023  0.0233 -0.1462
 2983W        W23263   5.526  14.353   0.022 -0.1649  0.1397  0.1146
 2984W        W23264   9.136  15.986   2.132  0.0058 -0.1155 -0.1111
 2985W        W23265   0.664  14.917   0.188 -0.1478 -0.3648 -0.0206
 2986W        W23266  14.181  11.797  14.398  0.1310 -0.2272  0.1240
 2987W        W23267   6.035  14.742  13.118  0.1153  0.0539  0.0244
 2988W        W23268   7.891  11.897   1.499  0.1148  0.2271  0.1654
 2989W        W23269   1.470   5.234  15.505  0.2019 -0.1675  0.1458
 2990W        W23270  13.473   8.853   0.629 -0.0154  0.1431  0.1344
 2991W        W23271  11.605   0.692   1.496  0.0896 -0.0328  0.1217
 2992W        W23272  10.027   6.179  16.244 -0.1183  0.0090 -0.0098
 2993W        W23273  11.074   4.379   0.578 -0.0443 -0.1246  0.1807
 2994W        W23274   1.782  16.293   2.766  0.1488 -0.0661 -0.1893
 2995W        W23275  13.280  14.901   1.325  0.0569 -0.4037 -0.0096
 2996W        W23276   0.769   8.645  16.608 -0.0406  0.0213  0.2395
 2997W        W23277  10.600   4.978   2.409 -0.1652  0.2699  0.1897
 2998W        W23278  14.534   2.424  14.033  0.0344  0.0593 -0.0759
 2999W        W23279   6.996  11.248   4.585 -0.1857  0.1473 -0.1665
 3000W        W23280   9.813  17.667   3.703  0.3660  0.0091  0.0130
 3001W        W23281   9.685   2.481  15.435 -0.4892  0.0520 -0.1385
 3002W        W23282   2.005  13.675   1.676 -0.2403 -0.0759 -0.0299
 3003W        W23283  10.079   2.426   1.074 -0.0854 -0.5272 -0.1677
 3004W        W23284   6.393   6.406  13.458  0.1848 -0.0592  0.0309
 3005W        W23285   4.540   8.128  15.404 -0.2410 -0.1860  0.0084
 3006W        W23286   7.825  12.977  13.093 -0.1585  0.4979  0.0965
 3007W        W23287   2.258  17.101   2.457  0.0580  0.1561 -0.1489
 3008W        W23288  13.881  10.350  15.265 -0.2493 -0.1622 -0.1253
 3009W        W23289   6.081   6.116   4.817  0.0601 -0.1684  0.3195
 3010W        W23290   9.366  11.448  15.023  0.5015  0.2524  0.3944
 3011W        W23291   1.025  13.865  15.290 -0.2202  0.0524 -0.0313
 3012W        W23292  16.786   8.173  14.799 -0.2496  0.1127 -0.2155
 3013W        W23293   9.235  10.877   0.402  0.2066 -0.0180  0.0005
 3014W        W23294  11.836   0.407  15.076  0.0667  0.2193  0.1182
 3015W        W23295   9.821   6.614  16.057  0.1086  0.5060  0.3060
 3016W        W23296  17.076  17.271  14.135 -0.1449  0.0395 -0.0433
 3017W        W23297  15.380   8.493   0.078 -0.1433 -0.0904  0.3459
 3018W        W23298   3.476  11.557  13.849  0.1926  0.0121  0.0116
 3019W        W23299   4.522   9.848   2.667  0.0286  0.1169  0.0772
 3020W        W23300   0.964   6.829  16.031  0.0460 -0.1087 -0.1102
 3021W        W23301   0.204   5.700   4.481  0.1501  0.3447 -0.3481
 3022W        W23302  16.513   4.716   3.166  0.1532  0.2039 -0.3876
 3023W        W23303  15.921  14.246  14.849 -0.1099 -0.2414 -0.1286
 3024W        W23304  13.988  11.226   3.696  0.0169  0.2595  0.0917
 3025W        W23305  10.571  14.488   3.753 -0.1137  0.0236  0.1575
 3026W        W23306   5.672  10.899   3.406 -0.0109  0.2114 -0.2677
 3027W        W23307   1.508  14.893  16.822 -0.0784  0.0281 -0.0077
 3028W        W23308  11.076   7.441  12.222 -0.0055  0.1230  0.1733
 3029W        W23309   3.518  16.985   0.905 -0.2105  0.6327  0.1498
 3030W        W23310  10.511   0.913  15.199 -0.1034  0.0273  0.1375
 3031W        W23311  14.211  16.724   3.164 -0.1552 -0.0915  0.0215
 3032W        W23312  15.892  15.162   1.673 -0.0910 -0.0901  0.2751
 3033W        W23313  15.564  12.610   0.018  0.0449 -0.1461  0.1740
 3034W        W23314  16.970   3.636  15.282 -0.1347  0.0383 -0.1980
 3035W        W23315   8.785   6.757  13.681 -0.1283  0.0887  0.1474
 3036W        W23316  12.939  15.907  16.605 -0.0317  0.0881  0.0160
 3037W        W23317   8.951  15.455   2.243 -0.0607 -0.2565  0.1531
 3038W        W23318   3.507   4.505   4.575  0.1688  0.1347  0.0880
 3039W        W23319   2.224  11.740  14.491 -0.1584 -0.0173  0.2076
 3040W        W23320  12.323   9.462   2.011 -0.0723 -0.2085 -0.3204
 3041W        W23321   9.143  14.912  16.801 -0.0699 -0.1205 -0.0412
 3042W        W23322  14.623  15.151   1.330  0.0772 -0.1172  0.0823
 3043W        W23323  13.575   8.740   3.407  0.0412 -0.1207  0.3092
 3044W        W23324   5.117   0.459  11.116  0.1229  0.1366 -0.0451
 3045W        W23325  13.244   8.159  16.058 -0.1689 -0.1392 -0.0156
 3046W        W23326   1.527   3.609  12.974 -0.0170  0.1242 -0.0210
 3047W        W23327   7.638  14.835  14.935 -0.0041  0.0677  0.0453
 3048W        W23328   1.045  16.199  16.656 -0.3278 -0.1322 -0.0193
 3049W        W23329  15.519   4.291   1.728 -0.1960 -0.1506 -0.0958
 3050W        W23330   3.005   3.622   2.617 -0.0779 -0.0105  0.1756
 3051W        W23331   9.309   7.974  13.672  0.0383  0.5404  0.2225
 3052W        W23332  16.540  15.240   0.017  0.0908  0.0009  0.2968
 3053W        W23333  11.064   9.768  11.169 -0.1372  0.0633 -0.0394
 3054W        W23334   9.840  14.091   1.561  0.0017 -0.0087  0.1464
 3055W        W23335   2.405  13.101  14.641  0.2961 -0.1406  0.0428
 3056W        W23336   8.846   9.144  15.285 -0.1678 -0.0263  0.1013
 3057W        W23337  13.400   9.430   3.134  0.1669 -0.1545 -0.1804
 3058W        W23338   5.250   9.008  13.906 -0.0766  0.0401 -0.1671
 3059W        W23339  10.561   3.254   1.223 -0.0085 -0.1644  0.1057
 3060W        W23340  12.565   0.200   4.013  0.0308  0.0129  0.0563
 3061W        W23341   7.643   6.914   4.055 -0.0602 -0.0688  0.0687
 3062W        W23342  15.957  12.165   1.891  0.0072 -0.2061  0.0681
 3063W        W23343  16.713  16.540   3.815 -0.0264  0.2184  0.5526
 3064W        W23344   9.502   8.428   2.364  0.0865  0.2439  0.0446
 3065W        W23345  15.356   3.419  12.726  0.0356  0.0914  0.2592
 3066W        W23346  12.037   7.270  14.824  0.1834 -0.0663  0.0501
 3067W        W23347  16.152  12.619  13.866 -0.2494  0.1940 -0.1855
 3068W        W23348   5.798  10.072   0.081 -0.0153  0.2396  0.2193
 3069W        W23349  16.305  16.858  15.078  0.0338 -0.1536  0.1023
 3070W        W23350   3.238   2.247  16.730  0.1195  0.2620  0.1755
 3071W        W23351   2.880   5.533   2.984 -0.1032 -0.0725 -0.1314
 3072W        W23352   5.949   0.547  15.826 -0.0942  0.2315  0.3402
 3073W        W23353  16.563  10.262  15.351  0.0841  0.0649 -0.2677
 3074W        W23354   5.219  12.717  14.928 -0.1067  0.1783  0.0803
 3075W        W23355   2.543   5.267   0.059  0.1718  0.0127 -0.1792
 3076W        W23356   3.080   5.256  16.704 -0.2174  0.1537  0.3920
 3077W        W23357   2.901   6.020  12.315 -0.2211 -0.0116  0.2108
 3078W        W23358  12.957   3.599   5.745  0.3344  0.1930 -0.0019
 3079W        W23359   4.434  13.663   0.695 -0.2589 -0.0882 -0.1062
 3080W        W23360  12.695   7.524   4.495  0.1229 -0.0845 -0.0287
 3081W        W23361  17.288  14.495   4.238 -0.0609  0.3185  0.2989
 3082W        W23362   9.593   5.790  15.097  0.1198 -0.0000  0.1792
 3083W        W23363  10.457   6.915   3.607 -0.0105 -0.0702 -0.2098
 3084W        W23364  13.910   6.861  15.570 -0.1104  0.0824  0.1861
 3085W        W23365   6.243   1.207   4.424  0.2210 -0.2997 -0.2936
 3086W        W23366  15.387   3.057   3.502  0.1207  0.2311  0.1457
 3087W        W23367  11.958  16.074   0.494 -0.0862  0.1430 -0.2096
 3088W        W23368   4.322  12.281  16.695 -0.1269  0.1262 -0.2338
 3089W        W23369   9.346   8.469  13.789  0.0834  0.3345  0.1740
 3090W        W23370   8.600  11.221   1.525 -0.1580 -0.0111 -0.1056
 3091W        W23371  11.096  15.862   0.616 -0.0981 -0.1967 -0.0452
 3092W        W23372   0.834   3.947   3.174 -0.2930 -0.1227 -0.2420
 3093W        W23373  11.199   6.359  12.765  0.2541 -0.1042 -0.0984
 3094W        W23374   5.012   3.846  13.182 -0.2343  0.1644 -0.5354
 3095W        W23375   6.007   9.494  15.472  0.0940  0.1866  0.2084
 3096W        W23376   4.896   7.908   0.677 -0.1292  0.1583  0.1937
 3097W        W23377   5.158  16.492   2.440  0.1890 -0.0847 -0.3046
 3098W        W23378   6.231   7.226  14.816 -0.2923 -0.2747 -0.0100
 3099W        W23379   7.730  12.643  13.428 -0.0403  0.0176  0.4009
 3100W        W23380   6.889   1.977  16.169 -0.1321  0.0420  0.0531
 3101W        W23381   3.726  14.680  15.644  0.1159 -0.1360  0.2842
 3102W        W23382   8.320   6.058  13.698 -0.0381  0.2095 -0.1515
 3103W        W23383  16.067   9.563  13.249 -0.0372 -0.1009 -0.0178
 3104W        W23384  16.625   0.405  12.420 -0.1101  0.0679  0.1670
 3105W        W23385  15.891  16.212   1.868 -0.0578  0.2261  0.0325
 3106W        W23386  13.330  14.030  12.565  0.0945  0.2767 -0.2432
 3107W        W23387   5.533   2.877   3.592 -0.1173 -0.0322 -0.2513
 3108W        W23388   3.396   5.531   3.124 -0.1359  0.1523 -0.1148
 3109W        W23389   0.127  14.245   2.524  0.0836  0.0270  0.1883
 3110W        W23390  13.875  16.611   1.793 -0.0158  0.2686 -0.0712
 3111W        W23391  15.006   9.766   1.198 -0.0083 -0.2029 -0.2222
 3112W        W23392   0.394   8.910  11.346  0.1766 -0.2370  0.0365
 3113W        W23393  15.583   7.204  11.989  0.2396  0.0332  0.2071
 3114W        W23394  17.057  12.468  12.532  0.1404  0.0159  0.2475
 3115W        W23395  11.881  16.865   2.677  0.0350 -0.3868 -0.1701
 3116W        W23396   4.844   2.935  15.605  0.0870 -0.1708 -0.4132
 3117W        W23397   2.052  11.375   2.741 -0.1143  0.2148  0.0198
 3118W        W23398   0.878   0.914   1.730  0.1826  0.0020 -0.0893
 3119W        W23399   6.646   7.611   0.466 -0.1958  0.3457 -0.1332
 3120W        W23400  11.846   9.668  12.458 -0.0356 -0.1094 -0.0933
 3121W        W23401   4.761  13.031  14.093  0.0099 -0.1816 -0.0951
 3122W        W23402   5.802   0.526  13.669  0.2810  0.2710  0.1202
 3123W        W23403  14.101  16.193  13.647  0.0785 -0.2496  0.0966
 3124W        W23404   8.112   6.422  16.597  0.0661  0.2831 -0.1551
 3125W        W23405  11.161   7.980   3.950 -0.1280  0.0399  0.3215
 3126W        W23406  13.709   8.901   0.065 -0.1956 -0.2410 -0.1736
 3127W        W23407  14.684  13.112  16.017  0.3653 -0.0827 -0.2279
 3128W        W23408  14.373   2.661   2.460 -0.3462  0.0444 -0.1878
 3129W        W23409   2.317  12.102  13.678  0.0870 -0.0768  0.0780
 3130W        W23410  16.051   1.985  11.934 -0.1766 -0.0195 -0.2002
 3131W        W23411   4.513  15.092   2.353  0.0639 -0.0737  0.0499
 3132W        W23412   1.828  17.596   3.866  0.0301  0.1791  0.0404
 3133W        W23413   0.065   8.397  12.750  0.0039  0.1141  0.1725
 3134W        W23414  16.773   2.560   3.014  0.1460 -0.0851 -0.0168
 3135W        W23415  16.052  12.499   3.735  0.1495 -0.0087 -0.4230
 3136W        W23416   0.289  11.548  14.411  0.0833  0.3526  0.0410
 3137W        W23417   5.559   8.581  15.626  0.0810 -0.1505 -0.0299
 3138W        W23418   4.383   6.465  16.871 -0.0889 -0.0838 -0.0047
 3139W        W23419   9.112   8.132   1.400  0.4214  0.0251  0.3211
 3140W        W23420   4.004  14.880  14.695 -0.2291 -0.0359  0.0535
 3141W        W23421  14.616  13.843   0.565 -0.0701  0.0547 -0.3078
 3142W        W23422   1.179  15.543  12.546  0.0320  0.1000 -0.2089
 3143W        W23423   7.194   8.076  15.141  0.0724 -0.1770 -0.0897
 3144W        W23424  17.312   6.106   0.862 -0.0959  0.0517 -0.1945
 3145W        W23425  15.353   5.422  12.395  0.2664 -0.0821  0.0368
 3146W        W23426   7.133   2.331   0.842  0.1201  0.1693 -0.0911
 3147W        W23427  10.251  16.623   1.300 -0.2206 -0.0651  0.3601
 3148W        W23428   2.896   5.001   4.044  0.4072 -0.0726 -0.1131
 3149W        W23429  10.333   9.125  15.051 -0.3454 -0.0729 -0.1421
 3150W        W23430   1.698   2.506  13.984  0.0351  0.1871  0.0599
 3151W        W23431   9.047   2.813  13.338 -0.3432  0.1849  0.1229
 3152W        W23432  13.106   7.637  15.880  0.1448 -0.3156  0.0979
 3153W        W23433   5.875   1.589   3.510  0.0799  0.0890 -0.1878
 3154W        W23434   0.170  15.867   1.773  0.0131 -0.1973  0.4022
 3155W        W23435   2.886   3.705  13.387 -0.0098  0.1424 -0.3340
 3156W        W23436  10.894  16.448   3.251  0.1029 -0.1903  0.0477
 3157W        W23437   1.100   7.836  16.227  0.0677 -0.0627  0.2747
 3158W        W23438   1.388   5.526  16.451  0.0012 -0.2909 -0.0129
 3159W        W23439  16.837  10.600  14.584  0.2135 -0.1359 -0.0929
 3160W        W23440   7.576  11.796   3.902 -0.1179  0.2156 -0.0769
 3161W        W23441  14.749   6.010  15.938  0.1236 -0.0043 -0.1436
 3162W        W23442  13.961   4.202   3.109 -0.2892  0.0661  0.0203
 3163W        W23443  14.842  10.604   2.406 -0.2514  0.0492 -0.1297
 3164W        W23444   1.563   0.289   3.907  0.1419 -0.1099  0.0243
 3165W        W23445   2.385   2.377  12.341 -0.1473  0.0151 -0.3753
 3166W        W23446  14.949   2.113  13.273  0.2281 -0.0682 -0.2259
 3167W        W23447  12.805   2.545  12.597 -0.1295  0.0142 -0.0471
 3168W        W23448   0.132   4.701  14.674  0.0113 -0.1162  0.2867
 3169W        W23449   7.086   3.468  14.328  0.1486 -0.0868  0.1416
 3170W        W23450   1.450  12.933   1.814  0.0109  0.1839 -0.0228
 3171W        W23451   9.493   3.656  11.836 -0.1093 -0.1172  0.0448
 3172W        W23452   9.366   1.788  14.024 -0.0270 -0.0722  0.2616
 3173W        W23453  11.063  12.603  15.669  0.4356 -0.0853  0.0974
 3174W        W23454   5.822   1.845   1.767 -0.1383  0.1544  0.0072
 3175W        W23455  11.720   1.004   3.347 -0.2703 -0.2866  0.3561
 3176W        W23456  15.864  11.910  13.348  0.2295 -0.1918  0.0668
 3177W        W23457   9.447  12.116   1.423 -0.1191 -0.1170 -0.0387
 3178W        W23458  17.549   5.725   0.601  0.2315 -0.0200  0.2787
 3179W        W23459  12.113   2.426   1.525 -0.0581  0.0866  0.2791
 3180W        W23460   1.235  11.835  12.086  0.0521 -0.1270 -0.0948
 3181W        W23461   6.405  15.802   2.728  0.2049 -0.2060 -0.0839
 3182W        W23462   3.422   0.286  13.313  0.0536 -0.3133  0.1333
 3183W        W23463   4.030  13.352  12.604  0.2737 -0.0016  0.1279
 3184W        W23464   2.710  16.767  13.307  0.0810 -0.0383  0.0855
 3185W        W23465  14.457  11.809   5.091  0.1113  0.0528 -0.0294
 3186W        W23466   4.346   5.026   0.699  0.2770  0.0224  0.3543
 3187W        W23467  13.421  10.235  13.469  0.0395  0.1107  0.0144
 3188W        W23468   3.072   4.389  16.559 -0.0634 -0.0579  0.0163
 3189W        W23469   6.297  17.260   2.140 -0.0847 -0.2213  0.1053
 3190W        W23470  10.702  13.373  12.821 -0.3284  0.5014  0.1500
 3191W        W23471  13.545  15.800   3.802  0.1030  0.1767  0.2916
 3192W        W23472   2.251   7.419  15.446 -0.2139  0.2816 -0.1329
 3193W        W23473  16.507   0.258   3.197 -0.0065  0.0970  0.1115
 3194W        W23474   9.366  14.410  15.671 -0.3383 -0.0768 -0.0691
 3195W        W23475   8.254   3.767   2.648 -0.0304  0.0634  0.2742
 3196W        W23476  14.741   4.495   4.330  0.1026 -0.1729 -0.2719
 3197W        W23477  12.679  14.213   2.092  0.2443  0.0226 -0.1230
 3198W        W23478   2.774  13.114   2.792 -0.1962 -0.1371 -0.1500
 3199W        W23479   1.125  17.138  15.307  0.1581 -0.1378 -0.0831
 3200W        W23480  10.778  12.522   4.566  0.0089  0.1002 -0.3135
 3201W        W23481  13.614   8.812  14.314  0.1498 -0.0820  0.2007
 3202W        W23482   1.777   3.579  14.988 -0.2440  0.0196  0.0828
 3203W        W23483   2.271  10.801  11.768  0.0722 -0.2415  0.0069
 3204W        W23484   7.505   6.766  15.535 -0.0439  0.1602 -0.2226
 3205W        W23485   9.992   0.242  15.852 -0.0940  0.1216 -0.1026
 3206W        W23486   7.156  11.660  12.613  0.0351  0.0485 -0.0887
 3207W        W23487   2.111   6.633  13.753  0.0434 -0.2825  0.0808
 3208W        W23488   3.783   0.843   2.898 -0.0049 -0.3128 -0.1261
 3209W        W23489   8.288   5.955  15.068  0.0976  0.5310  0.0487
 3210W        W23490   9.455  11.102   2.886 -0.3247  0.2446 -0.1425
 3211W        W23491  13.141   2.556  15.997  0.0340 -0.0761  0.1681
 3212W        W23492  11.515  15.753   0.285 -0.0045  0.0181 -0.0172
 3213W        W23493  17.489  12.264  13.481  0.0385 -0.0987 -0.1894
 3214W        W23494   0.153  17.169   4.558 -0.1541  0.1454 -0.0336
 3215W        W23495   9.732  14.568   4.794  0.0008  0.3448 -0.1465
 3216W        W23496  13.085   7.625   0.503  0.2081  0.2050 -0.1090
 3217W        W23497   9.123  12.371   2.763  0.0581  0.2535 -0.1490
 3218W        W23498  11.904   0.769  13.743  0.2305 -0.1942 -0.0710
 3219W        W23499  13.623   9.164  14.671  0.1190 -0.0521 -0.2796
 3220W        W23500   8.842   9.528   4.474 -0.1460 -0.0850 -0.1577
 3221W        W23501  11.330   1.537  13.439 -0.1319 -0.2622 -0.0191
 3222W        W23502   2.818  12.993  13.742 -0.1119 -0.1102 -0.1717
 3223W        W23503  11.045  12.838   3.572 -0.0575 -0.3910 -0.0157
 3224W        W23504   7.534   9.905   4.193 -0.0276  0.1316  0.0038
 3225W        W23505  17.567   0.294  12.334 -0.1805 -0.1349 -0.1601
 3226W        W23506   5.612   6.035  12.010 -0.0485  0.0918 -0.0751
 3227W        W23507  12.746   3.983   2.935 -0.1788 -0.3716 -0.2089
 3228W        W23508  10.716   4.729  15.154  0.1077 -0.0803  0.0375
 3229W        W23509  17.036  17.695  13.247 -0.0641  0.1793  0.0146
 3230W        W23510   7.831   5.406   1.365 -0.0427 -0.1619 -0.0847
 3231W        W23511   5.250  12.374  15.373  0.1256 -0.3319 -0.0340
 3232W        W23512   5.919   7.748  12.517  0.0558  0.3365  0.4058
 3233W        W23513  12.964  12.300   2.595 -0.4004 -0.0615  0.1343
 3234W        W23514  10.890  17.661  13.158 -0.1510  0.0355 -0.0763
 3235W        W23515  10.567   7.558  16.457  0.1762 -0.0364 -0.2155
 3236W        W23516  16.919   7.088   3.340 -0.1089 -0.3420 -0.2752
 3237W        W23517   6.939   6.770  13.206 -0.1753  0.2891  0.0856
 3238W        W23518   4.782   6.749   0.105  0.3484  0.1231 -0.0503
 3239W        W23519  12.320   4.711  12.259 -0.0031 -0.0670  0.1055
 3240W        W23520   5.026   2.220   3.580 -0.1473 -0.1345  0.1209
 3241W        W23521   9.091   7.818  13.223  0.2904  0.0343 -0.3462
 3242W        W23522   6.526   8.859   1.700 -0.1070  0.0930 -0.1006
 3243W        W23523  15.983   4.553   1.437 -0.0889 -0.4797  0.1216
 3244W        W23524  16.929  12.702   0.685 -0.2219  0.0915  0.0385
 3245W        W23525  14.457  10.443  14.387  0.0996 -0.0755  0.0079
 3246W        W23526   0.469  13.455   3.816  0.2333 -0.1370  0.2432
 3247W        W23527   8.447  10.039   4.315  0.1271  0.1721  0.1889
 3248W        W23528  11.663  15.196  12.547 -0.2654 -0.0242 -0.1674
 3249W        W23529  14.592  17.541   4.627 -0.1427  0.1222  0.0470
 3250W        W23530   0.133  15.965   1.284  0.2468  0.0252  0.1143
 3251W        W23531   0.091  11.319   3.317 -0.1616 -0.0309 -0.1280
 3252W        W23532   9.424   4.994   2.945  0.2641 -0.2740  0.1414
 3253W        W23533  16.647  15.252  12.631 -0.3301 -0.1634  0.0341
 3254W        W23534   2.041  15.330   2.738  0.0381  0.2083  0.2533
 3255W        W23535  14.845   6.046   4.629  0.0587  0.0238  0.0588
 3256W        W23536   2.133  11.546   0.996 -0.0289  0.2883  0.0131
 3257W        W23537  15.595   4.354  12.478  0.0945 -0.0049  0.3411
 3258W        W23538  13.608  16.961  15.158  0.0546 -0.0282  0.0915
 3259W        W23539  13.870  13.239   3.877  0.0029  0.0120  0.1266
 3260W        W23540   6.597  13.407   3.174 -0.3827  0.0027  0.2079
 3261W        W23541  17.432   9.002   1.310 -0.1854 -0.2219  0.2547
 3262W        W23542   5.645   1.616   2.588 -0.1815 -0.2532  0.2307
 3263W        W23543  10.348   5.104   1.658 -0.4208  0.2381  0.1482
 3264W        W23544  10.920  13.458  14.411  0.0638  0.1551  0.1898
 3265W        W23545   4.489   2.495  13.292 -0.0180 -0.0329 -0.2121
 3266W        W23546  13.843  15.593  13.601  0.0678 -0.1540  0.1849
 3267W        W23547  12.256   6.819   5.053  0.0954  0.0842 -0.1751
 3268W        W23548   0.416  11.707  13.921 -0.1116 -0.2590  0.2139
 3269W        W23549  14.183   8.283   3.257  0.1869 -0.2717  0.0031
 3270W        W23550  10.813  17.113  15.284 -0.0595  0.3117  0.3909
 3271W        W23551   1.630  17.310   5.023 -0.1475  0.2475 -0.1198
 3272W        W23552   8.497  11.768   3.861 -0.1363  0.1179 -0.0051
 3273W        W23553   3.079   3.285   4.341 -0.1836 -0.1219  0.0425
 3274W        W23554   7.092   5.755   1.175 -0.1531  0.0094 -0.1975
 3275W        W23555  10.832  13.895   4.802 -0.4591  0.1609  0.1025
 3276W        W23556  16.937  16.225  15.683 -0.0137  0.1343  0.0574
 3277W        W23557  15.650  14.523  15.329 -0.2464 -0.0940 -0.0608
 3278W        W23558   0.935   4.898   2.940  0.0599 -0.4011  0.0406
 3279W        W23559   5.907   6.550  13.713 -0.5190  0.0469 -0.2617
 3280W        W23560   2.644   0.740   4.223  0.0036 -0.1600  0.0067
 3281W        W23561   3.564   1.299  12.752  0.1551 -0.2043  0.0529
 3282W        W23562   6.089  11.252   4.192  0.2653 -0.1011  0.1999
 3283W        W23563  13.997   3.465   4.679 -0.1024 -0.2416  0.0028
 3284W        W23564  14.725   6.806  14.972 -0.0041 -0.0074  0.1621
 3285W        W23565   9.429   9.649   0.961  0.0590  0.0394  0.2557
 3286W        W23566   1.687   4.677   0.675  0.1437 -0.0146  0.0712
 3287W        W23567  14.646   1.603  12.877  0.1965 -0.0535 -0.1200
 3288W        W23568   7.184  14.748   1.466 -0.1483  0.1116  0.1902
 3289W        W23569  15.201  13.714   1.003  0.1404 -0.3943 -0.0019
 3290W        W23570   8.281  16.479   0.514  0.1160 -0.0506  0.0965
 3291W        W23571   2.004   7.227   1.613 -0.0558  0.4457 -0.1183
 3292W        W23572   7.563   8.681  12.837  0.0277  0.0881 -0.1285
 3293W        W23573  13.955   3.602   0.844 -0.0154 -0.3367  0.2584
 3294W        W23574  16.295   8.143  14.419 -0.1548  0.1948  0.0242
 3295W        W23575  13.423  10.025   3.428 -0.2411 -0.1287  0.0690
 3296W        W23576   4.150  16.079   2.056  0.2027 -0.2348 -0.2684
 3297W        W23577   0.318  15.296  13.206 -0.0105 -0.0424  0.0395
 3298W        W23578   4.390  14.999  16.435 -0.2777  0.3214 -0.0030
 3299W        W23579   7.941   2.002   4.431  0.2142  0.0964  0.1054
 3300W        W23580   2.744  16.588   3.816  0.2025 -0.1462 -0.1299
 3301W        W23581  11.575  14.642   2.291 -0.0661 -0.1030 -0.2337
 3302W        W23582  16.265   6.747   0.175  0.2537 -0.0076  0.0362
 3303W        W23583   4.713  17.477  13.317 -0.0448 -0.2669 -0.0396
 3304W        W23584   7.684   2.651  16.234 -0.3294 -0.1719  0.1584
 3305W        W23585   5.097   6.404   2.987 -0.0051  0.1046  0.0961
 3306W        W23586  14.243  12.574  13.963 -0.0003  0.3352 -0.0582
 3307W        W23587   0.413   6.581   3.948 -0.2163 -0.0110  0.2186
 3308W        W23588   1.588  15.481   1.081  0.1604  0.1476 -0.1698
 3309W        W23589  10.600   4.408   0.255 -0.0512 -0.0617 -0.2205
 3310W        W23590   9.478   5.072  16.405 -0.1182  0.0074  0.0388
 3311W        W23591   5.445   5.612   3.603 -0.1406  0.1453  0.2807
 3312W        W23592   2.078  16.993  14.431 -0.1405 -0.3646  0.0645
 3313W        W23593  15.942  16.130  14.119  0.2346 -0.1517 -0.0824
 3314W        W23594   4.974   1.409  13.934 -0.2247 -0.0315  0.0291
 3315W        W23595   1.144   4.606   0.709 -0.0156  0.4013  0.0161
 3316W        W23596   2.522   8.687   4.069 -0.2246  0.1449  0.2966
 3317W        W23597  16.777   8.729   0.591  0.0589 -0.0199 -0.0979
 3318W        W23598  11.057   9.394   2.620 -0.0720  0.3595 -0.2505
 3319W        W23599  12.057   3.916   3.806  0.2334 -0.1130 -0.5398
 3320W        W23600   4.617   1.413   2.419  0.2501 -0.0249  0.0286
 3321W        W23601   6.787  14.577   2.662 -0.0631  0.0835 -0.0753
 3322W        W23602   4.444  17.644   3.550  0.1129  0.1843  0.4160
 3323W        W23603   8.606   4.272  15.621  0.5464 -0.0515  0.2575
 3324W        W23604  16.531   9.329   2.726  0.2378  0.0239 -0.1935
 3325W        W23605  16.379  15.559   2.859 -0.0717 -0.2247  0.0331
 3326W        W23606  15.249   5.614  13.581 -0.0959 -0.0056 -0.1675
 3327W        W23607   0.003  11.494  14.901 -0.0430 -0.1110  0.1977
 3328W        W23608   1.740  17.403  14.573  0.2303 -0.0333  0.2082
 3329W        W23609   9.269  13.668  14.500 -0.0170  0.0572  0.0846
 3330W        W23610   2.798  13.684  15.745  0.2097 -0.0465 -0.1207
 3331W        W23611   3.017   8.661   4.645 -0.2233 -0.2512  0.2050
 3332W        W23612  10.475   5.316   4.933 -0.3364 -0.0884  0.1379
 3333W        W23613   9.852   1.399  12.809  0.0286 -0.0350  0.2460
 3334W        W23614  16.342  11.864  16.416 -0.2046  0.2398  0.0826
 3335W        W23615   4.401   1.819   1.952 -0.1137  0.1981  0.0927
 3336W        W23616   4.716  10.301  16.404  0.2427 -0.1872 -0.2981
 3337W        W23617   6.479   6.924  15.705 -0.0643  0.0377 -0.1146
 3338W        W23618   6.299   3.343   1.079 -0.2169  0.1776  0.2949
 3339W        W23619   6.803   7.648   2.535 -0.0655 -0.4219  0.0808
 3340W        W23620   4.039  13.907   0.878  0.2122 -0.0422  0.1727
 3341W        W23621   7.001  14.648  15.500 -0.0058  0.0492  0.1582
 3342W        W23622   8.429   4.381   4.203 -0.0312 -0.2906  0.0671
 3343W        W23623  11.642  16.556  15.115  0.2343  0.1884  0.0438
 3344W        W23624   2.358  12.054  16.198  0.3078  0.0183 -0.1613
 3345W        W23625   2.741  15.485   0.205  0.1097 -0.0522  0.1579
 3346W        W23626  13.559  14.889  14.109 -0.1378 -0.2814 -0.1911
 3347W        W23627   5.289  15.158   3.804  0.1931 -0.1078 -0.3104
 3348W        W23628   1.960   5.178   3.804 -0.1672 -0.1484 -0.2556
 3349W        W23629   3.134   0.748  13.981  0.3061  0.0263 -0.1406
 3350W        W23630   6.756  15.770   3.687 -0.2043  0.0820  0.0569
 3351W        W23631  13.917  11.103   0.774  0.1917  0.1438 -0.0064
 3352W        W23632   2.434   8.012   4.713 -0.3408 -0.1213 -0.0609
 3353W        W23633   0.953  11.145   2.360 -0.1156  0.1568  0.0407
 3354W        W23634  16.766   9.776   2.969  0.0369  0.5313 -0.0855
 3355W        W23635   1.454   0.469  15.169 -0.1803  0.0539  0.1266
 3356W        W23636   8.829  15.004  12.721  0.3533  0.1495 -0.0119
 3357W        W23637   6.739  15.786   1.618 -0.0579  0.0861 -0.1865
 3358W        W23638   5.643  13.839  14.953 -0.2690  0.0709  0.2967
 3359W        W23639  15.059  13.100   0.991  0.0628  0.2368  0.0228
 3360W        W23640   0.227   9.324   4.757 -0.1020 -0.0365 -0.3745
 3361W        W23641  15.286   9.790  12.694 -0.2060  0.0957  0.0501
 3362W        W23642   5.425   9.298  12.418 -0.2383  0.2008  0.2002
 3363W        W23643   4.589   0.479  16.303  0.1270 -0.1163  0.0269
 3364W        W23644  13.145   3.003   4.047 -0.0491 -0.0018 -0.4086
 3365W        W23645  13.062   1.537  13.744  0.0813  0.0630  0.1429
 3366W        W23646  14.497   7.979   0.917 -0.0489  0.1141 -0.1423
 3367W        W23647  10.129   9.163  16.168 -0.0464 -0.2719 -0.1437
 3368W        W23648   3.994   2.745   0.359 -0.0303  0.1535  0.0919
 3369W        W23649   4.213   2.912  12.309  0.2899 -0.1724 -0.1870
 3370W        W23650  16.216  14.884   3.879 -0.2237 -0.1872 -0.1820
 3371W        W23651   4.760   3.417   2.151 -0.0373 -0.2928  0.0220
 3372W        W23652   4.150   6.927   2.741 -0.0214 -0.2723  0.3413
 3373W        W23653  10.937   4.757  11.624  0.3821  0.2688 -0.0138
 3374W        W23654   3.024   1.852   3.699  0.0323 -0.2289 -0.3086
 3375W        W23655   1.153  12.341   4.398 -0.1070  0.0070 -0.0474
 3376W        W23656   7.179   7.210   4.212 -0.3790  0.0250 -0.1304
 3377W        W23657  17.392   7.669   3.726  0.1652  0.0922 -0.3917
 3378W        W23658   6.290  14.954  15.217  0.2595 -0.3234  0.1515
 3379W        W23659  15.672  10.438   2.656  0.1445 -0.3580 -0.1058
 3380W        W23660   1.776  12.935  16.020  0.3697 -0.0708 -0.0484
 3381W        W23661  10.633   0.806   1.885 -0.2074 -0.1233  0.0005
 3382W        W23662   7.306  10.153  15.719  0.1587 -0.2145 -0.0794
 3383W        W23663   2.839   5.400  16.131  0.1475  0.1220  0.1645
 3384W        W23664  17.303  11.610  15.020  0.1291 -0.0528  0.0517
 3385W        W23665   3.191  10.783   4.075  0.0067 -0.0746 -0.0436
 3386W        W23666   6.082  15.126  12.691 -0.0113 -0.2601  0.0576
 3387W        W23667  11.747   0.037   0.761 -0.3580  0.1820  0.2435
 3388W        W23668   1.262  11.460   0.924  0.2833 -0.0589  0.2053
 3389W        W23669   6.377  17.369   0.084 -0.0408  0.2483 -0.0069
 3390W        W23670  17.418  17.674  14.269  0.1560  0.0563  0.0186
 3391W        W23671   5.475  11.561  13.140  0.0072  0.0844 -0.3697
 3392W        W23672   7.936   4.147   0.390  0.2014  0.0296  0.2873
 3393W        W23673  11.496  17.143   4.269  0.3331  0.0106 -0.0510
 3394W        W23674   1.986  14.021  14.571 -0.3022  0.1617  0.3390
 3395W        W23675  10.429  17.741   3.799 -0.1057 -0.1205  0.1031
 3396W        W23676   5.161   3.807   4.448 -0.0141 -0.2544 -0.0190
 3397W        W23677  16.648  17.632  15.630  0.1858  0.2531 -0.1466
 3398W        W23678   5.461  16.515  12.162 -0.0337 -0.1988 -0.0621
 3399W        W23679   0.432  12.514   1.449  0.2818 -0.4118 -0.1495
 3400W        W23680   4.126  16.340  16.184  0.0996 -0.0855  0.0147
 3401W        W23681   7.925   8.641  13.536  0.2254 -0.1448  0.1860
 3402W        W23682   6.298  13.530  12.456  0.1113  0.0307  0.1058
 3403W        W23683   9.263   9.966   3.872  0.2605 -0.0525 -0.2948
 3404W        W23684   7.742   1.415   1.187  0.2296 -0.1810  0.1108
 3405W        W23685   6.405   7.859   4.581 -0.2713 -0.0762 -0.0755
 3406W        W23686   8.546  16.830   3.745  0.2087  0.0078 -0.1274
 3407W        W23687  11.707  17.437  13.618 -0.1455 -0.0030 -0.0315
 3408W        W23688  11.174  17.274  13.719 -0.2327  0.0894  0.0357
 3409W        W23689  14.172   0.774  14.597 -0.1918 -0.2930  0.0455
 3410W        W23690  13.085  12.769  13.938  0.2744 -0.1365  0.1141
 3411W        W23691  12.044   8.425   1.191 -0.0636  0.1316 -0.1747
 3412W        W23692   6.269   1.545  16.844  0.1586 -0.1192  0.0932
 3413W        W23693  16.580  14.812   0.307 -0.0511  0.0876 -0.1658
 3414W        W23694  16.646   3.093  14.112 -0.0214 -0.2911  0.1210
 3415W        W23695   2.627   7.640   3.413  0.3391 -0.3087 -0.1718
 3416W        W23696   5.629   4.604  13.346  0.1816 -0.1905 -0.0853
 3417W        W23697   5.224  15.587   1.248  0.0310 -0.2560 -0.1360
 3418W        W23698  10.163  10.653  14.349 -0.0827 -0.3881 -0.2828
 3419W        W23699  16.422   7.437  14.901 -0.0887  0.2980 -0.2653
 3420W        W23700  15.757   5.021  14.349  0.1748 -0.0169  0.0153
 3421W        W23701  17.646  13.433  16.347  0.0101  0.0313  0.1125
 3422W        W23702  15.062  14.786  13.942  0.0499 -0.0739  0.1453
 3423W        W23703  13.522  11.349   3.608 -0.1207  0.1195  0.1227
 3424W        W23704   4.024   8.058  15.406  0.1472  0.0630 -0.0091
 3425W        W23705  11.928   8.104  15.338  0.1261  0.1553  0.1981
 3426W        W23706   5.039   4.818   4.012 -0.0343 -0.1961 -0.0482
 3427W        W23707   8.301   9.286  15.959  0.0676  0.0483 -0.0209
 3428W        W23708   3.866  15.020  14.256  0.0468 -0.0127 -0.0745
 3429W        W23709  16.450  11.022   3.587 -0.0071  0.1087  0.3121
 3430W        W23710   9.102   7.673  14.259 -0.0197  0.3167 -0.1516
 3431W        W23711   4.376  11.113   1.312  0.0785 -0.0004 -0.0989
 3432W        W23712   0.933   6.704  13.058  0.1233 -0.1081  0.0940
 3433W        W23713   4.229   3.067  16.337 -0.0895  0.0359  0.0274
 3434W        W23714   0.916  16.614  16.010 -0.2758  0.1047  0.3871
 3435W        W23715  12.422   1.616  15.371 -0.1195  0.1876  0.3444
 3436W        W23716   7.649   1.157  16.861 -0.1500  0.2219  0.1135
 3437W        W23717   8.021   7.055  14.492  0.0513  0.1557 -0.0632
 3438W        W23718   3.997  13.862   4.211  0.2103  0.0058 -0.1703
 3439W        W23719  10.077  10.149   3.188 -0.1209 -0.2571 -0.0993
 3440W        W23720  10.348   8.185  13.558  0.0928  0.1038 -0.0990
 3441W        W23721  17.325   9.617   1.771 -0.2242  0.2698 -0.1433
 3442W        W23722   4.665   6.383   2.404  0.1256  0.0739 -0.1293
 3443W        W23723   3.365   4.599   1.509 -0.2375 -0.1152  0.0965
 3444W        W23724  10.611  13.076   2.377 -0.0559  0.0781 -0.1214
 3445W        W23725   1.953   2.226  15.488 -0.1852 -0.0601  0.1859
 3446W        W23726   4.584  11.384  12.652 -0.0386  0.2149 -0.1954
 3447W        W23727   2.669  10.952  16.724 -0.1148 -0.1018 -0.0348
 3448W        W23728   8.614   1.063  14.716  0.3598  0.3610 -0.2953
 3449W        W23729   5.810   1.738  12.452 -0.0092  0.0471 -0.1468
 3450W        W23730   3.216   2.425   3.290 -0.1643  0.0982 -0.4268
 3451W        W23731  17.104  12.972  15.561 -0.0325 -0.0360 -0.1191
 3452W        W23732  11.037   6.052  16.381  0.1704  0.1340 -0.2837
 3453W        W23733   6.634   6.259   2.307  0.1762  0.0820  0.1688
 3454W        W23734   5.511   0.948  13.625 -0.1481  0.0770  0.0762
 3455W        W23735  14.492  16.512   1.281  0.0246 -0.1506 -0.0685
 3456W        W23736   9.480   5.347   3.957 -0.1482  0.2090 -0.1337
 3457W        W23737   0.090  10.891   4.205 -0.1141  0.0814 -0.2398
 3458W        W23738   8.280   3.836   0.697  0.2880  0.1520 -0.1333
 3459W        W23739   3.205   5.126  14.752 -0.0802  0.1386 -0.2041
 3460W        W23740  13.684  16.691   4.636  0.3424 -0.1516 -0.2908
 3461W        W23741  16.692  11.544  14.703  0.1271 -0.1730 -0.0176
 3462W        W23742  10.170   5.085  14.786 -0.1042 -0.0019  0.1591
 3463W        W23743   7.577  13.742  13.614  0.1565 -0.0784 -0.0784
 3464W        W23744  12.138  15.352  14.435 -0.1933  0.3113  0.0417
 3465W        W23745   3.690  16.643   3.378  0.0076  0.3622  0.0099
 3466W        W23746  13.817   5.142  16.620  0.1188  0.0300 -0.1428
 3467W        W23747  16.137   7.217   3.757 -0.1710 -0.1187 -0.0873
 3468W        W23748   6.584  16.793  15.806  0.0847 -0.0821 -0.1533
 3469W        W23749   4.738   3.973   3.550 -0.1179 -0.0560  0.0419
 3470W        W23750  14.586   6.811  13.525 -0.0333 -0.2895  0.0189
 3471W        W23751   1.098   8.693  14.579 -0.1808  0.0193 -0.1277
 3472W        W23752  16.289  16.685  13.853  0.2204  0.0638 -0.1704
 3473W        W23753  16.955   4.935   3.305 -0.0985 -0.0259  0.2033
 3474W        W23754   2.886   4.303   1.470  0.1560 -0.3077  0.1133
 3475W        W23755   9.780   6.829  13.677 -0.0563 -0.0708 -0.4148
 3476W        W23756  13.911   7.182   0.947  0.0642 -0.1506  0.1745
 3477W        W23757   6.093   6.885   0.158  0.0345  0.0536 -0.1352
 3478W        W23758   7.831   4.746   3.029  0.1046 -0.1011 -0.2700
 3479W        W23759   6.591   0.446  13.171  0.0185  0.0595  0.2085
 3480W        W23760   2.774  17.335  15.614  0.3252  0.2674 -0.0469
 3481W        W23761  17.537   9.161   0.130  0.1473 -0.0825 -0.2256
 3482W        W23762   8.978  17.128   0.155  0.0265 -0.2879  0.0939
 3483W        W23763  10.642   1.899   2.906 -0.1404 -0.1821 -0.2429
 3484W        W23764  14.128  11.440   3.264 -0.1386  0.4359  0.1634
 3485W        W23765  13.623   2.012   2.580 -0.3539 -0.0868  0.1659
 3486W        W23766   5.651  13.209   1.802  0.2898  0.0480  0.0463
 3487W        W23767  12.761  16.240   0.591 -0.2228 -0.2115 -0.0845
 3488W        W23768   8.792  14.259  15.018  0.0841  0.1736 -0.3904
 3489W        W23769  13.535  14.535   4.744 -0.0038  0.3714 -0.0207
 3490W        W23770   7.825  13.907   1.606 -0.0412  0.0731 -0.0336
 3491W        W23771   2.933   7.864   0.251 -0.2339 -0.1329 -0.0703
 3492W        W23772   0.559   9.877   0.830 -0.0147 -0.1234 -0.0064
 3493W        W23773  16.016   3.512   3.639 -0.0622  0.1519  0.3050
 3494W        W23774   1.547   5.305   2.701  0.0646  0.2959 -0.1010
 3495W        W23775  13.560  10.171   2.616  0.0559 -0.1761  0.0982
 3496W        W23776   5.063   5.775   3.936  0.1935 -0.0253 -0.0688
 3497W        W23777   3.771  13.770  12.919  0.1552 -0.1955  0.0828
 3498W        W23778  11.088  17.102   0.793 -0.0575 -0.3772  0.1215
 3499W        W23779   9.611   1.680   1.060 -0.1201 -0.1461  0.0223
 3500W        W23780  16.230   9.158  16.756 -0.1970 -0.0393  0.0465
 3501W        W23781   6.212  10.779   0.284  0.0385 -0.1696 -0.0082
 3502W        W23782  16.096   7.915   3.222 -0.2250  0.0651 -0.3814
 3503W        W23783   0.993   3.195  12.431  0.2092 -0.3355  0.1180
 3504W        W23784  15.230   9.661  16.156  0.0636  0.0570 -0.1093
 3505W        W23785  12.073  16.538  15.584 -0.1313 -0.0723 -0.1133
 3506W        W23786  11.969  15.733   4.606 -0.0476 -0.1424  0.1490
 3507W        W23787   1.056  13.215   1.738  0.1896 -0.3019 -0.1579
 3508W        W23788  11.220   4.615  15.272 -0.0486 -0.2801 -0.3425
 3509W        W23789   7.872   5.368  14.197 -0.2741  0.1819  0.0261
 3510W        W23790  13.933   0.552   5.009 -0.0971 -0.1891 -0.0323
 3511W        W23791  13.445   2.190   3.045  0.1457  0.2706  0.1473
 3512W        W23792   6.166   4.598  12.601  0.2087 -0.2156  0.0003
 3513W        W23793  12.613  11.334  13.572 -0.0904  0.0604 -0.0729
 3514W        W23794  11.420  13.505   2.573 -0.0183 -0.0978 -0.3720
 3515W        W23795   9.583  12.587   4.721 -0.3106  0.2587  0.1687
 3516W        W23796   0.051  10.893   0.831  0.1639  0.1157  0.0548
 3517W        W23797   5.229   2.212  12.828  0.0794 -0.3768  0.2226
 3518W        W23798  11.949  14.245  16.729 -0.2767 -0.0777  0.0735
 3519W        W23799   2.821  17.267   2.528 -0.1153  0.1638 -0.0983
 3520W        W23800  14.557  13.614  14.591  0.2298 -0.1670 -0.0171
 3521W        W23801   1.644   5.986   1.774 -0.0769  0.0530 -0.3722
 3522W        W23802   1.715   9.943  15.058 -0.0552  0.2737 -0.2268
 3523W        W23803  12.690   8.879  13.225  0.2002  0.2119 -0.3136
 3524W        W23804   3.470  11.290   4.094  0.0503 -0.2295  0.1310
 3525W        W23805   4.751   8.068   2.272 -0.0286 -0.0707  0.0182
 3526W        W23806   6.879   8.030   2.006  0.0382  0.3104 -0.1709
 3527W        W23807  12.956  17.244   0.268  0.3783  0.1314  0.1721
 3528W        W23808  15.000   2.370   4.289 -0.0705  0.0427  0.0059
 3529W        W23809  10.742   7.873  15.789 -0.1108 -0.2496  0.4031
 3530W        W23810  12.548   1.449   1.217 -0.1807 -0.0291 -0.0232
 3531W        W23811   4.799   0.688   3.051  0.0937 -0.4718 -0.1767
 3532W        W23812  17.493   0.148   0.925  0.1977  0.1368 -0.1951
 3533W        W23813  12.842  14.726   3.741  0.0225 -0.1748 -0.0508
 3534W        W23814   2.845   6.958   1.477 -0.2005  0.0356 -0.2576
 3535W        W23815   2.051   0.060   3.006 -0.0886  0.1846  0.1383
 3536W        W23816   4.324   6.526   1.282 -0.0938 -0.1685 -0.0531
 3537W        W23817   2.819   2.330   4.444  0.0878 -0.0514  0.0171
 3538W        W23818   1.682   8.295   0.067  0.0345  0.1104 -0.1355
 3539W        W23819   9.196  11.847  16.834  0.0378  0.0448  0.0134
 3540W        W23820  16.238  17.356  15.834  0.0643 -0.0992  0.1077
 3541W        W23821  17.530   8.705   2.600  0.0602  0.1979  0.1472
 3542W        W23822  11.938   5.828  11.560  0.0641  0.2614 -0.3479
 3543W        W23823   4.370  16.182   3.890 -0.1335  0.0143  0.2013
 3544W        W23824  13.390   5.300  16.804  0.0177 -0.0857  0.0393
 3545W        W23825   6.950   2.488   0.412  0.2170 -0.1155  0.0870
 3546W        W23826   8.503   0.859   4.575 -0.2205  0.1209  0.0669
 3547W        W23827   0.005  16.290   4.657 -0.1808  0.0277 -0.2376
 3548W        W23828   9.810   3.243   2.473  0.2065 -0.1349  0.3670
 3549W        W23829   9.090  16.911   2.343 -0.0147 -0.0917  0.0791
 3550W        W23830  11.102   2.310  14.286  0.2663  0.2706 -0.3271
 3551W        W23831  13.339  10.010  12.727  0.0331 -0.0039 -0.0360
 3552W        W23832  10.587  13.887  16.210  0.1065  0.1157 -0.1483
 3553W        W23833  17.717  13.291  14.324  0.0617 -0.1571 -0.2168
 3554W        W23834   8.336   7.949  13.694 -0.2905 -0.0316 -0.0595
 3555W        W23835   5.953  15.782   3.949  0.0332  0.1033  0.1006
 3556W        W23836  14.918  11.681   2.009 -0.0002  0.0088 -0.0382
 3557W        W23837   0.418   8.109  12.616 -0.1273  0.5810 -0.1847
 3558W        W23838  17.339   1.812   2.071  0.2211  0.1583  0.0012
 3559W        W23839   6.386  14.663   0.918 -0.0379 -0.0108 -0.0165
 3560W        W23840   5.375   5.466   0.433 -0.0894 -0.0339 -0.0826
 3561W        W23841   3.258   7.975  13.144  0.0201  0.1628  0.2338
 3562W        W23842   2.009   1.095   4.765  0.1200 -0.0673 -0.0244
 3563W        W23843  11.582   7.936  15.990 -0.1265  0.1327  0.0555
 3564W        W23844  16.148  13.706  15.991 -0.2847  0.0057  0.0814
 3565W        W23845   5.390   6.854  14.783  0.2287  0.1780 -0.0333
 3566W        W23846   6.518   7.568  12.731  0.0489  0.0901  0.0972
 3567W        W23847   0.220   0.325  13.462  0.0029  0.0837 -0.0402
 3568W        W23848   4.097  16.958   2.359  0.4219  0.0141 -0.0092
 3569W        W23849   3.257   7.221   2.834  0.0835 -0.1166  0.0818
 3570W        W23850  14.170  14.581   2.917  0.0452 -0.0135 -0.1150
 3571W        W23851   8.714  13.868  14.668 -0.2582  0.0353 -0.1156
 3572W        W23852   4.895   0.825   0.918 -0.1833  0.1575 -0.1069
 3573W        W23853  14.518   5.937  13.272 -0.2537  0.0880 -0.2307
 3574W        W23854   7.767  16.401  16.487 -0.2031  0.3165 -0.2167
 3575W        W23855   7.255  12.594  14.729 -0.0452 -0.3809  0.0542
 3576W        W23856   1.581  14.573   4.624 -0.3374  0.2361  0.2253
 3577W        W23857  10.789   4.445   0.957  0.0610 -0.0143  0.0690
 3578W        W23858   5.384  15.923  12.837 -0.2183  0.3153  0.1682
 3579W        W23859  13.996   2.472  13.110 -0.0424 -0.0108 -0.0125
 3580W        W23860  12.365   8.739   3.652 -0.0116 -0.4660  0.0387
 3581W        W23861  10.960  13.837   3.358  0.0596 -0.0065 -0.0233
 3582W        W23862  10.244  16.838   0.289 -0.1684  0.0399  0.0912
 3583W        W23863   4.928  15.081   3.344  0.0504 -0.2890  0.1166
 3584W        W23864   3.445   0.418  14.327  0.0077 -0.1306 -0.0793
 3585W        W23865  14.801   4.223   1.205 -0.2319  0.0409 -0.2222
 3586W        W23866  16.765  12.206   4.985 -0.0495 -0.0370 -0.0666
 3587W        W23867   1.018   0.056   1.956  0.2061 -0.1994  0.2512
 3588W        W23868  17.156   1.983   4.539  0.0072 -0.2843  0.0599
 3589W        W23869  15.506  13.705  14.434 -0.0047 -0.0356 -0.1246
 3590W        W23870  13.946   4.303   3.648  0.1344  0.0351 -0.1920
 3591W        W23871   8.139   3.377   1.580 -0.0621 -0.0181 -0.0216
 3592W        W23872  17.433  11.117  15.103  0.2213  0.3288 -0.0547
 3593W        W23873  10.636  14.601  14.160  0.0969 -0.0764  0.2719
 3594W        W23874  13.046   1.506   3.035  0.1159 -0.0652  0.0804
 3595W        W23875  13.844  15.874  15.659  0.1497  0.0903  0.1468
 3596W        W23876   9.738   2.441   3.104  0.1437  0.0488  0.1848
 3597W        W23877   4.094  17.002   3.426 -0.0243  0.0522  0.0920
 3598W        W23878   7.975   1.634   0.792  0.1251 -0.0944 -0.2918
 3599W        W23879   1.091  14.857   3.109  0.0580 -0.2076 -0.1137
 3600W        W23880  15.716   3.040  16.829  0.0442  0.0915  0.2593
 3601W        W23881   0.308   0.093  12.495 -0.1139  0.0515 -0.0252
 3602W        W23882  16.908  15.828  15.449  0.0694  0.1547  0.1627
 3603W        W23883  10.972   6.844   4.864  0.0059  0.1849 -0.2638
 3604W        W23884  12.231  15.195   5.065  0.0762 -0.2735  0.3639
 3605W        W23885   9.927  16.465   3.573  0.1640 -0.0426  0.0465
 3606W        W23886  13.897   3.476  12.741 -0.2399  0.0329  0.3242
 3607W        W23887  10.428   4.611   0.682 -0.0981  0.0684  0.1092
 3608W        W23888   3.104  11.556  12.594 -0.3409  0.1017  0.0766
 3609W        W23889  11.120   2.472   0.125  0.2124  0.0268 -0.1136
 3610W        W23890  13.118  13.204  12.641  0.0882  0.2690 -0.2871
 3611W        W23891   2.880   5.275  14.109  0.0264  0.1165 -0.0656
 3612W        W23892   7.996   8.548  14.420  0.2581 -0.2584 -0.2497
 3613W        W23893  14.266  13.553  13.682 -0.0851 -0.1398  0.0491
 3614W        W23894   0.833   3.330   5.010 -0.0826 -0.1426 -0.0758
 3615W        W23895   7.489  15.142   1.627  0.0549 -0.0799  0.0417
 3616W        W23896   3.112  12.829   2.171 -0.1078 -0.0026  0.2907
 3617W        W23897   1.566  16.176   1.896  0.0783 -0.2567 -0.3197
 3618W        W23898   6.951   8.728  15.681  0.2524  0.1126 -0.2415
 3619W        W23899  16.231  17.269   3.744 -0.0103 -0.0112 -0.1556
 3620W        W23900  17.035   7.032   5.143 -0.1396  0.4332  0.0723
 3621W        W23901  15.486  10.238  12.767  0.2448  0.1664  0.1733
 3622W        W23902   2.871  15.024   3.290 -0.0098 -0.0709  0.3128
 3623W        W23903   0.138  13.420   1.626 -0.0110 -0.2636  0.1811
 3624W        W23904  13.271  13.353  15.938  0.1881  0.0826 -0.0013
 3625W        W23905  12.150  13.435  15.988  0.0731 -0.1234  0.2805
 3626W        W23906   8.016  12.065   3.776 -0.2963  0.0432 -0.2337
 3627W        W23907   7.616  14.593   2.419  0.0168 -0.1005 -0.2253
 3628W        W23908  11.940   9.566  14.392  0.0359 -0.0179  0.2836
 3629W        W23909  13.481   5.205   4.050  0.2253 -0.0763 -0.1847
 3630W        W23910   4.457  13.333   3.751  0.0862  0.0224 -0.0437
 3631W        W23911  10.672   0.260   3.430  0.0068 -0.2562  0.0946
 3632W        W23912  10.996  16.204  14.404  0.2721 -0.0299  0.0472
 3633W        W23913  13.196   2.762   2.788  0.1504  0.1715 -0.3372
 3634W        W23914   8.543   0.317   3.762 -0.1768 -0.2872 -0.2167
 3635W        W23915  14.017  14.651   2.389  0.1383  0.1726 -0.1565
 3636W        W23916   2.577  17.098  14.413  0.2107 -0.1872  0.2944
 3637W        W23917  16.356  15.236   0.959  0.0571 -0.1153 -0.1267
 3638W        W23918  11.727  12.979  14.186 -0.1237  0.0005  0.0993
 3639W        W23919  14.794  14.806   1.690  0.1203  0.1342 -0.2324
 3640W        W23920   6.666   2.107   2.207  0.2201  0.3193  0.0415
 3641W        W23921   4.188  16.802  14.422 -0.2745 -0.0325 -0.1950
 3642W        W23922   0.238   7.929  16.347  0.1202  0.1546  0.0208
 3643W        W23923   9.665  11.269   2.480 -0.3322  0.1551 -0.0493
 3644W        W23924   0.110   8.154   4.348 -0.0551 -0.1804 -0.0346
 3645W        W23925  16.000  13.977   3.534  0.0046 -0.3687 -0.1685
 3646W        W23926   7.936   3.171  12.582  0.2103 -0.0474  0.0270
 3647W        W23927   0.441   3.869   2.498  0.2579  0.1267  0.3250
 3648W        W23928  13.392  13.434   1.194 -0.1862 -0.5121  0.0112
 3649W        W23929  15.953   4.068   0.166 -0.0202  0.2002  0.0601
 3650W        W23930  14.638  14.385  11.181 -0.1353  0.0212 -0.0758
 3651W        W23931  16.925   4.495   2.542 -0.0251  0.0912  0.1612
 3652W        W23932  12.026   8.606  15.234  0.0472 -0.0766 -0.1784
 3653W        W23933  10.492  13.838  12.614  0.0175  0.3654  0.1267
 3654W        W23934  11.419  17.618  16.044  0.1305 -0.1995 -0.3108
 3655W        W23935  12.959  10.231  16.226 -0.1661  0.1662 -0.0223
 3656W        W23936  11.031   9.540  16.136  0.3653 -0.0014  0.3367
 3657W        W23937   1.594  11.542   2.942  0.2424 -0.2202  0.2879
 3658W        W23938   6.427  14.246  15.151  0.2241  0.0090  0.0477
 3659W        W23939  14.783  17.376   1.315 -0.1781 -0.2516  0.0519
 3660W        W23940   1.441   5.098  12.650  0.0953  0.1761  0.0932
 3661W        W23941   5.928   4.686  13.731  0.1230 -0.2550 -0.0626
 3662W        W23942   1.927   5.845   0.283 -0.2497  0.1267  0.0658
 3663W        W23943   8.957   4.432  12.448  0.0092 -0.0972  0.1297
 3664W        W23944  14.171   0.593  12.869 -0.1089 -0.3187  0.0123
 3665W        W23945  12.746   6.036   3.913 -0.0501  0.3269 -0.0561
 3666W        W23946   8.337  14.185  12.781  0.0673  0.0863  0.0441
 3667W        W23947   1.196  12.015   4.017 -0.1379  0.2492  0.0763
 3668W        W23948  15.519   2.907   1.256  0.2943 -0.0010  0.0864
 3669W        W23949   6.725   5.215   0.461  0.1017 -0.0792  0.2368
 3670W        W23950   2.391  13.583  16.878 -0.2392 -0.0821 -0.0240
 3671W        W23951  11.048   8.617   2.183 -0.3366  0.2058  0.2600
 3672W        W23952   5.132  11.393  12.626  0.1564 -0.0371  0.0560
 3673W        W23953   6.314   0.048  13.024  0.0454 -0.2025 -0.2666
 3674W        W23954  10.893   8.359  15.202  0.0373  0.1552  0.0057
 3675W        W23955  13.765  10.738   1.128 -0.0108 -0.0037  0.0474
 3676W        W23956   5.658   3.064   1.374 -0.1402 -0.1336  0.0751
 3677W        W23957   4.067   6.395   1.866 -0.2696  0.2357  0.0512
 3678W        W23958  16.905   8.005   0.592  0.0337  0.0482 -0.1407
 3679W        W23959  12.377   0.485  12.375 -0.0211  0.0742 -0.0208
 3680W        W23960  12.371  15.167   2.259 -0.0876 -0.1070 -0.0350
 3681W        W23961   2.956  14.930   2.557 -0.0376 -0.5108  0.1548
 3682W        W23962   6.812   3.607  11.980  0.1229 -0.0183 -0.3068
 3683W        W23963   0.459  11.812  12.453  0.1168  0.2945 -0.3096
 3684W        W23964  13.553   0.256   4.302 -0.1918  0.0513  0.2708
 3685W        W23965  13.326   8.271   1.392 -0.2241 -0.4050 -0.1426
 3686W        W23966   5.293  16.519  14.929  0.0310 -0.0712  0.0489
 3687W        W23967   4.100  13.002   1.718  0.0697  0.1606  0.0672
 3688W        W23968  12.308   5.289   2.744 -0.5261 -0.2049  0.1098
 3689W        W23969   3.588  15.218  13.380  0.0036 -0.1085  0.1121
 3690W        W23970   3.739   2.613  15.526  0.0576 -0.0057  0.2086
 3691W        W23971   1.567  15.846   2.351 -0.3030  0.0793 -0.3984
 3692W        W23972   0.361   4.361  14.381 -0.0228  0.0805  0.1354
 3693W        W23973  14.776   5.752   2.570 -0.2111  0.0132 -0.0337
 3694W        W23974   7.106  14.498  12.388 -0.0056 -0.2175  0.0527
 3695W        W23975  14.668  12.439  12.283  0.1860 -0.1811  0.2120
 3696W        W23976   9.056   0.268   5.117  0.1608 -0.1850  0.0919
 3697W        W23977   8.250   9.835  13.292  0.0422 -0.1014 -0.0671
 3698W        W23978  12.848   0.582   4.056  0.1223 -0.0719 -0.2979
 3699W        W23979  15.196   5.117   0.986 -0.1309  0.2469  0.0645
 3700W        W23980   0.395   1.048   2.876  0.0562  0.0881  0.1177
 3701W        W23981  14.926  12.894  14.128  0.0210 -0.2718  0.0608
 3702W        W23982  14.738   2.244   0.139  0.2788 -0.0951 -0.0598
 3703W        W23983   1.981  17.375  13.735 -0.0249  0.4689 -0.3365
 3704W        W23984  16.607   5.324  13.678  0.1804  0.0192 -0.0724
 3705W        W23985   5.533  12.202  12.871 -0.1095 -0.1334  0.1611
 3706W        W23986  10.842   7.653   3.732  0.1807  0.0514 -0.0058
 3707W        W23987  15.625   5.731   2.113  0.1322  0.1529  0.0163
 3708W        W23988   1.123  17.261   1.044 -0.2788  0.2134  0.1790
 3709W        W23989   4.070   7.737  16.461 -0.0237 -0.3153  0.1492
 3710W        W23990   4.021   0.996  13.688 -0.0176 -0.1819 -0.1433
 3711W        W23991   6.223   9.279   3.699 -0.0645  0.0903  0.1916
 3712W        W23992  11.994  17.458  12.634  0.3190 -0.1474  0.1983
 3713W        W23993   5.548  17.413  13.084 -0.1259 -0.0592  0.0380
 3714W        W23994   0.090   6.612   1.742  0.1846  0.4681  0.0470
 3715W        W23995   5.224   0.528   4.801 -0.2607  0.2995  0.1386
 3716W        W23996  11.521  12.429  12.484  0.0091 -0.0502 -0.1789
 3717W        W23997  11.983   9.498   4.611 -0.0633  0.0039  0.1058
 3718W        W23998   0.603   9.109  12.488  0.2322  0.0934 -0.3563
 3719W        W23999   0.168  11.467  16.157 -0.1645  0.0184  0.1095
 3720W        W24000  16.908   0.304  15.625  0.1845  0.0415 -0.0087
 3721W        W24001  11.175   2.994  14.065  0.0011 -0.3042 -0.0690
 3722W        W24002  11.171   7.788   0.406 -0.0215  0.1412  0.0945
 3723W        W24003  10.345   2.541  13.834 -0.1922 -0.5921  0.2882
 3724W        W24004   1.714   3.540  15.542  0.1023 -0.0956  0.0142
 3725W        W24005   1.809   5.702   1.363  0.1777 -0.2348  0.1667
 3726W        W24006  16.534  11.333   5.348 -0.0886  0.0016  0.1083
 3727W        W24007  11.720   9.965  15.342 -0.1421 -0.4874  0.1739
 3728W        W24008  13.543   1.198   4.619 -0.2154  0.0031 -0.1566
 3729W        W24009   2.749   7.551   2.038 -0.1294 -0.1935 -0.2205
 3730W        W24010  17.615   3.599  13.953 -0.3722 -0.0941 -0.2580
 3731W        W24011  16.358   8.888   4.099  0.1111  0.0687 -0.3253
 3732W        W24012   7.433  15.334   5.391  0.3137 -0.0871  0.1436
 3733W        W24013   5.810   6.196  16.257 -0.2384  0.2514  0.4014
 3734W        W24014  11.990   2.048  12.231 -0.0649  0.1959 -0.1873
 3735W        W24015   0.864   0.751   3.200 -0.0803 -0.1120 -0.3045
 3736W        W24016   9.834  16.198  14.962 -0.0255 -0.0836  0.0877
 3737W        W24017  13.819   8.440  14.060  0.0539 -0.0940 -0.1348
 3738W        W24018   4.945   1.104  12.087  0.0154 -0.0543 -0.0507
 3739W        W24019   1.606  15.867  12.277 -0.0346 -0.0905 -0.1028
 3740W        W24020  11.785  10.981  14.001  0.0343  0.0731  0.3171
 3741W        W24021  12.670  16.478  15.645  0.1039 -0.2051 -0.5414
 3742W        W24022   7.863   7.057   3.051 -0.1755  0.1587  0.2439
 3743W        W24023   6.863   1.518  15.172 -0.1445  0.0428  0.0059
 3744W        W24024  13.013   5.709  16.001  0.0126  0.2460 -0.1527
 3745W        W24025   8.916  12.953  13.985 -0.1099 -0.3880  0.0210
 3746W        W24026   2.733   7.126  15.312 -0.1142 -0.0243  0.0389
 3747W        W24027  10.290   2.103   0.250  0.1024  0.1302 -0.0631
 3748W        W24028   0.963   9.562   1.491 -0.1527  0.3164 -0.1391
 3749W        W24029  13.319  16.216   1.190 -0.1893 -0.0024 -0.0266
 3750W        W24030   8.314   9.676   0.936  0.0414 -0.0181  0.0644
 3751W        W24031  14.189   3.597  15.913  0.0155 -0.2368 -0.0255
 3752W        W24032   6.308   0.246   3.290  0.0359  0.0248 -0.1156
 3753W        W24033   8.596   2.351   0.580  0.2338 -0.2438 -0.1607
 3754W        W24034  12.572  17.445   5.122  0.3878 -0.0581 -0.1089
 3755W        W24035  12.383  15.652  13.869  0.2279 -0.0149 -0.0226
 3756W        W24036  17.667  17.715   4.564 -0.3284  0.0988  0.0816
 3757W        W24037   9.867  16.229  13.935  0.3422  0.4226 -0.1216
 3758W        W24038  17.411   6.534   2.035 -0.0964 -0.0659  0.1333
 3759W        W24039   7.416  10.248   0.586  0.1579  0.1854  0.1808
 3760W        W24040  11.372  10.328   2.470  0.0491 -0.1736 -0.0008
 3761W        W24041   9.521   7.634  15.679  0.2235  0.0378 -0.3347
 3762W        W24042   8.025   9.593  11.473 -0.4294  0.1158 -0.2756
 3763W        W24043   2.424  10.998  14.651  0.3520  0.1162 -0.2633
 3764W        W24044  16.903  13.636   4.015 -0.0763  0.3758 -0.1618
 3765W        W24045  13.688   9.655   1.825  0.2077  0.1077  0.1354
 3766W        W24046   2.145   0.171   3.645  0.0926 -0.0659  0.1040
 3767W        W24047  13.759   4.828   5.371  0.0619 -0.0915 -0.2470
 3768W        W24048  10.946  14.169   1.368  0.0539  0.2756 -0.0619
 3769W        W24049   4.731   6.067  12.161  0.1809 -0.0170  0.3609
 3770W        W24050  16.446  10.245   2.760  0.0176  0.1839  0.0689
 3771W        W24051   6.039  15.004   1.067  0.1947  0.2320 -0.2090
 3772W        W24052   8.229  11.320   3.183  0.0680 -0.2859  0.2013
 3773W        W24053   2.622   7.367   0.312  0.3441  0.1529 -0.0295
 3774W        W24054   3.400  13.136   0.049  0.1534 -0.1945  0.2059
 3775W        W24055   9.799   4.627   2.095  0.0411 -0.1219 -0.2979
 3776W        W24056  14.990   7.897  12.268 -0.1052  0.0206 -0.2708
 3777W        W24057   8.832   5.728   2.958  0.0862  0.0256 -0.2624
 3778W        W24058  14.431   0.843   3.450 -0.1329  0.0626  0.0189
 3779W        W24059  14.986   5.059   1.404  0.2257 -0.1908  0.0599
 3780W        W24060   5.563  17.341   2.888  0.0545  0.2583  0.0934
 3781W        W24061   6.996   3.196   3.339 -0.0383 -0.1350  0.0369
 3782W        W24062  16.668   4.779  12.511 -0.0714 -0.1938 -0.1792
 3783W        W24063   6.218  12.305   4.505 -0.0592  0.0748 -0.0283
 3784W        W24064  12.710   0.853  16.405  0.1058 -0.1816  0.1024
 3785W        W24065   3.301  11.013  13.283  0.0641 -0.1206  0.2725
 3786W        W24066  11.742  16.783   2.135 -0.0292  0.3067 -0.0225
 3787W        W24067  16.191  12.837   2.013  0.2580 -0.0957  0.1392
 3788W        W24068  10.517  13.132   1.334  0.0118 -0.0531  0.0708
 3789W        W24069   7.335  14.874  12.716 -0.4216  0.0478  0.0094
 3790W        W24070   6.034  14.153   4.674 -0.2555 -0.0111  0.4147
 3791W        W24071   9.861   4.852   4.552 -0.1565  0.2611  0.1115
 3792W        W24072  12.643   9.705  15.335 -0.0935 -0.0750 -0.1896
 3793W        W24073   9.471  10.867   1.016  0.1817  0.0212  0.4682
 3794W        W24074  13.117  13.724   1.478 -0.0386 -0.3573 -0.0596
 3795W        W24075  10.086   3.325   4.205 -0.0055 -0.0591 -0.0710
 3796W        W24076  17.546   9.403   3.625 -0.0693 -0.0306 -0.2616
 3797W        W24077   8.983  11.095   3.806 -0.0008 -0.2061 -0.1823
 3798W        W24078   8.081  16.477  12.516  0.0495 -0.2069  0.2184
 3799W        W24079   4.988  13.707   4.510 -0.2396 -0.0582 -0.0861
 3800W        W24080  14.842   3.391   0.727 -0.0669 -0.2289 -0.2928
 3801W        W24081  11.593   3.116  14.840 -0.0045  0.0323 -0.2193
 3802W        W24082   4.578   4.893   1.121 -0.0664  0.0539  0.0121
 3803W        W24083  12.973   0.742   5.241  0.1026 -0.2151  0.1294
 3804W        W24084  15.567  11.231   3.169 -0.1513  0.0518  0.0450
 3805W        W24085  13.665   2.306  13.500  0.1149  0.0142 -0.0863
 3806W        W24086   3.576   8.167  13.563  0.1237  0.2579 -0.0526
 3807W        W24087   6.799   6.188  13.242  0.0590 -0.0052 -0.0233
 3808W        W24088  11.821  10.086  13.699 -0.0664 -0.0334 -0.2293
 3809W        W24089   7.389   9.451   0.843  0.0100  0.1364  0.0663
 3810W        W24090  15.901   9.473   1.506  0.1695  0.1620  0.0535
 3811W        W24091  12.598   4.321  15.280 -0.0381 -0.1600 -0.0164
 3812W        W24092  14.490  17.249  14.120 -0.1266 -0.0114 -0.0130
 3813W        W24093  16.659   9.155   0.692  0.1233 -0.2894  0.0126
 3814W        W24094  17.473  13.182  11.846 -0.0986  0.2101 -0.2407
 3815W        W24095  12.512   5.109  16.443  0.0686  0.3125  0.1572
 3816W        W24096   5.539   5.121  14.491 -0.1401 -0.2964  0.2898
 3817W        W24097  12.993  15.322  14.780 -0.1304 -0.1426 -0.2156
 3818W        W24098  14.076   8.304   1.903  0.1698  0.0833  0.3150
 3819W        W24099  15.301   1.614  16.835 -0.0131  0.3214 -0.2964
 3820W        W24100   6.692   6.417   2.876  0.0966  0.2116 -0.0344
 3821W        W24101   3.579   0.328  14.788  0.0702 -0.0643 -0.1798
 3822W        W24102  10.483   1.686   4.853  0.1386  0.1414  0.2024
 3823W        W24103   6.302   0.695   0.094 -0.2307  0.0900 -0.0577
 3824W        W24104  17.607  15.165  12.787  0.0089  0.0210  0.0815
 3825W        W24105   4.238   4.196  14.537 -0.0762 -0.0285  0.2303
 3826W        W24106  12.721   6.024   2.378  0.0719  0.0773  0.5574
 3827W        W24107  16.618   2.150   1.441  0.1837 -0.1121 -0.0198
 3828W        W24108   9.918  14.650   3.854  0.0778 -0.0083  0.1139
 3829W        W24109   1.681   3.064   3.854 -0.1674  0.2811 -0.1709
 3830W        W24110  11.046  10.250   4.056 -0.0304  0.1304 -0.0151
 3831W        W24111  12.933   6.996  16.679 -0.0997  0.3048 -0.0839
 3832W        W24112   1.433   9.007   3.605 -0.0007 -0.2963 -0.0755
 3833W        W24113   1.653  16.776  14.561 -0.1140 -0.3104  0.0692
 3834W        W24114   6.614  12.234  15.171 -0.0448  0.1116  0.1901
 3835W        W24115  14.743   4.722  12.148  0.1423 -0.3850 -0.2392
 3836W        W24116  14.130   2.697  15.715  0.0351 -0.1959 -0.1126
 3837W        W24117   3.287   9.942   3.143 -0.0099 -0.0510  0.1133
 3838W        W24118  10.125  17.041  14.810 -0.1113  0.1229 -0.0009
 3839W        W24119   3.120  17.070  13.087  0.2073  0.0620  0.2547
 3840W        W24120   6.994   4.046   2.761  0.1444  0.2409  0.1650
 3841W        W24121  17.074  17.257  13.615 -0.1732  0.2744 -0.1840
 3842W        W24122   5.090  10.467   0.899  0.2280  0.0998  0.1370
 3843W        W24123   2.233   3.231  14.010 -0.0723 -0.1196 -0.2581
 3844W        W24124  17.683   8.205  15.621  0.0723  0.1199 -0.2507
 3845W        W24125  17.623  16.608   1.110  0.0540  0.0205  0.1506
 3846W        W24126   4.549  12.836   3.902  0.2284  0.0612  0.1957
 3847W        W24127   8.499   7.319  13.703 -0.0391  0.0657 -0.3912
 3848W        W24128   4.107   7.086   4.692 -0.0845  0.1836 -0.3522
 3849W        W24129  10.913   7.499  13.719 -0.0604  0.3087  0.1574
 3850W        W24130   6.062   3.950  16.323 -0.0686  0.0111 -0.0881
 3851W        W24131  11.007  11.572  16.336 -0.4736 -0.0941 -0.2388
 3852W        W24132  11.117   3.397   2.185 -0.0546  0.4139  0.1961
 3853W        W24133   9.922   0.419   2.977 -0.2325  0.1493 -0.1433
 3854W        W24134   6.079   1.334   2.542 -0.0073  0.0997  0.2111
 3855W        W24135   7.406  16.367  14.502  0.1668 -0.1285  0.1806
 3856W        W24136   9.488  13.398  16.002 -0.2306 -0.4129  0.0861
 3857W        W24137   9.279   8.460   4.199  0.0815 -0.3274 -0.2449
 3858W        W24138  10.597  14.649  12.106  0.1442  0.0189  0.4298
 3859W        W24139   2.387  16.866   0.758 -0.1952 -0.1076 -0.2573
 3860W        W24140  10.954   3.271  12.722 -0.3539  0.0145  0.0203
 3861W        W24141   2.938   6.761  13.015  0.0140 -0.2348  0.1028
 3862W        W24142  16.790   8.414   0.262  0.1802 -0.0292 -0.0242
 3863W        W24143  10.365   7.093  10.996  0.2605 -0.2117 -0.2672
 3864W        W24144  11.997  12.031   5.040  0.1262  0.0547 -0.0469
 3865W        W24145   8.063  15.581   2.165 -0.2451 -0.1511  0.1209
 3866W        W24146  14.945  12.102   2.447  0.3149  0.0112  0.0109
 3867W        W24147   2.691  10.933   3.760 -0.0971 -0.1107 -0.2509
 3868W        W24148   3.641  16.082  14.678  0.1196 -0.1236  0.0229
 3869W        W24149   3.859  12.495  13.076 -0.0231  0.0233  0.1568
 3870W        W24150   0.888   5.218  15.884 -0.0097 -0.1602  0.0362
 3871W        W24151   5.403   6.670  11.910 -0.2727  0.3255  0.0179
 3872W        W24152  17.433  17.071   4.139  0.1407  0.0275 -0.0639
 3873W        W24153  10.094   7.734  15.529  0.1085  0.1962 -0.2636
 3874W        W24154  17.032   2.371   1.379  0.0750  0.0803  0.2314
 3875W        W24155   8.721  15.181  16.561  0.0477  0.1344 -0.0481
 3876W        W24156  10.976  12.550   4.035 -0.0413 -0.3462 -0.0760
 3877W        W24157  16.767   7.825  12.163 -0.2029  0.1240 -0.4072
 3878W        W24158  12.611   3.595  14.663 -0.2681 -0.0483 -0.0852
 3879W        W24159  15.748   9.679  12.359  0.1364  0.0185  0.1511
 3880W        W24160   5.129  16.683   3.496  0.0340 -0.1466  0.1635
 3881W        W24161   9.711  13.507  14.081 -0.0257 -0.0180  0.1686
 3882W        W24162   0.847   4.426  16.496 -0.1762  0.2492 -0.1894
 3883W        W24163   4.294   0.259   4.673  0.1248 -0.0293  0.1371
 3884W        W24164  14.770   5.269  14.454 -0.0184  0.2843 -0.0981
 3885W        W24165   4.778   2.448  15.766 -0.2902 -0.1588 -0.1089
 3886W        W24166   3.354   6.304  15.091  0.3721 -0.1949 -0.2503
 3887W        W24167  11.626   5.163  13.085  0.2412 -0.0646 -0.0116
 3888W        W24168   6.905   3.671   3.474 -0.1918 -0.0884 -0.1779
 3889W        W24169  10.930   0.894   4.072 -0.2564 -0.1024  0.0873
 3890W        W24170   6.095   0.282  13.997 -0.1269 -0.1956  0.1336
 3891W        W24171  16.162   2.624   2.357  0.1230  0.1137 -0.1468
 3892W        W24172  17.301   8.220   1.613  0.0260  0.1320 -0.2089
 3893W        W24173   5.784   7.541  14.865  0.1066  0.1443  0.0561
 3894W        W24174  12.874   6.203  16.094  0.0510 -0.1234 -0.0558
 3895W        W24175  11.651   0.039   3.087 -0.2048 -0.0722  0.0781
 3896W        W24176  10.908   4.823   1.337  0.0166 -0.2982  0.1584
 3897W        W24177   2.577  17.322  12.680 -0.1997  0.0231 -0.0134
 3898W        W24178   8.783  10.743   4.051  0.1136 -0.2253 -0.1279
 3899W        W24179  12.729  14.778  14.690  0.0030  0.0472  0.0678
 3900W        W24180   3.773  11.886   1.909 -0.2013 -0.4296  0.1600
 3901W        W24181   8.612   6.079   3.704  0.0111 -0.1329  0.1671
 3902W        W24182  11.255   5.951  15.410 -0.1956 -0.0442 -0.0049
 3903W        W24183   4.253   9.389   0.758  0.3638 -0.3397 -0.1234
 3904W        W24184   1.583   3.414  12.548  0.0867 -0.1166  0.0598
 3905W        W24185  16.208  15.942   2.475  0.1759 -0.0058  0.1499
 3906W        W24186   5.117  13.696   1.804  0.0239  0.1025  0.2469
 3907W        W24187   8.818  14.993   3.025  0.0438  0.1448 -0.2864
 3908W        W24188  10.490  10.715   2.497 -0.0646  0.0012 -0.0376
 3909W        W24189   6.792   0.842   0.471 -0.0009 -0.0555 -0.1286
 3910W        W24190  11.840  14.571   1.791 -0.3252  0.0893 -0.1852
 3911W        W24191   8.007   6.940  12.876  0.2405  0.1266 -0.0128
 3912W        W24192   7.596  10.808  15.130 -0.1218  0.0322 -0.2499
 3913W        W24193  13.079  11.414  14.942 -0.0346 -0.0152 -0.0301
 3914W        W24194  12.869  14.011   1.065 -0.0107 -0.1442 -0.1324
 3915W        W24195  12.996   5.408  13.978  0.0880  0.0300  0.0985
 3916W        W24196  13.350   1.319  13.297  0.0734  0.1348  0.2414
 3917W        W24197   1.136   6.955   3.043  0.0855 -0.0184 -0.0927
 3918W        W24198  16.678  11.987  11.862 -0.2001 -0.1055  0.1571
 3919W        W24199   9.018   7.028   3.532 -0.0450 -0.0933  0.1312
 3920W        W24200   6.704  14.008  13.395 -0.1621  0.0646 -0.1224
 3921W        W24201  12.242   9.218   4.924 -0.0050  0.1094  0.0518
 3922W        W24202   0.152   0.039  13.019  0.1171 -0.0036 -0.2200
 3923W        W24203  10.282   7.840   4.197  0.0609 -0.1983  0.1253
 3924W        W24204  16.041   7.160   2.360 -0.2026 -0.2132  0.3195
 3925W        W24205   4.115  14.335   1.099  0.1254 -0.3295 -0.0325
 3926W        W24206  12.640   1.221  13.834  0.1376 -0.2605 -0.1876
 3927W        W24207  10.507   1.730   0.022  0.3930 -0.1035 -0.1076
 3928W        W24208  17.557  10.790   2.287  0.1942 -0.2869 -0.2474
 3929W        W24209  17.416   9.248  12.198 -0.0021  0.1006  0.0840
 3930W        W24210   3.614  16.779   1.439 -0.1853 -0.3725 -0.0313
 3931W        W24211  12.268   1.433   2.127 -0.2826 -0.1998  0.1143
 3932W        W24212  16.389  17.244   3.232 -0.0222 -0.0951 -0.3564
 3933W        W24213   0.856   2.880  13.936 -0.1101 -0.0503  0.1588
 3934W        W24214   8.647   0.413   1.126 -0.2083 -0.1285  0.5129
 3935W        W24215   7.613   3.661   4.551 -0.3006  0.0855  0.1307
 3936W        W24216   5.732   6.736  16.233 -0.2366  0.2473 -0.2577
 3937W        W24217   0.467  10.600  12.341  0.1142  0.0103  0.0408
 3938W        W24218   8.734   4.857  13.872  0.0524 -0.0989  0.4636
 3939W        W24219   6.037   0.511   1.579  0.1312 -0.1138 -0.2199
 3940W        W24220  15.083  11.239  13.234  0.1547 -0.1864 -0.2212
 3941W        W24221   8.399  10.158  12.440 -0.1368 -0.0316 -0.0794
 3942W        W24222  11.311   9.018   0.827  0.0193 -0.3735 -0.3022
 3943W        W24223   4.477  10.931  12.556  0.0334  0.2474  0.1356
 3944W        W24224   7.660   4.484   2.385 -0.3323 -0.0421  0.1687
 3945W        W24225   8.967  16.144  12.548 -0.3863  0.0623 -0.0331
 3946W        W24226  10.740   5.868  15.600 -0.2628  0.1589 -0.0966
 3947W        W24227   4.174   3.366   3.529  0.0387 -0.0834  0.0071
 3948W        W24228   1.855   7.433   5.060  0.2025  0.2036 -0.0378
 3949W        W24229   4.040   8.444   3.503  0.3388  0.0215 -0.3194
 3950W        W24230   8.452   7.998  14.628  0.0875  0.2480  0.1964
 3951W        W24231  12.335  16.817  12.122 -0.0955  0.2474 -0.0594
 3952W        W24232   0.113   1.435   0.807  0.0247 -0.0056  0.1577
 3953W        W24233   0.096   7.292  15.661  0.0268  0.1944  0.0090
 3954W        W24234   9.700   4.014   4.164 -0.1577 -0.0845  0.2815
 3955W        W24235   6.167   7.687   0.287  0.0805  0.0269  0.2002
 3956W        W24236   9.264   9.197   1.697 -0.1660 -0.1059  0.1883
 3957W        W24237  13.777   6.970   3.354  0.0743  0.1023  0.0111
 3958W        W24238   9.109  16.618  12.267  0.2687 -0.0211  0.1124
 3959W        W24239   6.443  12.449  13.094 -0.1351 -0.1092 -0.0082
 3960W        W24240   7.082   8.454   2.202 -0.1546  0.2697 -0.1584
 3961W        W24241  10.363   7.400   3.868 -0.0296 -0.1052  0.0133
 3962W        W24242   8.941   3.816  16.602 -0.1068  0.1354 -0.2974
 3963W        W24243  15.183   0.680  12.970  0.1112  0.1253  0.2357
 3964W        W24244  15.526  15.562  12.973  0.1444  0.2535  0.1011
 3965W        W24245   2.258  11.196   3.859 -0.2052 -0.2156 -0.0144
 3966W        W24246   4.253   0.826  16.423  0.1584  0.1673  0.0281
 3967W        W24247  15.005   4.433   3.418  0.2744 -0.2575  0.0544
 3968W        W24248   9.251  16.260   2.925 -0.1532  0.2591 -0.2866
 3969W        W24249  14.382   9.493  12.392 -0.2521  0.0946 -0.0879
 3970W        W24250  12.222   9.616   0.484 -0.2399 -0.1253 -0.1944
 3971W        W24251   1.327  10.157  12.452 -0.2578 -0.1866  0.0702
 3972W        W24252  15.419   0.831   0.579  0.1209  0.1932 -0.0349
 3973W        W24253  12.935   0.485  13.549 -0.0159  0.3678 -0.0559
 3974W        W24254   0.434  16.295  13.331 -0.1061 -0.0689  0.1086
 3975W        W24255   3.425  10.089  15.095 -0.1290 -0.0090  0.1098
 3976W        W24256  13.274   8.894  13.316 -0.0118 -0.1951 -0.3383
 3977W        W24257   1.443  12.961   2.795  0.0248  0.3020  0.2041
 3978W        W24258  11.238  11.278  13.778 -0.0283 -0.2769  0.0253
 3979W        W24259  15.855   2.657  13.838 -0.0303 -0.3517  0.0155
 3980W        W24260  11.270   3.527  13.089  0.0108 -0.1387 -0.2252
 3981W        W24261  17.606   8.085  13.066  0.0995 -0.1694 -0.0518
 3982W        W24262   1.352  12.734   4.623 -0.1213 -0.0971  0.1203
 3983W        W24263  11.295   9.238  15.373  0.1881 -0.1257 -0.0919
 3984W        W24264   5.565   9.632  12.882 -0.2656  0.3458 -0.1824
 3985W        W24265  10.641   7.222  11.915 -0.1970  0.1530 -0.2919
 3986W        W24266   5.777   7.047   1.938 -0.1412  0.0631  0.1078
 3987W        W24267   6.447  12.251   0.990 -0.1766 -0.1621 -0.1266
 3988W        W24268   6.371   5.877   4.160 -0.1678 -0.2335  0.1063
 3989W        W24269  13.601   4.934   4.906 -0.1691  0.0073  0.1714
 3990W        W24270   5.421  10.279  14.178 -0.1242 -0.1245 -0.0935
 3991W        W24271   1.690   2.900   0.299 -0.3595  0.0813 -0.0542
 3992W        W24272   8.599  14.515   3.851 -0.3671 -0.0334  0.1019
 3993W        W24273   8.312   0.522  15.442  0.0257  0.1449  0.0796
 3994W        W24274   5.169   9.400  14.374 -0.0619 -0.0481 -0.5400
 3995W        W24275  15.149   4.052  16.289 -0.1203 -0.2777 -0.1846
 3996W        W24276   9.764  10.658   2.924  0.4397  0.2061  0.1338
 3997W        W24277   5.468   7.487  12.317 -0.0455  0.2719  0.0634
 3998W        W24278   1.736  15.739   0.025 -0.2137 -0.1457 -0.0599
 3999W        W24279   5.044   3.918  14.247 -0.1939 -0.0698  0.1825
 4000W        W24280  12.808  15.587   0.676 -0.1218 -0.0208  0.0739
 4001W        W24281  12.243   3.970  14.737 -0.0014  0.1318 -0.1632
 4002W        W24282   1.527  15.459  16.455 -0.1179 -0.0959 -0.1852
 4003W        W24283  13.176  14.004  14.316 -0.0196  0.0940 -0.3725
 4004W        W24284  17.226  17.275   0.346 -0.0932  0.3364  0.3091
 4005W        W24285  12.635   0.443   3.591 -0.3501 -0.2261  0.2389
 4006W        W24286  15.327   0.121  14.282  0.0225 -0.5370  0.0394
 4007W        W24287   8.124  12.716  15.994  0.2020 -0.2475 -0.3083
 4008W        W24288   1.166   5.119  12.146 -0.1271  0.2156 -0.0444
 4009W        W24289  13.526   5.295  13.307 -0.2839  0.0398  0.1445
 4010W        W24290  11.552   3.756  11.543 -0.0029  0.0333 -0.0113
 4011W        W24291   9.470  14.197   4.515 -0.3259 -0.1181  0.2714
 4012W        W24292  15.537   4.965   3.857  0.0214 -0.1106  0.1211
 4013W        W24293   3.837   6.477  16.264 -0.0720 -0.0167  0.0833
 4014W        W24294   1.208  10.197  13.625  0.2127 -0.2051 -0.2095
 4015W        W24295   0.975   6.373  13.433  0.1131  0.2160  0.1692
 4016W        W24296  15.055  12.608   2.310 -0.0651  0.0745 -0.0557
 4017W        W24297   4.014  15.171   4.515 -0.0784 -0.1101 -0.0273
 4018W        W24298  14.248   5.980   4.648  0.2077  0.0240  0.0751
 4019W        W24299   6.152   9.630   1.514  0.3299 -0.1124  0.1334
 4020W        W24300  15.961  11.483   2.684  0.2060 -0.0940 -0.3695
 4021W        W24301   6.312  12.867  14.630 -0.0247  0.0147 -0.0406
 4022W        W24302   9.650  15.575   3.985  0.3021  0.1016  0.1145
 4023W        W24303  10.134   0.567  11.877 -0.1379  0.1866 -0.3194
 4024W        W24304  11.096  17.020  14.111  0.2397  0.2848  0.3085
 4025W        W24305   1.138  10.483  16.143  0.0033  0.3476  0.2142
 4026W        W24306  10.444   5.203  16.636  0.0984  0.1481 -0.1709
 4027W        W24307   2.889  16.312   4.214 -0.0330 -0.0237  0.1012
 4028W        W24308  15.025  13.097   0.435  0.1418 -0.1515  0.1465
 4029W        W24309   0.390   8.083   2.222  0.2518 -0.0902  0.1053
 4030W        W24310  11.803   9.096  11.701  0.0323 -0.4176 -0.0950
 4031W        W24311   3.302   6.925  12.188  0.1737 -0.1830 -0.1283
 4032W        W24312   8.612   5.211  16.791 -0.1262  0.4026  0.0999
 4033W        W24313  12.309  16.581  13.829 -0.0791  0.2393 -0.1167
 4034W        W24314   0.386   5.245   1.878  0.1634 -0.1850  0.0279
 4035W        W24315   6.390  14.461  13.584  0.3501 -0.1010  0.0768
 4036W        W24316  10.617  14.696  15.503 -0.2126  0.0068  0.0384
 4037W        W24317  12.967   2.783  14.347 -0.4036  0.1283 -0.1672
 4038W        W24318  13.570  13.829  16.754 -0.2005 -0.0278 -0.1200
 4039W        W24319  13.983  17.453  14.896  0.0755 -0.0674  0.0392
 4040W        W24320  17.225   9.435  14.461  0.0039 -0.0716  0.1386
 4041W        W24321  15.668   5.610  13.823 -0.1794 -0.1092 -0.2738
 4042W        W24322   6.741  14.870   1.303 -0.2579 -0.0777 -0.2109
 4043W        W24323   7.373  16.555  15.351 -0.3760  0.0241  0.0300
 4044W        W24324   9.748   1.833  16.101 -0.1521  0.2725  0.2241
 4045W        W24325   9.201  12.689   4.216 -0.0654 -0.0858 -0.2085
 4046W        W24326   2.465  15.265  14.112  0.1753  0.2024  0.2225
 4047W        W24327   4.113  12.817  15.909 -0.2175  0.0944 -0.1196
 4048W        W24328  15.494   1.019  12.783 -0.1259  0.0771  0.1837
 4049W        W24329  16.679   6.777   3.108  0.0584 -0.1193  0.0897
 4050W        W24330   2.505   0.682   0.106 -0.1306  0.2828  0.0333
 4051W        W24331  16.056   9.532   2.550 -0.0352 -0.1680  0.2646
 4052W        W24332   3.500   6.348   1.754 -0.0810  0.1477  0.2601
 4053W        W24333   1.975   7.033  14.115  0.0872 -0.1633  0.2117
 4054W        W24334  14.574   3.118   3.224 -0.2163 -0.1782 -0.1241
 4055W        W24335   4.323   5.880   4.581 -0.1066 -0.1307  0.0209
 4056W        W24336   5.768  13.522  12.383  0.3214 -0.2262  0.0100
 4057W        W24337   0.100   1.448   3.354 -0.1294 -0.3331 -0.0881
 4058W        W24338   7.430   7.946  15.794 -0.2765 -0.0995 -0.1637
 4059W        W24339   8.808  10.414   1.310 -0.0806  0.0984 -0.0504
 4060W        W24340   0.182  10.403   2.915  0.0744 -0.2301  0.0850
 4061W        W24341   0.880  16.758  15.494 -0.1431 -0.0580  0.0938
 4062W        W24342  14.999   9.351  14.421 -0.1717 -0.0395  0.1524
 4063W        W24343   0.004   6.459  16.504  0.0892 -0.2989  0.0022
 4064W        W24344  15.768   2.157  15.774  0.0014  0.3159  0.1523
 4065W        W24345   5.829   8.179  12.666 -0.0055 -0.0835 -0.1402
 4066W        W24346   5.765   2.013   4.603  0.1271  0.1271  0.1548
 4067W        W24347  16.384  10.456   0.866  0.0977 -0.0838 -0.0664
 4068W        W24348  17.556   5.134  13.950  0.1449 -0.0245  0.0898
 4069W        W24349   6.785  11.689   3.560 -0.1898  0.1129  0.0699
 4070W        W24350  15.312   0.128   1.654 -0.1095  0.1427  0.1513
 4071W        W24351  12.088  17.398  16.858 -0.0056  0.2793 -0.1408
 4072W        W24352   5.597   7.491  13.827 -0.0816  0.2153 -0.2108
 4073W        W24353   0.181   6.906  15.973  0.0425 -0.3270  0.1919
 4074W        W24354   5.911  12.745   1.611  0.1365  0.0183 -0.0697
 4075W        W24355   0.053   4.042  14.216 -0.1492  0.0551 -0.0350
 4076W        W24356  13.856   6.949   4.392 -0.1104  0.0328 -0.2879
 4077W        W24357   2.856  15.854   2.280  0.2464  0.0152 -0.0677
 4078W        W24358   9.708  17.631  14.629  0.1521  0.1258 -0.1322
 4079W        W24359   4.963  15.055   2.113  0.0438  0.3352 -0.2938
 4080W        W24360  16.019   9.032   2.411 -0.1783 -0.1159  0.1073
 4081W        W24361   3.469   2.178   1.855  0.2808  0.4259 -0.0938
 4082W        W24362  13.008  14.742   0.529  0.2297  0.1130 -0.3919
 4083W        W24363  13.925   3.542  15.364  0.0762 -0.2436  0.3409
 4084W        W24364   4.123   8.600   1.258  0.0632 -0.1046  0.0085
 4085W        W24365   1.993  17.588   0.744  0.3792 -0.1459  0.2240
 4086W        W24366  17.551   0.876   2.823 -0.1759 -0.0254  0.0665
 4087W        W24367   5.146   4.232   0.850  0.4074 -0.2381  0.1709
 4088W        W24368  16.980  16.736   4.176  0.0960 -0.1852  0.1002
 4089W        W24369   4.934   8.465  16.399 -0.0221 -0.0899  0.3919
 4090W        W24370  10.523   3.085  12.280  0.1560 -0.0370 -0.0512
 4091W        W24371   0.365   7.149   0.492 -0.2437  0.0215  0.0070
 4092W        W24372  13.266  15.860   4.520 -0.0294 -0.1134 -0.0096
 4093W        W24373  11.135  16.272  13.492  0.1662 -0.0039  0.0467
 4094W        W24374   7.138  14.879   3.480 -0.0879  0.1403 -0.0333
 4095W        W24375  12.966  10.300   0.369 -0.0136  0.0642  0.2084
 4096W        W24376  15.680  17.597   0.907 -0.1869 -0.1446 -0.0368
 4097W        W24377   4.243   3.857   3.762 -0.1172  0.1017  0.1363
 4098W        W24378   3.266   6.869   1.882  0.1034  0.3524  0.2340
 4099W        W24379   0.495   2.361   0.842  0.2080 -0.1595 -0.2457
 4100W        W24380  11.691  10.748   2.917  0.1064  0.0912  0.1303
 4101W        W24381   5.970   2.108   3.744  0.1098 -0.1498 -0.0065
 4102W        W24382   6.005  11.712   3.359 -0.2423  0.0336 -0.0618
 4103W        W24383  13.972   5.590   3.984 -0.0094  0.2664 -0.0527
 4104W        W24384   8.354   6.890  13.941 -0.3546  0.1387 -0.0371
 4105W        W24385   6.223  17.532  12.165  0.0103 -0.2537 -0.1126
 4106W        W24386  17.579  15.797   4.852  0.0678 -0.1075 -0.0534
 4107W        W24387  14.331  15.776  15.134  0.2701 -0.1874  0.1180
 4108W        W24388  15.958   3.584  16.828 -0.0930 -0.0451 -0.1527
 4109W        W24389  12.921  16.173  12.363 -0.1413 -0.0281  0.1537
 4110W        W24390  16.817  11.435   3.165  0.1333 -0.0450  0.0708
 4111W        W24391  16.462  17.216  16.821  0.0097 -0.2807  0.0137
 4112W        W24392  13.725  17.729   0.626 -0.2296 -0.2287  0.1274
 4113W        W24393   2.082   4.513   0.965 -0.0847  0.0862 -0.0204
 4114W        W24394  15.510  15.667   1.700 -0.0998 -0.3497 -0.0768
 4115W        W24395  14.249  14.072   4.333  0.1782 -0.1863 -0.0407
 4116W        W24396   7.956   6.872   2.618 -0.2346  0.1105 -0.0309
 4117W        W24397   3.284  17.682   2.463 -0.0769 -0.2354 -0.0344
 4118W        W24398  12.300   8.882  13.615  0.4667  0.0426 -0.3136
 4119W        W24399  12.676   7.722   0.245  0.2482  0.2799  0.3157
 4120W        W24400  15.145   9.339   2.168 -0.2953 -0.0685 -0.2457
 4121W        W24401   3.587  13.270  12.850  0.0202  0.0798  0.0734
 4122W        W24402   7.115   0.158   1.535 -0.2129 -0.0544  0.0782
 4123W        W24403   3.845   5.218   0.561  0.1747 -0.2145 -0.1729
 4124W        W24404   0.486   1.588  12.806 -0.0474  0.0520  0.4068
 4125W        W24405   1.421   8.125   4.711  0.0216  0.0726  0.0929
 4126W        W24406  11.946   1.894   3.990  0.1468 -0.2218 -0.1524
 4127W        W24407   4.049   2.257   0.064 -0.0970  0.1140  0.3892
 4128W        W24408  10.003   2.136  15.028  0.0349  0.1289 -0.1918
 4129W        W24409   6.412   6.795   4.702 -0.0796 -0.0157 -0.0344
 4130W        W24410   2.558   1.546   4.780 -0.1647  0.2222 -0.1191
 4131W        W24411   9.207   5.033  14.059 -0.0596  0.2827 -0.1326
 4132W        W24412   6.204  16.161   0.379 -0.1848 -0.2050 -0.5041
 4133W        W24413  16.461  11.345   1.834 -0.2541  0.0740  0.1404
 4134W        W24414   7.421  15.017  15.368  0.2790 -0.2309 -0.3624
 4135W        W24415  15.620   1.181   4.577 -0.1751  0.0706 -0.0356
 4136W        W24416  17.398   2.042  15.442 -0.2401  0.1298 -0.3164
 4137W        W24417   8.178  15.216   2.579  0.3111 -0.0052 -0.2029
 4138W        W24418   8.587  14.513   1.403  0.0084  0.2429 -0.2830
 4139W        W24419  10.133   2.850   3.366  0.0284  0.0559 -0.0292
 4140W        W24420   0.671   0.597  14.524  0.2356 -0.0325  0.0495
 4141W        W24421  15.249  16.520  15.449  0.0892 -0.1446 -0.0609
 4142W        W24422   9.649  10.370   2.250  0.0345  0.0346  0.1665
 4143W        W24423   2.491  10.294   4.462  0.1877  0.0496 -0.0096
 4144W        W24424   3.491   1.327   4.296 -0.3398  0.0326 -0.0039
 4145W        W24425   5.325   5.219   1.745 -0.1893  0.0792 -0.1142
 4146W        W24426   0.077  14.912   0.281 -0.0021  0.3082  0.1144
 4147W        W24427  16.008  14.048  13.088  0.0325 -0.1038 -0.0668
 4148W        W24428  14.317  17.109  14.676 -0.0309 -0.1456 -0.0038
 4149W        W24429   6.168   0.038  15.844 -0.0522 -0.3980  0.3399
 4150W        W24430  15.062  16.685   1.183 -0.0600  0.3620 -0.0616
 4151W        W24431   6.873  12.604  13.281 -0.1424  0.2726 -0.0849
 4152W        W24432   4.159  14.309   4.398  0.0226 -0.2260  0.2016
 4153W        W24433   2.370   9.087   2.069  0.0499  0.2586  0.1092
 4154W        W24434   0.649  10.624  16.081 -0.2772 -0.2568  0.0148
 4155W        W24435  17.697   9.877   3.024  0.1819 -0.1076  0.0132
 4156W        W24436  14.551   2.422   4.849 -0.0538  0.1687 -0.3270
 4157W        W24437  15.345  15.762   4.541  0.1801  0.1202 -0.0173
 4158W        W24438   8.797   3.030  15.672  0.2048  0.0832 -0.2670
 4159W        W24439  14.404  11.549   3.641 -0.1316 -0.0039 -0.1422
 4160W        W24440   5.502  14.238   0.845 -0.1490 -0.1364  0.0453
 4161W        W24441   2.942   6.162  16.339 -0.0310 -0.0874  0.2267
 4162W        W24442   1.370   4.957   1.976  0.3391  0.0504 -0.2645
 4163W        W24443  11.894   2.328   3.156  0.1449 -0.3114 -0.2599
 4164W        W24444  15.582   6.928   3.219 -0.1555  0.1346  0.0579
 4165W        W24445  14.327  12.880  12.921 -0.0005  0.0768  0.1690
 4166W        W24446   3.010   4.696  14.822  0.1867  0.0644  0.2740
 4167W        W24447  14.902   9.600  12.481 -0.2096 -0.1294 -0.0953
 4168W        W24448  15.364  13.306  14.779 -0.1170 -0.0773 -0.2005
 4169W        W24449   9.919  13.942  13.841  0.3319 -0.2252  0.0612
 4170W        W24450   6.529   2.050  15.860 -0.1072  0.0214  0.1621
 4171W        W24451  13.398  16.000  15.411 -0.1196  0.0278 -0.0891
 4172W        W24452  12.456   1.609  13.593  0.0021 -0.1787  0.0717
 4173W        W24453   3.775  12.186  14.598  0.0659 -0.2340  0.2426
 4174W        W24454   0.428   7.820   1.285  0.2027 -0.3430 -0.0765
 4175W        W24455  11.684   5.953  15.743  0.2198  0.1575  0.1903
 4176W        W24456  13.179   4.728   4.062 -0.1323  0.0331  0.1050
 4177W        W24457   8.288   3.976  12.766  0.1718 -0.2510 -0.2986
 4178W        W24458   5.667  17.294   2.357  0.0363 -0.1428 -0.0228
 4179W        W24459   9.845   5.609  12.122 -0.2304 -0.0135  0.1091
 4180W        W24460   6.147   7.733  13.045 -0.1061 -0.1871  0.2985
 4181W        W24461   6.912   8.522   0.028 -0.3511  0.2447  0.2787
 4182W        W24462   4.307  14.587   1.525 -0.4830  0.0418  0.0546
 4183W        W24463  12.701   2.955   3.023 -0.1674 -0.0344 -0.0982
 4184W        W24464   0.714   8.323   0.805  0.0367 -0.1837 -0.0087
 4185W        W24465   6.595   5.166   4.816 -0.0718  0.0775  0.2336
 4186W        W24466   3.196   4.005  15.760 -0.0787 -0.1721  0.1299
 4187W        W24467  16.190  12.504  12.412 -0.1995  0.4288  0.2203
 4188W        W24468  10.172   2.074   3.739  0.0604  0.0643  0.1154
 4189W        W24469  15.198   4.893   2.558  0.1260  0.4195 -0.0161
 4190W        W24470   9.040   1.107  12.506  0.1499 -0.0084  0.0376
 4191W        W24471   5.036   0.709  15.016 -0.1367 -0.3433  0.1460
 4192W        W24472  12.750   4.004   0.898 -0.2884  0.3245  0.1448
 4193W        W24473  13.733  15.834  13.158 -0.1965 -0.1513 -0.0337
 4194W        W24474  14.576   8.923  16.421 -0.2182 -0.1661  0.0957
 4195W        W24475   1.752  12.902  13.786 -0.0926 -0.0271 -0.1451
 4196W        W24476   0.884   2.544   2.151  0.4577 -0.6800  0.0243
 4197W        W24477   3.514  17.323   0.431  0.0362  0.1980 -0.0257
 4198W        W24478   4.577   3.105  14.037  0.4525  0.1320 -0.1608
 4199W        W24479   4.644  13.149   0.749 -0.0713 -0.1768  0.1325
 4200W        W24480   7.466  14.998  11.785  0.0353  0.1156  0.2239
 4201W        W24481  17.311  13.539   3.046  0.1389 -0.0595  0.4004
 4202W        W24482  15.404   0.051   3.918 -0.1266 -0.0552 -0.1546
 4203W        W24483  10.826   1.670   1.405 -0.0190 -0.2040  0.1749
 4204W        W24484  15.346   1.344   0.606 -0.1493  0.1475 -0.0486
 4205W        W24485  13.259   1.794  16.886  0.1503  0.0732  0.2093
 4206W        W24486   1.584  10.324  13.986 -0.2091  0.2484 -0.1821
 4207W        W24487   7.844   6.426  15.166 -0.0332  0.0721  0.1306
 4208W        W24488  12.580  16.435   4.946 -0.0283 -0.1872  0.3616
 4209W        W24489   5.165   2.066   2.350  0.1655  0.1678 -0.1387
 4210W        W24490   1.598   6.477  15.909  0.1819  0.0594  0.3575
 4211W        W24491  16.016  16.075   0.960 -0.1101  0.1906  0.1437
 4212W        W24492   3.772   9.290   4.326  0.1221  0.1009  0.3081
 4213W        W24493  13.521   4.233  15.553 -0.0943 -0.1101  0.1505
 4214W        W24494  14.170   1.759   2.439 -0.1521  0.2634 -0.0923
 4215W        W24495  13.177   7.203  15.288 -0.1675  0.0217 -0.3693
 4216W        W24496   2.457  17.168  16.832  0.2059 -0.2870  0.0680
 4217W        W24497   4.045   1.415   4.609  0.0003 -0.2494  0.0281
 4218W        W24498  11.618   7.213  13.489 -0.1379  0.0232  0.3559
 4219W        W24499  16.646  13.439  13.930  0.0989 -0.0526  0.0852
 4220W        W24500  17.219  10.197  14.773 -0.0268  0.1395 -0.1194
 4221W        W24501   3.353   6.861  14.751 -0.0791 -0.1767  0.3602
 4222W        W24502   9.526  11.228   0.640  0.0517 -0.1599  0.0758
 4223W        W24503  15.390  11.269  14.447 -0.0722  0.2802  0.0182
 4224W        W24504  11.743   5.701   3.149 -0.4641 -0.2199  0.2986
 4225W        W24505  12.664  16.710   3.476 -0.1370  0.3049  0.1527
 4226W        W24506   7.640   4.947   2.594  0.2590  0.0075 -0.3957
 4227W        W24507  12.631   3.527   0.553 -0.0659 -0.1375 -0.1588
 4228W        W24508  10.322   6.071   0.828  0.2091  0.1599 -0.0669
 4229W        W24509  16.678   3.087   1.799  0.3772  0.1545 -0.1107
 4230W        W24510   3.881   9.776  14.778  0.2919 -0.2310  0.4796
 4231W        W24511  14.235  16.270   0.693  0.1402  0.4402  0.1089
 4232W        W24512   4.979  13.286  13.662  0.0206  0.2720 -0.1686
 4233W        W24513   1.129  16.772  13.383  0.0616 -0.0457  0.0968
 4234W        W24514  14.415  17.397   2.449 -0.0949  0.0335 -0.0077
 4235W        W24515  16.339   4.316  13.682  0.2438  0.1100  0.2807
 4236W        W24516   4.320   4.419   0.775  0.1820  0.0139  0.1226
 4237W        W24517   9.291   4.546   3.404  0.1585  0.1020  0.0943
 4238W        W24518   3.960   4.470   3.316  0.0964 -0.0236 -0.1714
 4239W        W24519  14.503   6.534   3.225  0.1776 -0.2163  0.1382
 4240W        W24520  10.904  10.516  13.244 -0.1652  0.3001  0.1395
 4241W        W24521   5.877  15.731   0.206 -0.0758 -0.3812  0.1831
 4242W        W24522  15.137   5.329   2.323 -0.0382  0.0125 -0.0079
 4243W        W24523  16.118  12.031  14.188  0.0860 -0.4584  0.2468
 4244W        W24524  15.900  11.410  16.459 -0.2187 -0.1117 -0.0006
 4245W        W24525   1.247  15.848   3.272 -0.2218 -0.2348  0.0902
 4246W        W24526   3.896  16.019   4.347 -0.0269 -0.1479  0.0175
 4247W        W24527   6.166  16.999  12.050 -0.2854 -0.0722  0.1431
 4248W        W24528  15.457   0.479   5.064 -0.1672  0.2317 -0.0127
 4249W        W24529  10.489   7.647   0.109  0.0778  0.0387 -0.1428
 4250W        W24530   0.110  17.091   1.915  0.1119 -0.0649 -0.0884
 4251W        W24531   1.043   8.395  11.929 -0.1107  0.4124 -0.0589
 4252W        W24532   1.714   4.398   4.001 -0.1527  0.1294 -0.2069
 4253W        W24533   7.497   0.458   4.805 -0.1042 -0.0786 -0.0722
 4254W        W24534   5.622  11.452   0.058  0.0893 -0.2111  0.0342
 4255W        W24535   1.141   4.156  12.627 -0.0749 -0.1722 -0.2650
 4256W        W24536  17.467  11.145  16.104  0.0103  0.0084  0.3521
 4257W        W24537   7.681   3.010  13.074  0.0147 -0.1748 -0.0893
 4258W        W24538   0.007  16.617  14.554 -0.1844 -0.0791  0.1693
 4259W        W24539   1.676   5.657  15.760  0.0984 -0.1020  0.2444
 4260W        W24540   4.072   3.449   3.018  0.0114  0.0319 -0.0228
 4261W        W24541   3.438   9.013  10.896  0.2072 -0.2259  0.0814
 4262W        W24542   6.060   5.666  12.291  0.1357 -0.0282 -0.0749
 4263W        W24543  16.890  15.645   3.190 -0.1834 -0.2729 -0.2556
 4264W        W24544   3.440   8.813   2.738  0.1582 -0.2101  0.1095
 4265W        W24545  16.781   7.877   0.160  0.0973  0.3777 -0.2645
 4266W        W24546   2.769  15.914  14.461 -0.2468 -0.0673  0.1645
 4267W        W24547   6.969   3.017  12.793  0.1698 -0.3518  0.1551
 4268W        W24548   9.194   9.956  12.291  0.0521 -0.0030  0.3437
 4269W        W24549   9.594  13.575  13.579 -0.1670 -0.1291  0.1922
 4270W        W24550  12.030  15.639   0.145  0.1325 -0.1294  0.4304
 4271W        W24551   8.552   5.938   1.186 -0.1025 -0.2261  0.1650
 4272W        W24552   2.214   5.578  15.762 -0.0174  0.0018 -0.0491
 4273W        W24553  13.053  16.016   1.577  0.4637 -0.0456 -0.1092
 4274W        W24554  10.312  17.019  15.327 -0.0226  0.0309  0.0897
 4275W        W24555   0.312  13.505  13.985 -0.2490  0.1606 -0.1497
 4276W        W24556  10.794   2.089   0.115  0.2140 -0.1631  0.0170
 4277W        W24557  15.447   3.123   4.351  0.0902 -0.0409  0.0550
 4278W        W24558   0.700   1.103   2.464  0.0825 -0.1101 -0.0979
 4279W        W24559   7.630   4.721  12.599  0.1739 -0.1496  0.0792
 4280W        W24560   5.788  10.975   1.316  0.0978  0.0427 -0.1229
 4281W        W24561   4.659  12.936   0.290  0.0256  0.1458 -0.1017
 4282W        W24562  11.842   0.579   0.950 -0.1341 -0.1271 -0.2715
 4283W        W24563   5.782  13.868  15.946  0.0126 -0.1256  0.1029
 4284W        W24564  16.888   6.947   1.339 -0.0093 -0.1643 -0.0933
 4285W        W24565  15.447   4.066  12.061  0.0898  0.0255 -0.3409
 4286W        W24566   6.428   2.630  16.720 -0.0310  0.1753  0.2236
 4287W        W24567  15.068   2.226  14.984  0.1214  0.1257  0.1482
 4288W        W24568   0.668   4.818  16.091  0.2019  0.3219  0.2728
 4289W        W24569  11.354   7.697   1.382 -0.0340 -0.0357  0.0267
 4290W        W24570   1.728  16.680   1.994 -0.2039  0.0001  0.2963
 4291W        W24571   6.359  16.696  13.230 -0.1936 -0.0204  0.0550
 4292W        W24572  14.598   1.753   3.780  0.0185  0.1169  0.0703
 4293W        W24573  11.354   9.709  12.711 -0.2922 -0.1099  0.1186
 4294W        W24574   2.612  13.696   1.023 -0.2083 -0.0322  0.0654
 4295W        W24575  14.339  14.079   2.044 -0.0263 -0.0823  0.1868
 4296W        W24576  12.697   9.243  14.504  0.4442 -0.2075  0.2289
 4297W        W24577   6.155  11.346  14.627  0.3769 -0.0661 -0.0882
 4298W        W24578  14.291  11.986   3.173 -0.0228 -0.0560 -0.5366
 4299W        W24579  17.685  11.558  12.996  0.1366 -0.1248 -0.0003
 4300W        W24580  16.932  11.214  15.095  0.1114 -0.1018 -0.1794
 4301W        W24581   3.856  14.703   4.393  0.1572  0.3406 -0.0399
 4302W        W24582   9.987  17.478   2.070  0.1184  0.0061  0.0929
 4303W        W24583   0.985   5.855   0.115 -0.1026  0.0663  0.0815
 4304W        W24584  16.188  15.395  13.797  0.0644  0.0445 -0.0864
 4305W        W24585   7.310  12.960   2.370 -0.0042 -0.1123 -0.2194
 4306W        W24586  15.196   6.600   1.563 -0.0566 -0.1026 -0.2155
 4307W        W24587  14.945  17.067  14.739 -0.2115 -0.1745  0.0762
 4308W        W24588   6.961   8.652   0.540 -0.1796  0.0170 -0.0273
 4309W        W24589  14.123  11.530   1.394 -0.0641  0.2012  0.2249
 4310W        W24590   2.669  12.806   0.378  0.1145 -0.2366  0.0304
 4311W        W24591   3.663   3.469   0.015 -0.0117 -0.0163  0.0227
 4312W        W24592   5.627   6.427  12.303  0.1562 -0.3231 -0.0168
 4313W        W24593   0.754  16.559   0.539 -0.0148 -0.1527  0.0786
 4314W        W24594   4.814   0.517  14.538  0.0285  0.0691  0.0974
 4315W        W24595  11.490   6.649  15.376 -0.2562 -0.1026 -0.1400
 4316W        W24596  15.064   8.942  16.448 -0.1647 -0.0139  0.1075
 4317W        W24597  14.196   4.691   3.896  0.2905  0.0172 -0.0802
 4318W        W24598   5.581  12.406   0.130 -0.2335 -0.0148 -0.0177
 4319W        W24599   9.004  16.979  16.063  0.4454 -0.1307 -0.0672
 4320W        W24600   9.826   8.878   2.551  0.1401  0.1558  0.0547
 4321W        W24601  16.680  12.760  12.271  0.1643  0.0876  0.0850
 4322W        W24602   6.695   5.987  14.553  0.3274 -0.1142  0.1986
 4323W        W24603  12.265  11.553   1.154 -0.1224  0.1544 -0.3303
 4324W        W24604   9.221  12.203  12.590  0.2571  0.3177 -0.1166
 4325W        W24605   0.370  12.391   4.099  0.0084  0.0653  0.1193
 4326W        W24606   2.991   9.697   1.553  0.3872  0.0868 -0.1665
 4327W        W24607   8.703   1.975  13.260 -0.2118 -0.0856  0.1468
 4328W        W24608   6.852  12.884  12.188 -0.1818  0.2442 -0.0375
 4329W        W24609  11.206  14.922   2.022 -0.2409  0.1529  0.0687
 4330W        W24610  11.532   0.813  15.992 -0.3127 -0.1693 -0.0507
 4331W        W24611   4.038   5.245  14.205 -0.0157  0.0280  0.3233
 4332W        W24612   8.724   6.131  12.968 -0.1937  0.0366 -0.1708
 4333W        W24613   5.083   6.817  14.307 -0.2504  0.3651  0.1514
 4334W        W24614  14.698   9.369  15.405 -0.0866 -0.0779  0.1684
 4335W        W24615  11.283   3.391   2.749 -0.0633  0.0484  0.3596
 4336W        W24616  13.491  11.052  14.043 -0.0968  0.1650  0.0067
 4337W        W24617   6.034   4.776   1.254  0.1202  0.2320  0.2925
 4338W        W24618  13.724  13.021   1.360  0.2196  0.0613  0.1390
 4339W        W24619  12.591   1.158   3.019  0.1663  0.3756  0.3026
 4340W        W24620  10.918  17.407   1.197  0.0595  0.2936 -0.1376
 4341W        W24621   7.069   3.029   0.381 -0.1336  0.0894 -0.2605
 4342W        W24622   5.440  12.587  13.275 -0.4866 -0.1121 -0.0834
 4343W        W24623   3.498  11.882   3.967  0.0661  0.0044 -0.1591
 4344W        W24624   5.151  17.482  13.987  0.1264  0.1197  0.1849
 4345W        W24625   7.585  17.169  15.203 -0.1955 -0.0826 -0.0744
 4346W        W24626   8.436   4.446   2.857 -0.1926  0.0538  0.0405
 4347W        W24627  12.854   5.191  15.532 -0.5311  0.0821  0.0381
 4348W        W24628  13.963   2.006   1.565 -0.1551  0.0156 -0.2808
 4349W        W24629   2.789   4.376  12.107  0.0518  0.1623  0.0741
 4350W        W24630   1.012   2.274  12.227  0.3194  0.1154 -0.3026
 4351W        W24631   1.659   7.860   2.350  0.0908 -0.0212  0.1359
 4352W        W24632  11.293   9.180  14.868 -0.2051 -0.0042 -0.0026
 4353W        W24633   3.053  13.494  13.561 -0.2599 -0.2389 -0.2060
 4354W        W24634  17.210   3.244  16.290  0.1173 -0.1197 -0.3118
 4355W        W24635  17.214   0.981   2.024 -0.0139 -0.1765 -0.2429
 4356W        W24636   8.347   6.364   1.062  0.2048  0.0396 -0.2545
 4357W        W24637  16.797   5.592  12.893 -0.1554 -0.0858  0.0121
 4358W        W24638   3.245   0.681   2.953  0.0364  0.0794  0.0294
 4359W        W24639   0.307   3.701   1.510  0.2411 -0.0090 -0.2146
 4360W        W24640  16.358  16.899  13.317  0.0363  0.3973 -0.0840
 4361W        W24641   1.315   4.638   3.169 -0.0834  0.0976 -0.1311
 4362W        W24642  12.751  14.418   4.119 -0.2636 -0.0102  0.1125
 4363W        W24643  16.060  13.053  15.470 -0.0381 -0.1756 -0.1371
 4364W        W24644   7.038  17.421  15.136  0.0081  0.0768  0.0986
 4365W        W24645   4.841   7.978  16.191 -0.1553  0.1164  0.0333
 4366W        W24646   0.592   7.166  15.754 -0.1941 -0.0902 -0.1758
 4367W        W24647  16.645   1.055  11.310 -0.0450 -0.2408  0.0563
 4368W        W24648   3.019  11.048   0.673  0.1867  0.1292 -0.1403
 4369W        W24649  14.487   3.279   1.084 -0.5261  0.3460  0.2071
 4370W        W24650   0.015   2.085   3.885  0.2671 -0.1751 -0.0947
 4371W        W24651  16.395   8.636  15.945 -0.4882  0.0601 -0.2540
 4372W        W24652  17.602  12.163   1.361 -0.0746  0.3270 -0.1883
 4373W        W24653   5.917   3.355   3.298  0.0855  0.0813  0.1135
 4374W        W24654   4.778   4.857  13.059 -0.2450  0.1673  0.2110
 4375W        W24655  13.518   6.146   2.213 -0.1557 -0.1022  0.0548
 4376W        W24656   9.736  16.475   4.111  0.1344 -0.1655  0.1646
 4377W        W24657   8.196  11.161  16.885 -0.1409  0.0724  0.0900
 4378W        W24658  10.793   1.540  14.655  0.0162  0.1660 -0.0261
 4379W        W24659  11.466   4.192   1.757 -0.0690 -0.0802 -0.2049
 4380W        W24660   5.206   6.465   0.157  0.0303 -0.2660 -0.0499
 4381W        W24661   1.611   4.062  13.932 -0.0555  0.0260  0.0609
 4382W        W24662  14.644  17.209  12.910 -0.2890 -0.1659 -0.1471
 4383W        W24663   0.823  16.525   1.502 -0.2320 -0.1638 -0.0489
 4384W        W24664  14.096   6.451   4.468 -0.1936  0.1572  0.1398
 4385W        W24665  15.226   9.923  13.132  0.0941  0.1841  0.0690
 4386W        W24666   3.971   2.285  15.172 -0.0926  0.2058  0.1290
 4387W        W24667   8.473  10.702  16.820 -0.1059 -0.1377  0.0106
 4388W        W24668   8.056   8.279  14.860 -0.2972 -0.0076 -0.0088
 4389W        W24669  14.994  15.843  13.853 -0.2359  0.1459 -0.2614
 4390W        W24670  14.596  12.969   2.984 -0.0837  0.3546  0.0003
 4391W        W24671  10.574   2.751  16.359 -0.1308 -0.1301 -0.0531
 4392W        W24672  12.763  11.730  14.596 -0.3659  0.0363  0.1227
 4393W        W24673   5.851   9.334  13.191 -0.0472  0.0586 -0.0245
 4394W        W24674  14.861   2.689   2.264  0.1402 -0.0328 -0.1308
 4395W        W24675   3.656  10.116   1.583 -0.1247  0.3253  0.2873
 4396W        W24676  17.097   8.880   0.253 -0.3136 -0.1094 -0.3082
 4397W        W24677   9.032  16.635   3.274 -0.0326 -0.3794 -0.0753
 4398W        W24678  12.805   7.507   1.842 -0.0387  0.1276  0.3801
 4399W        W24679  11.695   8.440  13.343 -0.0329 -0.0087  0.1024
 4400W        W24680  10.627  10.846  15.862  0.1896  0.1896  0.3438
 4401W        W24681   7.206  12.986   4.002  0.0470 -0.2586  0.4800
 4402W        W24682   0.646  15.203  13.626 -0.1368  0.2034 -0.1912
 4403W        W24683  13.643   7.905  14.201  0.0565 -0.1030 -0.0481
 4404W        W24684   3.436   8.243   2.756 -0.3074  0.0897  0.0542
 4405W        W24685   2.102   1.127  14.672 -0.0668  0.1251 -0.0490
 4406W        W24686   4.941  13.174   3.797 -0.0362  0.4705 -0.1099
 4407W        W24687   5.624   8.689   3.861  0.2267 -0.1157 -0.2114
 4408W        W24688   6.974   3.430  13.445 -0.0205  0.0397  0.2908
 4409W        W24689   6.446  17.073   4.769 -0.3498 -0.0708 -0.0590
 4410W        W24690  16.181   3.362   2.541 -0.2316  0.0038  0.0004
 4411W        W24691   1.892   0.691  13.026  0.1314 -0.1541  0.2075
 4412W        W24692  17.323  15.848   3.433 -0.1454  0.1648  0.0161
 4413W        W24693  12.877  17.068  14.258 -0.1141  0.0576  0.1796
 4414W        W24694  13.380   2.094  15.775 -0.0368  0.2847  0.3032
 4415W        W24695  12.615  12.664   4.284 -0.0532 -0.3055 -0.0269
 4416W        W24696  12.553  11.883  13.975  0.0328 -0.1844  0.1666
 4417W        W24697   9.006   4.146  14.327 -0.2592 -0.0246  0.0467
 4418W        W24698  15.604   1.161  13.779  0.1949 -0.1468 -0.1742
 4419W        W24699  16.835  16.022   0.667 -0.0072  0.2010  0.1974
 4420W        W24700  16.446   5.720  13.351  0.1118  0.1748  0.0652
 4421W        W24701   1.514  11.638   4.645  0.1577 -0.2243  0.1522
 4422W        W24702   7.136  14.902   2.541  0.0507  0.1152  0.2850
 4423W        W24703  17.591   7.734  13.763 -0.1835 -0.0896 -0.0574
 4424W        W24704  12.456  14.957  16.301 -0.1201  0.1542  0.1969
 4425W        W24705   7.767   2.361  13.818  0.0919  0.2081 -0.1305
 4426W        W24706  12.626  16.905  14.690 -0.2966 -0.0995 -0.1552
 4427W        W24707  11.575   4.264  15.366  0.2237 -0.0794  0.3480
 4428W        W24708   5.789   7.563  14.324 -0.2523 -0.1350 -0.1153
 4429W        W24709   1.140   2.893   1.312 -0.0934  0.0282  0.1084
 4430W        W24710  10.665   2.051   3.401 -0.0231  0.3280  0.1181
 4431W        W24711   8.595  12.008   1.134 -0.1326 -0.0512  0.2519
 4432W        W24712   6.240  14.885  13.752 -0.0864  0.6205 -0.1080
 4433W        W24713  16.778  10.650   0.465  0.0414 -0.1306 -0.1706
 4434W        W24714   2.045   4.631   3.768 -0.2639  0.2441  0.0758
 4435W        W24715  10.347  16.048  12.742 -0.0051 -0.0415  0.3590
 4436W        W24716   2.077  17.049   1.126 -0.1336  0.1009  0.1278
 4437W        W24717  17.587  15.095   2.229  0.0184 -0.0380  0.4250
 4438W        W24718   7.520   4.158   4.101 -0.0508 -0.0693 -0.0303
 4439W        W24719   8.438   5.120  13.029 -0.1102  0.1023 -0.0263
 4440W        W24720   3.784   2.725   4.138 -0.0128 -0.1231 -0.0201
 4441W        W24721  11.523   7.172   4.304 -0.0257  0.1330 -0.0219
 4442W        W24722   0.144   5.563  12.353 -0.0767  0.0086 -0.0592
 4443W        W24723  12.814   8.060  15.713  0.3085 -0.0323  0.2406
 4444W        W24724   1.606   8.506   1.896  0.2804  0.1171  0.2807
 4445W        W24725   6.576  10.370  16.474  0.4014  0.1162 -0.0210
 4446W        W24726   4.037   0.454   4.293 -0.0355 -0.2374  0.2772
 4447W        W24727   7.455   0.007   4.002 -0.0917 -0.0625  0.1047
 4448W        W24728   6.355   0.370  14.907 -0.2427  0.1213 -0.1245
 4449W        W24729   2.541   3.865  14.413  0.1575  0.1075 -0.3283
 4450W        W24730  14.931   4.235  15.527 -0.1664  0.3410  0.2579
 4451W        W24731   3.193   1.488  14.876  0.2477  0.1422 -0.1964
 4452W        W24732   2.289  16.157  14.356  0.2070  0.0475 -0.2627
 4453W        W24733   2.483   8.983  14.842 -0.0139  0.0017  0.0580
 4454W        W24734   7.453   7.098  11.988 -0.1076 -0.3290  0.1961
 4455W        W24735  16.230  15.769  14.217  0.2487 -0.0797  0.2555
 4456W        W24736   0.416   6.122   1.047  0.0019 -0.2479 -0.3604
 4457W        W24737  17.136   9.438  12.557 -0.1629  0.3366  0.1989
 4458W        W24738   4.650   6.518  12.406  0.0262 -0.0751 -0.0110
 4459W        W24739  12.052  13.101   4.947 -0.4334 -0.2740  0.1167
 4460W        W24740   4.215  13.640  15.505 -0.0337  0.1607 -0.0851
 4461W        W24741  17.333   5.624   0.174  0.0878 -0.1308 -0.1620
 4462W        W24742  13.488   9.351   0.285  0.0105  0.1184  0.0964
 4463W        W24743  14.987  13.685  14.322  0.0403  0.1445  0.1198
 4464W        W24744   8.152   4.849  15.000  0.1027 -0.0371  0.0870
 4465W        W24745   2.627   4.355   1.010 -0.0326 -0.1746 -0.0173
 4466W        W24746   2.466   7.886   0.319 -0.0868  0.2403 -0.0410
 4467W        W24747  15.468  15.333  14.525  0.1363 -0.0811 -0.1064
 4468W        W24748   3.371   0.188   2.931 -0.1778  0.0474  0.0675
 4469W        W24749   4.161   1.912  14.210  0.0630  0.3165  0.1775
 4470W        W24750   5.872  11.050  16.486 -0.1397  0.2355 -0.0676
 4471W        W24751  10.369   2.094  12.202 -0.4681  0.2609 -0.0430
 4472W        W24752   8.592   5.260   3.109  0.2601  0.0345 -0.1204
 4473W        W24753   0.871   6.160   1.845 -0.0924 -0.0458  0.2838
 4474W        W24754  16.761   6.043   3.561 -0.2762 -0.1457  0.2361
 4475W        W24755   3.353   2.470   4.374  0.1573 -0.0003 -0.1273
 4476W        W24756  11.806   0.379   4.692  0.1326 -0.0999  0.3262
 4477W        W24757   1.335   7.427   3.797 -0.0096  0.2726 -0.1504
 4478W        W24758   2.370  16.225   4.501 -0.3201  0.1015  0.3333
 4479W        W24759  11.523   8.716   3.357 -0.0837 -0.0082  0.1077
 4480W        W24760  13.480   2.343  14.935 -0.2833 -0.0732  0.1842
 4481W        W24761   4.873   0.638   2.329  0.1648  0.0109  0.2166
 4482W        W24762   5.914  11.271  13.334 -0.1669 -0.0502 -0.2381
 4483W        W24763   4.095   3.950   0.899 -0.1104 -0.1553  0.1500
 4484W        W24764  15.879   2.312  14.199  0.1071 -0.0886  0.1794
 4485W        W24765   3.425  16.242   0.370  0.0647 -0.1377 -0.1731
 4486W        W24766   1.328  16.632  15.400  0.0143  0.2850  0.0154
 4487W        W24767  13.864   7.433   4.065  0.1518  0.2912 -0.2801
 4488W        W24768   7.775  15.385   1.309 -0.1759 -0.0184  0.0999
 4489W        W24769   0.416  14.726   0.778 -0.0595 -0.0002  0.0316
 4490W        W24770  12.139   0.279   4.227  0.0509 -0.0770  0.2513
 4491W        W24771  17.199  14.323  14.991  0.0177 -0.0649  0.1375
 4492W        W24772   0.017   1.440  16.251 -0.0843 -0.0338 -0.0215
 4493W        W24773   6.324   8.492   4.414 -0.1421 -0.3184 -0.0391
 4494W        W24774  15.682  10.600  13.770  0.0093 -0.1094 -0.0349
 4495W        W24775  13.293   6.394  13.079 -0.0039 -0.3622 -0.1673
 4496W        W24776  13.331   3.727   0.861  0.0506 -0.2301 -0.2256
 4497W        W24777  10.607   6.432  16.369  0.2233  0.1052 -0.3630
 4498W        W24778   0.721   4.756   0.910  0.2849 -0.1875 -0.0780
 4499W        W24779  17.001  16.123   3.106  0.2715 -0.1366  0.0243
 4500W        W24780   9.589  16.079   3.821  0.0067 -0.1883 -0.1437
 4501W        W24781  17.085  13.990   1.636 -0.0202 -0.1058 -0.1122
 4502W        W24782  11.206  15.488  12.530  0.1133  0.0835  0.1175
 4503W        W24783  15.699  11.576  12.797 -0.1320  0.0376  0.0210
 4504W        W24784  15.148   6.717   4.110  0.0715  0.1539  0.1544
 4505W        W24785  16.685  10.243  16.268  0.1260 -0.2739 -0.1012
 4506W        W24786  16.767   4.552   1.894  0.1825 -0.3661  0.1979
 4507W        W24787   9.700   4.962  13.781 -0.0225  0.1582  0.0705
 4508W        W24788  17.021  12.869   4.630  0.0442 -0.1426  0.3140
 4509W        W24789  11.739   6.973   2.541 -0.0532  0.2255  0.1467
 4510W        W24790  12.593  13.952  14.401 -0.1281  0.2194  0.1363
 4511W        W24791  17.388   2.721   4.393  0.1408  0.0170  0.0065
 4512W        W24792  16.396  17.671  12.184 -0.0739 -0.0436 -0.0725
 4513W        W24793   1.171  14.690   4.322 -0.0966  0.1811  0.0939
 4514W        W24794   9.132  14.026  13.117  0.1435 -0.1582 -0.2441
 4515W        W24795  14.806  16.222   3.390  0.1746 -0.0851 -0.3695
 4516W        W24796  12.668  13.200   4.991 -0.0115 -0.3203 -0.0662
 4517W        W24797   9.259  17.079   4.944  0.3333 -0.1804 -0.1932
 4518W        W24798  11.160   3.223  15.317  0.0948 -0.0820  0.1328
 4519W        W24799  11.877  17.384  15.210 -0.2268  0.0939  0.2934
 4520W        W24800  14.294   9.930  13.555 -0.0126 -0.2049  0.1400
 4521W        W24801   7.030  16.710  14.436  0.1223 -0.0006  0.1902
 4522W        W24802   6.701   6.084   3.267 -0.1006 -0.0987 -0.1067
 4523W        W24803  12.114  17.355  16.271  0.0761 -0.1233 -0.0049
 4524W        W24804  14.571   4.089   4.580 -0.1360  0.3167  0.0696
 4525W        W24805   3.520  17.226  12.595 -0.0955 -0.0140 -0.2392
 4526W        W24806  14.522   2.112   4.114  0.2226  0.0509  0.1856
 4527W        W24807  10.745  13.299   0.089  0.1776 -0.1769  0.0371
 4528W        W24808   8.477  12.948  11.973  0.2058  0.0051 -0.1787
 4529W        W24809   5.616   3.935  11.880 -0.0268 -0.3737 -0.2386
 4530W        W24810   7.254   1.416   1.287 -0.0599  0.0709  0.0343
 4531W        W24811   3.441  10.006  12.429  0.0756  0.1819  0.0232
 4532W        W24812   8.276   7.846   2.886 -0.0281 -0.1256 -0.0261
 4533W        W24813  16.364   2.210  15.592 -0.2182  0.0716 -0.1855
 4534W        W24814   6.545   3.020   1.796  0.0605 -0.3268 -0.2955
 4535W        W24815   9.322  16.829   2.813  0.0657 -0.2540 -0.1068
 4536W        W24816  12.469   6.581  15.507 -0.0290  0.0350 -0.3217
 4537W        W24817   5.518  12.219   0.683  0.1962 -0.0974  0.0310
 4538W        W24818   6.074   2.956   3.603  0.1311  0.0774  0.0927
 4539W        W24819  15.995   7.201   0.090  0.0365  0.2496 -0.0485
 4540W        W24820  12.543   8.746  14.589  0.1324  0.2663 -0.2526
 4541W        W24821   0.533   2.918   4.219  0.0193 -0.2463 -0.2161
 4542W        W24822   3.002  11.941   2.873  0.0702  0.1939 -0.1146
 4543W        W24823   5.139   4.807   4.544 -0.4339  0.1549 -0.3380
 4544W        W24824   8.022   1.102   3.280 -0.2112  0.2884  0.2451
 4545W        W24825   9.459   2.002  13.583  0.2170 -0.2004  0.1077
 4546W        W24826   8.502   1.129   1.834 -0.1631  0.0181 -0.2619
 4547W        W24827   3.647   2.462  11.844 -0.0853  0.1202  0.1395
 4548W        W24828  16.010   8.853  12.117  0.1264 -0.1829  0.3289
 4549W        W24829   7.094   8.370  12.981 -0.0478 -0.1958  0.2518
 4550W        W24830  11.745   9.900  15.834  0.1621 -0.0946 -0.0072
 4551W        W24831   2.938  15.334   2.239 -0.0730 -0.0111 -0.2015
 4552W        W24832  12.463   8.737   4.903  0.0976 -0.1030  0.0589
 4553W        W24833   7.311  16.694  11.738 -0.0780 -0.4161 -0.1582
 4554W        W24834  15.254  16.158  14.619 -0.1615 -0.3213 -0.2194
 4555W        W24835  11.132  11.344   1.336  0.0848 -0.3728 -0.0099
 4556W        W24836   9.070   7.513   2.279 -0.0347 -0.0796 -0.2774
 4557W        W24837   6.311   8.505   3.903  0.0248 -0.0861  0.1967
 4558W        W24838   2.860  10.134   2.339  0.3137 -0.0273  0.0373
 4559W        W24839  15.193   4.502  12.193  0.1191  0.2777  0.2099
 4560W        W24840  17.388   2.617   2.675  0.1402 -0.3309  0.1245
 4561W        W24841   5.489  16.002  13.417 -0.1021 -0.0721  0.2244
 4562W        W24842  15.294   5.935  15.280  0.1387  0.0497 -0.2036
 4563W        W24843   3.090   8.344   0.205  0.2101 -0.1725 -0.0151
 4564W        W24844   1.324  14.083   1.293 -0.1347  0.1539 -0.2339
 4565W        W24845  12.704   4.823  13.577  0.1592  0.2748 -0.2220
 4566W        W24846   5.532   5.914  13.035 -0.0394 -0.3937  0.2893
 4567W        W24847   6.231  15.953   3.565 -0.2054  0.1299  0.1089
 4568W        W24848   7.822  11.162   4.367 -0.1868 -0.1134  0.2968
 4569W        W24849   8.799   9.522   1.826  0.1667  0.0617 -0.0905
 4570W        W24850   8.074   1.530   4.602 -0.0653  0.1241  0.0551
 4571W        W24851  16.888   9.371   1.467 -0.0925  0.0690 -0.3775
 4572W        W24852   3.978  16.362  15.708 -0.3828 -0.1845  0.1186
 4573W        W24853  13.567  16.371   0.208 -0.4085 -0.1190 -0.0250
 4574W        W24854  14.239   6.921   4.778  0.1268 -0.0229  0.0869
 4575W        W24855   9.145   0.293   1.072 -0.1483 -0.0041 -0.0419
 4576W        W24856   4.480  11.202  16.124 -0.0165  0.2579  0.0131
 4577W        W24857   2.289  13.552   2.101 -0.0133  0.2749 -0.0316
 4578W        W24858   5.437   7.369   3.196 -0.0368  0.0618 -0.2550
 4579W        W24859  11.291  13.348  12.341  0.0347 -0.0183  0.1099
 4580W        W24860   8.951   3.437   4.490 -0.1098 -0.1351 -0.0163
 4581W        W24861   9.430  15.605   3.459  0.0804  0.0072  0.1557
 4582W        W24862  11.775   2.293  16.680 -0.0296  0.3785  0.0423
 4583W        W24863  16.942  14.992  16.817 -0.2425  0.0031  0.0162
 4584W        W24864  15.020  11.257   4.434  0.0233  0.2435  0.1799
 4585W        W24865  17.326   9.161  13.935  0.2052  0.0784 -0.0027
 4586W        W24866  15.778   3.333  14.493  0.1121 -0.0788 -0.2177
 4587W        W24867  14.980   6.228  16.373  0.1083  0.3035 -0.3662
 4588W        W24868  12.151  17.552  13.406 -0.2265  0.0405 -0.2087
 4589W        W24869   5.486   6.242   0.705 -0.0110 -0.0226  0.2059
 4590W        W24870  13.819  17.010  14.677 -0.0177  0.1033 -0.1975
 4591W        W24871   7.358  14.391  15.281  0.4724  0.0784  0.2731
 4592W        W24872  17.335   4.203   3.067  0.3018  0.1296 -0.1986
 4593W        W24873  12.077  15.263  16.727  0.2253  0.2750  0.0044
 4594W        W24874   3.202  14.406  16.056 -0.1584 -0.0972  0.0863
 4595W        W24875  15.217   7.891   4.308  0.0425  0.0037 -0.0183
 4596W        W24876  14.675   0.198  14.490 -0.0964 -0.1285 -0.0706
 4597W        W24877   7.011   7.563   1.931  0.0510 -0.0140  0.1163
 4598W        W24878   0.983   0.014   2.733 -0.1572 -0.0740  0.1560
 4599W        W24879  16.606  16.838   4.618 -0.0651  0.4123 -0.1273
 4600W        W24880  12.363   4.473  13.234 -0.0318  0.0343  0.0788
 4601W        W24881  16.682   6.583   1.700  0.0243 -0.1655  0.0973
 4602W        W24882   2.059   8.085  15.935  0.2950 -0.1972  0.0218
 4603W        W24883   4.936   7.923  14.439  0.1384  0.1905 -0.1564
 4604W        W24884  15.698   2.409   2.625 -0.0817 -0.2071  0.1738
 4605W        W24885   2.015   3.836  13.078 -0.2192 -0.2803  0.0483
 4606W        W24886   1.980   6.471   1.822 -0.0581 -0.0682  0.0485
 4607W        W24887  12.955  16.867  12.529  0.2631  0.0766  0.2717
 4608W        W24888  16.000  16.465   0.122  0.1098  0.2275  0.2313
 4609W        W24889   6.099   0.968   0.737  0.0396 -0.4164  0.0747
 4610W        W24890   9.590  16.709  13.748  0.0286 -0.2613  0.3907
 4611W        W24891   0.143   2.274   2.538  0.0222 -0.0314 -0.2700
 4612W        W24892   4.839  16.808  14.336 -0.1191 -0.1493 -0.1140
 4613W        W24893   3.412   1.473  15.500  0.1946  0.1969  0.1092
 4614W        W24894   7.617   6.856  15.044  0.0519  0.0038  0.1332
 4615W        W24895   9.379  12.409  16.790 -0.2395  0.0648 -0.3722
 4616W        W24896   6.417  14.329  14.566  0.1094 -0.1346 -0.1586
 4617W        W24897  10.293  16.316   4.073  0.1270 -0.1043 -0.0855
 4618W        W24898   4.223  12.057   0.265  0.1933 -0.0716 -0.0271
 4619W        W24899   6.793  13.815  16.811 -0.0817 -0.1148  0.2582
 4620W        W24900   9.764  15.117   4.661  0.2543 -0.2722 -0.1916
 4621W        W24901   3.917   3.979  16.850 -0.3168 -0.0793 -0.0262
 4622W        W24902  15.947  14.010   0.755  0.3447  0.0957 -0.1759
 4623W        W24903  11.351  16.158   4.584  0.2686  0.0535 -0.2014
 4624W        W24904  15.260  13.133  11.787 -0.0874 -0.3209 -0.0664
 4625W        W24905  13.504   3.838  13.277  0.0739 -0.0520 -0.0894
 4626W        W24906   9.548   9.304  12.739 -0.1460  0.0523 -0.0153
 4627W        W24907   4.609   4.135   2.994  0.1570 -0.0353  0.0437
 4628W        W24908   3.926   6.236   3.523 -0.0482 -0.3065 -0.0867
 4629W        W24909  15.909   5.733  13.442  0.0192 -0.1792  0.1737
 4630W        W24910  15.123  14.925   1.315 -0.0768  0.1115 -0.3857
 4631W        W24911   8.378   3.484   3.543 -0.1409  0.1414  0.0547
 4632W        W24912  17.212   7.923  15.624 -0.4922 -0.0709  0.0061
 4633W        W24913  14.177  16.286   5.038  0.1797  0.0235  0.1159
 4634W        W24914  14.196  15.196  16.835  0.1810  0.2420  0.0870
 4635W        W24915   6.924  14.439   3.582 -0.0556 -0.1274 -0.0348
 4636W        W24916  17.018   4.752   1.427 -0.0537 -0.4260  0.0280
 4637W        W24917  15.759  10.762   3.171  0.0173  0.0315 -0.1009
 4638W        W24918   9.845   1.313   0.651  0.0534 -0.0777 -0.0183
 4639W        W24919  16.570   5.317  14.254 -0.1127  0.0379  0.3162
 4640W        W24920  16.398  13.548   4.944  0.1230 -0.0275 -0.3227
 4641W        W24921  14.569   9.730   2.821 -0.2894 -0.0465  0.2150
 4642W        W24922   3.410   7.161   3.341 -0.4035  0.0601 -0.2647
 4643W        W24923   9.410   6.121   0.911 -0.0039  0.2921  0.0047
 4644W        W24924  13.113   3.647   3.175 -0.2688 -0.1654 -0.0505
 4645W        W24925   8.408   0.984  12.473  0.0889 -0.2031 -0.0717
 4646W        W24926  17.736  16.781   3.189  0.2610  0.1762 -0.0113
 4647W        W24927   0.065   8.759   4.254 -0.0374  0.0745  0.1013
 4648W        W24928   8.412  15.590  14.006 -0.0624  0.2600 -0.0741
 4649W        W24929  12.485  13.243   0.916 -0.3206 -0.1844  0.0663
 4650W        W24930  12.003  12.490  14.140  0.2168 -0.0173 -0.0128
 4651W        W24931  15.334   2.902  12.685  0.1401  0.1473 -0.1522
 4652W        W24932  12.921  13.243  13.985  0.1956 -0.1570 -0.3072
 4653W        W24933  13.187   6.766  15.504  0.0699 -0.0207  0.1457
 4654W        W24934  11.327   7.059  14.454 -0.0965 -0.2142  0.0938
 4655W        W24935   6.557  10.697   3.007 -0.0520  0.0810  0.0297
 4656W        W24936   2.411  15.542  14.498  0.0459 -0.1017 -0.0182
 4657W        W24937   0.005   4.094   2.836  0.2133  0.1111  0.0968
 4658W        W24938   5.311  11.414   4.920 -0.0416  0.2513 -0.2898
 4659W        W24939  12.621   8.703   4.081 -0.1371 -0.2049  0.1030
 4660W        W24940  11.774   5.851   0.053 -0.0163 -0.1001 -0.1349
 4661W        W24941   8.362  12.699   3.827  0.0701  0.1604 -0.3007
 4662W        W24942  14.583   0.552   0.863  0.0377 -0.0696  0.0818
 4663W        W24943  16.181   9.233   3.063  0.0457 -0.0213 -0.0926
 4664W        W24944   3.423   6.224   4.362 -0.0363  0.0562 -0.1087
 4665W        W24945   4.946  16.971   3.145 -0.0580  0.4961  0.2178
 4666W        W24946   1.962   9.500   5.778 -0.1173  0.0203  0.1341
 4667W        W24947  11.123  12.018  12.478  0.1652  0.0785 -0.0407
 4668W        W24948   3.649   5.724  13.102  0.1338 -0.0590  0.2527
 4669W        W24949  10.795   6.232  15.947 -0.0324  0.1858  0.1651
 4670W        W24950  10.395  10.577  13.246 -0.2041 -0.0512 -0.1974
 4671W        W24951  12.715   9.925  13.888  0.3109 -0.0924  0.3253
 4672W        W24952   8.116   4.785   2.607  0.1422  0.1477  0.1482
 4673W        W24953   3.981   0.398  16.178 -0.2579 -0.0135 -0.1326
 4674W        W24954   4.643  16.836   3.634 -0.0426  0.2114  0.0283
 4675W        W24955  12.109   7.300   2.458 -0.2177  0.0595 -0.1478
 4676W        W24956  14.970   8.667  13.324 -0.1424  0.2121 -0.0130
 4677W        W24957   9.055  14.628  12.526  0.1568  0.0467 -0.1888
 4678W        W24958  15.501   7.871   3.166  0.0293  0.0964 -0.0855
 4679W        W24959   9.969  10.709  16.659  0.1785  0.0250  0.1900
 4680W        W24960  14.178  12.863   1.176 -0.1305  0.1240 -0.0985
 4681W        W24961   8.382   9.488  16.497  0.1402  0.4088  0.3633
 4682W        W24962  17.073   2.323  15.014 -0.4339  0.0176  0.0565
 4683W        W24963   5.578   1.243   0.487  0.2857 -0.0140  0.1506
 4684W        W24964  15.571   8.748  14.658  0.1078 -0.0671  0.0220
 4685W        W24965  11.368   1.366  15.276 -0.1947  0.1111 -0.0998
 4686W        W24966   8.282   0.567   4.158  0.0343  0.0566  0.0262
 4687W        W24967   8.337   9.363   0.468 -0.0896 -0.0075  0.1003
 4688W        W24968  10.770   2.783  12.673  0.0348 -0.2125  0.1453
 4689W        W24969  12.301  12.733   0.958 -0.0452  0.2113  0.1344
 4690W        W24970   8.182  11.697   3.493 -0.1975  0.2134 -0.0554
 4691W        W24971   7.804   0.650  15.432  0.0713  0.1134  0.1387
 4692W        W24972   3.532   6.085   0.927  0.1580 -0.0844  0.2037
 4693W        W24973   5.896   5.916   4.356 -0.2084  0.0147 -0.1653
 4694W        W24974   1.243   5.267  15.040  0.0572  0.0830 -0.1564
 4695W        W24975  13.216   4.649  12.865 -0.3485 -0.2153  0.1188
 4696W        W24976   4.251   7.242   2.056 -0.2622 -0.1111 -0.4925
 4697W        W24977   5.622  16.312   4.828  0.1162 -0.3628 -0.3687
 4698W        W24978   2.586   7.954  14.939 -0.0278 -0.2714 -0.1103
 4699W        W24979   6.458  11.667   3.144  0.1585  0.2711 -0.0267
 4700W        W24980   6.026   0.692  15.246 -0.2448  0.0448 -0.1055
 4701W        W24981   7.403  11.401  13.020 -0.0743 -0.2385  0.2500
 4702W        W24982   7.888   7.889   3.168 -0.0025  0.0698 -0.0374
 4703W        W24983   9.693  11.591  13.062  0.1697 -0.0681  0.1742
 4704W        W24984  13.803   6.233   0.070 -0.2133 -0.5070 -0.0176
 4705W        W24985   4.024   7.129   3.804  0.0253  0.0936 -0.0988
 4706W        W24986  10.331  11.213  15.650 -0.0841 -0.1782 -0.0798
 4707W        W24987   5.731   3.841   0.187  0.4979  0.3213 -0.2418
 4708W        W24988  15.289  14.130   2.351  0.3338 -0.1310 -0.1550
 4709W        W24989  11.994   9.939   0.177 -0.0138 -0.3341 -0.1314
 4710W        W24990   0.284   5.869   1.465 -0.1691 -0.0873  0.1886
 4711W        W24991  12.601   4.071  13.097  0.1322  0.0130  0.2112
 4712W        W24992  17.238  15.170  16.370 -0.1258  0.0900  0.1069
 4713W        W24993   1.299   6.466  13.874  0.1979 -0.1618 -0.0843
 4714W        W24994   6.588   7.824  13.276  0.2193  0.3731  0.1287
 4715W        W24995  12.188   6.221  12.841  0.0757 -0.3698  0.1227
 4716W        W24996   0.300   9.567   2.878  0.1795 -0.0442  0.0358
 4717W        W24997   8.869  11.739  12.786 -0.1377  0.0813 -0.3233
 4718W        W24998  10.208   0.519   0.384 -0.0169 -0.1489 -0.0433
 4719W        W24999   5.361  12.051  13.337  0.2074 -0.0679  0.2100
 4720W        W25000   0.026  10.379  12.444  0.3770 -0.3423  0.0795
 4721W        W25001   8.701   4.813  16.457  0.4912  0.0651  0.1944
 4722W        W25002  13.255  11.621  16.147 -0.0096 -0.0831 -0.1119
 4723W        W25003   7.095   2.076  16.814  0.0312 -0.1583  0.0171
 4724W        W25004   7.234  12.933   4.484  0.2234 -0.2548  0.0091
 4725W        W25005  11.420   5.039   4.650  0.0755 -0.1046 -0.0503
 4726W        W25006  10.216   0.514   1.694 -0.1782  0.1545  0.3659
 4727W        W25007   9.536   8.855   0.000 -0.0488  0.0979  0.1539
 4728W        W25008  15.820   5.944  14.165 -0.4074  0.0381 -0.0174
 4729W        W25009  13.391  11.531  13.913  0.0836 -0.2313 -0.3221
 4730W        W25010  13.493  14.655   2.256 -0.0168 -0.0876 -0.0549
 4731W        W25011   1.341  12.075  16.256  0.1750  0.2423  0.0036
 4732W        W25012  10.109   5.181  13.944  0.0004  0.1844  0.0448
 4733W        W25013  16.868   7.648  14.755 -0.2753  0.3049  0.3567
 4734W        W25014   1.904  16.988  13.263  0.1523 -0.1116  0.0455
 4735W        W25015  16.997   2.513  13.513  0.0672 -0.0714 -0.1253
 4736W        W25016   5.606   0.815   1.298 -0.1148  0.1002 -0.1145
 4737W        W25017  17.191  17.139  12.486 -0.0000  0.0089 -0.0487
 4738W        W25018   6.670   1.583  13.641 -0.1905  0.0477 -0.2209
 4739W        W25019  15.608   6.307  12.116  0.1095  0.1843  0.0224
 4740W        W25020  15.256  14.955   0.065 -0.0935  0.0627  0.3426
 4741W        W25021   7.783  15.746  12.131 -0.2171  0.0040  0.2339
 4742W        W25022   5.973   6.104  13.494 -0.0300  0.0127 -0.2591
 4743W        W25023  14.317  13.125  14.719 -0.1535  0.0749 -0.0264
 4744W        W25024   0.884  10.443   1.088  0.1429  0.1304  0.0831
 4745W        W25025   9.284  15.865   0.368 -0.1947  0.4420  0.3700
 4746W        W25026   4.262   0.804   1.632  0.0392 -0.2624  0.0007
 4747W        W25027   2.629   5.323   1.768  0.1003  0.1711  0.0595
 4748W        W25028   4.420  16.774   1.092 -0.1315 -0.0431  0.1137
 4749W        W25029  12.763   7.445  13.935 -0.0380 -0.1839  0.0534
 4750W        W25030   3.365  12.525   3.526  0.0634  0.2886 -0.0637
 4751W        W25031   5.795   2.537  12.000 -0.1551  0.0264 -0.2839
 4752W        W25032  16.049  11.021   1.904  0.1710 -0.0874 -0.1150
 4753W        W25033   9.094  11.787  14.590  0.1547 -0.0902 -0.0785
 4754W        W25034   7.779  11.591   1.940  0.3181 -0.1718  0.1574
 4755W        W25035   8.827   3.904  12.554 -0.0597 -0.1908  0.1858
 4756W        W25036   8.615   3.030   0.555 -0.0382 -0.1351  0.0315
 4757W        W25037  11.405   6.394  12.134 -0.0391 -0.1130 -0.1409
 4758W        W25038   4.664   2.264   2.147  0.2363  0.3816  0.3052
 4759W        W25039  16.723  14.960  11.186  0.2924  0.1811  0.0623
 4760W        W25040  10.024  13.499  14.588 -0.1209 -0.2984 -0.2169
 4761W        W25041   8.161  15.629  15.412  0.0720 -0.3224 -0.0426
 4762W        W25042   2.434  12.554  13.004  0.0775  0.1804 -0.2619
 4763W        W25043  15.276  13.482  12.162 -0.0461  0.0031 -0.1114
 4764W        W25044   6.583  13.975   1.535 -0.0646 -0.2665 -0.4307
 4765W        W25045  10.818   2.298   3.824 -0.1591 -0.1791 -0.0113
 4766W        W25046   4.111  10.883  13.434  0.1606 -0.3613  0.2171
 4767W        W25047   2.505   0.583  13.827  0.1605  0.0063 -0.2084
 4768W        W25048   0.322  14.056   1.591 -0.2422 -0.3474 -0.1388
 4769W        W25049   4.359   8.985   0.104  0.0532  0.1348 -0.0445
 4770W        W25050  12.382   2.349  12.357 -0.1610 -0.0287 -0.0602
 4771W        W25051  14.382  15.008   2.223  0.0555  0.0362  0.1179
 4772W        W25052   4.206  13.405   4.214  0.3657  0.0506  0.0187
 4773W        W25053  13.922   5.806   3.042  0.1632  0.3219  0.0071
 4774W        W25054   1.304   1.263   1.510 -0.0805  0.0236 -0.1087
 4775W        W25055  16.095  14.294  15.427  0.0268  0.2646  0.0705
 4776W        W25056   5.505   2.032   0.414  0.0261  0.0833 -0.3571
 4777W        W25057  15.378  14.339  16.229 -0.2008  0.1506  0.1474
 4778W        W25058   4.384  13.779   2.074  0.1627 -0.3050  0.1811
 4779W        W25059   1.513   4.069   2.495  0.1456  0.1257 -0.0633
 4780W        W25060   4.177  15.667   4.570 -0.0165 -0.1542  0.2960
 4781W        W25061   4.714   3.111  15.133 -0.0357  0.2593  0.1780
 4782W        W25062   3.609  11.552   4.972  0.0063  0.1808  0.0011
 4783W        W25063   5.650   3.641   2.155  0.3920 -0.1573 -0.2786
 4784W        W25064   9.608   6.494  14.374 -0.0779  0.3225  0.0662
 4785W        W25065   5.865  14.650   2.232 -0.0006  0.1026 -0.2423
 4786W        W25066  10.751  10.897  12.285 -0.2975 -0.3541  0.2942
 4787W        W25067  15.769   5.910   1.242  0.0878 -0.0198  0.0891
 4788W        W25068   4.386   8.589  16.672  0.1453  0.3126  0.1534
 4789W        W25069  17.086   9.414   0.369  0.1700 -0.0517  0.0431
 4790W        W25070   6.881   2.564   1.966  0.1619 -0.0487 -0.2545
 4791W        W25071   2.303  11.690  16.528 -0.2545  0.0043 -0.2507
 4792W        W25072  10.261  13.489  16.254  0.1851  0.3170 -0.3096
 4793W        W25073  16.490   1.236  15.382 -0.4225 -0.2714  0.0168
 4794W        W25074   4.095   7.213  10.966 -0.0516 -0.1157 -0.0199
 4795W        W25075  11.940   8.192  12.976  0.0066  0.1561 -0.0952
 4796W        W25076   5.738  12.720  14.095 -0.2014 -0.1968  0.0096
 4797W        W25077   0.813   4.279  15.930 -0.2208 -0.0154  0.1783
 4798W        W25078  15.374   4.675  14.164 -0.2673 -0.1816  0.1070
 4799W        W25079   5.007   5.241   4.297  0.1521  0.1388  0.0302
 4800W        W25080   2.546   8.418  13.103  0.2662 -0.2224  0.1186
 4801W        W25081   9.691  13.476   2.888  0.1134 -0.3946  0.0173
 4802W        W25082  11.585  11.213   3.002  0.0830 -0.2914  0.0062
 4803W        W25083  14.288  11.896  12.789 -0.3999  0.2197  0.0324
 4804W        W25084  16.959   4.468  14.999  0.2519  0.3624 -0.2972
 4805W        W25085   3.053   3.323   4.858 -0.0722 -0.1496 -0.1307
 4806W        W25086  14.491   7.228   1.259 -0.0049 -0.0519 -0.2002
 4807W        W25087   9.017  10.103   4.274 -0.0010  0.0765 -0.0329
 4808W        W25088  12.344   4.487  14.449 -0.1743  0.1479  0.2092
 4809W        W25089  10.820  13.270   0.894  0.0541  0.3160  0.3733
 4810W        W25090  14.838  13.606   5.214  0.0867 -0.0506  0.0303
 4811W        W25091   4.766   9.220  14.749 -0.0570 -0.1637 -0.0183
 4812W        W25092  10.426   8.388   0.623  0.1746 -0.1899 -0.0928
 4813W        W25093   7.552  17.567  12.477  0.3363  0.4529 -0.0348
 4814W        W25094  16.318  17.671  14.059  0.1341 -0.1001  0.2142
 4815W        W25095  16.367   1.892   1.029 -0.1161  0.3248 -0.0209
 4816W        W25096  12.436   0.009  16.834 -0.2496  0.0027  0.2650
 4817W        W25097   8.305   2.839   2.847  0.2217  0.2225  0.0520
 4818W        W25098   9.486   6.813   3.582  0.3877  0.1199  0.1803
 4819W        W25099  17.157   7.631   0.926 -0.2084  0.2033  0.3223
 4820W        W25100   2.016   5.596   1.874 -0.0855 -0.0156  0.0528
 4821W        W25101   0.986  10.105   2.064 -0.1737 -0.0517 -0.1456
 4822W        W25102  14.732   1.857  15.039  0.0051  0.4547 -0.0961
 4823W        W25103  15.266  11.763   2.414 -0.1934 -0.1487  0.1534
 4824W        W25104   1.815   5.690   2.815 -0.1969 -0.0262 -0.0597
 4825W        W25105  17.474   8.215   4.002 -0.1227  0.0096 -0.0807
 4826W        W25106  16.459  13.801   3.354 -0.0104  0.0757  0.0729
 4827W        W25107  11.214  12.481  16.785  0.0236  0.1970  0.3651
 4828W        W25108   9.261   2.941   4.391  0.3494 -0.0278  0.2658
 4829W        W25109   0.250   9.227  16.020  0.1400  0.1465 -0.3706
 4830W        W25110   5.152  16.462  16.132  0.0175 -0.2711 -0.1828
 4831W        W25111  12.217  12.798  13.469 -0.0344  0.1764  0.0779
 4832W        W25112  15.228  11.861  16.179 -0.0352 -0.0006  0.1072
 4833W        W25113   7.896  13.635  12.232 -0.2186 -0.1272 -0.0088
 4834W        W25114  10.057  10.104   2.070  0.1597 -0.0611  0.1872
 4835W        W25115  16.282   9.967  16.139 -0.3193 -0.1906 -0.3066
 4836W        W25116  14.696   7.089  16.220 -0.2242  0.1270  0.0878
 4837W        W25117   2.620  10.045   3.917  0.1983 -0.0944  0.0784
 4838W        W25118   4.511   3.216  14.689  0.3972 -0.0547  0.3644
 4839W        W25119   5.432  13.348  14.261 -0.0926  0.3044 -0.3574
 4840W        W25120  10.574   9.260   4.851  0.1579 -0.2480  0.0755
 4841W        W25121   2.300  12.840   0.784  0.0356  0.2267  0.1722
 4842W        W25122   7.728   7.719   0.947  0.0897 -0.0409  0.1039
 4843W        W25123   1.627   6.601  12.596 -0.1663 -0.0574  0.0613
 4844W        W25124   5.174   3.037   1.241  0.2647  0.0889 -0.0785
 4845W        W25125   3.189  14.059  15.026 -0.1686  0.2924  0.2016
 4846W        W25126  12.590  10.530  16.506 -0.7166 -0.2248  0.0625
 4847W        W25127   9.517   1.336  14.156  0.5405  0.0813 -0.3138
 4848W        W25128   4.080   4.123   2.003 -0.1981  0.0347  0.0209
 4849W        W25129   5.727   4.879   4.525  0.3667  0.2518 -0.0990
 4850W        W25130   0.083  11.251   2.306 -0.0827  0.1341 -0.0718
 4851W        W25131  12.999  17.719  12.779 -0.1708  0.0269 -0.2673
 4852W        W25132   2.805  12.248  16.141 -0.0002  0.0848  0.1884
 4853W        W25133   9.800   1.777  14.204  0.1506 -0.0444  0.2159
 4854W        W25134   0.242  17.173  13.525 -0.0127 -0.1714 -0.2055
 4855W        W25135   0.741  16.804  14.075  0.1203  0.1700  0.0931
 4856W        W25136  10.505   9.478  16.425  0.2456  0.1637 -0.1857
 4857W        W25137  14.416   5.000   2.861  0.1215  0.0353 -0.0091
 4858W        W25138  14.835  12.019   0.350  0.1497  0.0104 -0.1401
 4859W        W25139  13.771   7.910  12.861 -0.2371  0.1292 -0.2038
 4860W        W25140   2.895  16.336  12.865  0.0893 -0.2956  0.0682
 4861W        W25141  11.430  11.753  13.577  0.0909 -0.1192 -0.1152
 4862W        W25142   0.469  12.853   3.145  0.2107 -0.3095 -0.0925
 4863W        W25143   9.416   8.305  12.826 -0.2591 -0.0179 -0.0375
 4864W        W25144   0.903  17.557   1.519 -0.4063  0.2155 -0.3951
 4865W        W25145   8.660   3.532   0.006  0.1296  0.2159 -0.0990
 4866W        W25146  12.496   3.496  13.953 -0.5267  0.3120 -0.2991
 4867W        W25147  16.640  13.482  16.420  0.0690  0.1208  0.1534
 4868W        W25148   6.129   2.006  12.824  0.3069 -0.1032  0.0462
 4869W        W25149  14.413  14.142  13.550 -0.1198 -0.5385 -0.2466
 4870W        W25150  12.136  11.547  13.819 -0.0580  0.0873  0.0459
 4871W        W25151   1.513   0.495  16.217  0.0963  0.0140 -0.0429
 4872W        W25152  14.413  11.158   1.787  0.1165  0.1473  0.2250
 4873W        W25153   4.200  10.853  15.895  0.1951  0.0230  0.3266
 4874W        W25154  14.831   2.558  14.632  0.1924  0.0885 -0.2002
 4875W        W25155  12.013   7.286   1.726  0.0128 -0.0775 -0.0181
 4876W        W25156   0.345   3.910  12.025 -0.0695 -0.1992 -0.3031
 4877W        W25157   9.577  17.133  15.614  0.0013 -0.0592 -0.3354
 4878W        W25158   5.980   9.411  13.696 -0.0949  0.2292 -0.0786
 4879W        W25159   9.009   4.127   3.624  0.2312  0.2913  0.0924
 4880W        W25160  11.536   7.428  14.716 -0.0025  0.1068 -0.5736
 4881W        W25161  11.268   8.957   2.540 -0.5269 -0.1648 -0.0192
 4882W        W25162  15.614  16.114  13.691 -0.0751  0.1217  0.1346
 4883W        W25163   9.053  10.823  16.824  0.0174 -0.1148 -0.1484
 4884W        W25164   9.273   0.421  12.907  0.0387 -0.2275 -0.0181
 4885W        W25165  15.596   6.509   0.599  0.2329  0.1416  0.1399
 4886W        W25166  14.135  14.110   0.646  0.1876  0.1662  0.1840
 4887W        W25167  16.149  11.764   1.191 -0.3806 -0.0416 -0.0418
 4888W        W25168  10.521   9.546  14.804  0.0296  0.2990 -0.0220
 4889W        W25169  14.488   6.326  15.073 -0.0623 -0.0070  0.0956
 4890W        W25170   9.406   1.053   1.817 -0.5152 -0.0701  0.2016
 4891W        W25171   4.545   0.598   0.531 -0.0502 -0.0125 -0.1311
 4892W        W25172  17.236   1.789   1.474  0.0316 -0.0775  0.1767
 4893W        W25173   4.392   2.266  15.427 -0.0557 -0.0147  0.0278
 4894W        W25174  13.469  13.690   2.439  0.2297 -0.3064 -0.1573
 4895W        W25175  13.007  13.087   1.321 -0.0217 -0.0772 -0.2425
 4896W        W25176   6.898  16.371  14.034  0.2341  0.4516  0.0300
 4897W        W25177  13.164  15.226   0.838 -0.0810 -0.0438  0.1366
 4898W        W25178  15.670   7.365  12.447 -0.1456 -0.1554 -0.1199
 4899W        W25179  16.834  14.134  16.505 -0.0373 -0.2669 -0.4050
 4900W        W25180   8.992  10.266  16.253  0.1431 -0.2245  0.4299
 4901W        W25181  10.603  17.020  12.640 -0.1407  0.1638  0.1896
 4902W        W25182   3.423   8.872  16.501 -0.1882  0.1334  0.2074
 4903W        W25183  15.094   5.908  12.453 -0.2731 -0.0521 -0.2025
 4904W        W25184  10.827  11.067   0.448  0.2315  0.0878  0.0892
 4905W        W25185   4.959   3.887  14.808  0.1810  0.0825 -0.1169
 4906W        W25186   6.779  14.304   1.010 -0.1384 -0.0015 -0.3323
 4907W        W25187  17.704   5.547  14.936 -0.1058  0.1727  0.0649
 4908W        W25188  17.714  15.315  16.499  0.1142  0.0340  0.1544
 4909W        W25189   6.572   1.075  13.654  0.0004 -0.0091 -0.2643
 4910W        W25190  15.978  14.569   3.577 -0.0929  0.3650  0.0882
 4911W        W25191  13.449   9.247  12.084  0.2693  0.1361 -0.2049
 4912W        W25192   3.763   0.067  14.401  0.2248 -0.2569  0.0555
 4913W        W25193  11.420  16.824   2.997  0.3306 -0.0105  0.0583
 4914W        W25194   0.741  15.232   3.206  0.2598 -0.0339 -0.1160
 4915W        W25195   7.437  17.020  12.183  0.0003 -0.1228  0.1932
 4916W        W25196   1.404  10.862   0.171 -0.0507  0.0187  0.1272
 4917W        W25197   5.953   6.833   3.592 -0.0796  0.2911 -0.2723
 4918W        W25198   4.550   6.798  13.298  0.2376 -0.2255 -0.0419
 4919W        W25199   6.577   1.267  11.092  0.1093 -0.0932 -0.0713
 4920W        W25200  10.669  14.788   4.552  0.0667 -0.2060  0.4863
 4921W        W25201   9.204  10.717   4.381  0.0405 -0.1076  0.0935
 4922W        W25202  13.253   6.107   3.725 -0.0103  0.1156 -0.0371
 4923W        W25203  17.536  12.979  16.128 -0.0819 -0.0003 -0.1589
 4924W        W25204  17.667   5.812  14.020  0.0123  0.0881 -0.0956
 4925W        W25205   4.112  10.825  13.960 -0.0353 -0.0180 -0.0757
 4926W        W25206  14.194  15.508  13.150 -0.2719  0.0104  0.0062
 4927W        W25207   6.937   9.762  12.501 -0.0372  0.0541 -0.1906
 4928W        W25208  16.665  17.245   4.184  0.1434 -0.1921 -0.2547
 4929W        W25209   7.551  10.565   1.512  0.2836  0.2056  0.2640
 4930W        W25210  12.791   2.229  14.299 -0.0219 -0.0437  0.0974
 4931W        W25211  14.651   2.876   1.461 -0.1496  0.0224 -0.0152
 4932W        W25212   7.636  14.542  12.410  0.1529 -0.2685 -0.1841
 4933W        W25213   2.139   1.483   4.415 -0.0720 -0.1715  0.0490
 4934W        W25214  17.731  14.704  15.648 -0.3665 -0.1324 -0.4708
 4935W        W25215   0.173  13.090  13.726  0.1520 -0.0346  0.2749
 4936W        W25216   4.564  17.024   4.494 -0.2155  0.2427 -0.1315
 4937W        W25217   3.247  15.268  12.956 -0.1232 -0.0905  0.1900
 4938W        W25218   0.388  16.901   0.383  0.2711 -0.1506 -0.0188
 4939W        W25219   6.509   2.383   0.646  0.1656 -0.4539 -0.0637
 4940W        W25220   9.695   7.882   2.947 -0.1291  0.0356 -0.1467
 4941W        W25221   5.859   9.856  13.918 -0.1954  0.0279  0.2383
 4942W        W25222  12.460   3.223   0.966  0.1378  0.2895  0.0444
 4943W        W25223   4.548  11.290   0.838  0.1009  0.2692 -0.0589
 4944W        W25224  14.879  16.024   2.277 -0.2872  0.0509  0.0850
 4945W        W25225  15.634   0.905  15.248  0.1904  0.3291 -0.2035
 4946W        W25226   5.868  16.096   1.847  0.0478 -0.1015  0.0575
 4947W        W25227  16.559  13.973   5.263 -0.1473  0.1396 -0.2653
 4948W        W25228   8.489   9.421  13.044 -0.1884 -0.3012 -0.0001
 4949W        W25229   6.410   6.764   4.150 -0.3330  0.0498  0.0237
 4950W        W25230  15.418  15.699   1.168  0.0942 -0.0566  0.0473
 4951W        W25231   2.489  10.596  14.333 -0.0021 -0.1769  0.0812
 4952W        W25232   2.943  11.791  14.716 -0.2290  0.0910 -0.1973
 4953W        W25233  10.781   4.400  15.545  0.1348 -0.0263  0.2979
 4954W        W25234   4.978   9.974  16.764  0.0319 -0.0343  0.3082
 4955W        W25235   6.250  15.136  16.292 -0.2012 -0.1420 -0.0645
 4956W        W25236   5.971  16.267   3.965 -0.1739 -0.2151  0.2492
 4957W        W25237  10.436  11.101  14.095  0.0032  0.0312 -0.0808
 4958W        W25238  16.435   3.891   3.465  0.1743  0.1624  0.1736
 4959W        W25239   1.008  14.716   1.807 -0.2173 -0.3125  0.1834
 4960W        W25240   0.540   1.572  15.548 -0.0166 -0.1313 -0.0377
 4961W        W25241   1.955  12.830   2.966 -0.0659 -0.1960 -0.1420
 4962W        W25242  15.237   7.213   1.879  0.0800 -0.0829 -0.0872
 4963W        W25243  14.918   9.263   1.172 -0.0640 -0.1936  0.3745
 4964W        W25244   2.810   5.643   4.234 -0.2736 -0.0274 -0.0871
 4965W        W25245   2.880  10.575   1.303  0.2871  0.0353  0.2035
 4966W        W25246   7.996  13.705  16.155  0.0824  0.0985  0.0253
 4967W        W25247   3.317   5.259  16.207  0.0053 -0.3329 -0.0219
 4968W        W25248   8.800   8.391  16.511  0.0590 -0.1615  0.0036
 4969W        W25249  15.928   7.809  16.581  0.1176  0.1073  0.3396
 4970W        W25250  10.740   0.400  15.291  0.0231 -0.2321  0.1706
 4971W        W25251   0.262   0.199   3.165  0.1952 -0.1881 -0.0877
 4972W        W25252  13.521   7.438  16.086  0.0510  0.3472  0.2573
 4973W        W25253   5.336  14.116  16.122  0.0323  0.2773  0.1166
 4974W        W25254   5.708   9.456  15.826 -0.0426 -0.3976 -0.3958
 4975W        W25255   8.894   7.021  12.461 -0.0640  0.0002 -0.0759
 4976W        W25256  10.156  16.863  12.368  0.1466  0.2169 -0.2464
 4977W        W25257   9.699  12.157   2.799  0.1852 -0.1325 -0.2934
 4978W        W25258   0.438  17.643  15.600  0.0946 -0.2487 -0.3346
 4979W        W25259   5.890   2.569   1.497  0.0856 -0.0720 -0.2845
 4980W        W25260   5.366   7.946   1.475  0.0200 -0.1042  0.2892
 4981W        W25261   3.080  17.162   0.776  0.0407 -0.2538 -0.1478
 4982W        W25262  14.684   8.361   1.239  0.2601  0.0431 -0.1644
 4983W        W25263  10.975   3.569  14.714  0.2210 -0.1798 -0.0665
 4984W        W25264   7.281  13.854  14.584  0.3153  0.0494  0.1965
 4985W        W25265  14.833   6.847   1.302  0.2329 -0.0657 -0.1715
 4986W        W25266   8.319   5.423   1.670 -0.0629  0.0992 -0.1521
 4987W        W25267   9.706  11.691   4.893  0.1532 -0.1174 -0.1095
 4988W        W25268   9.338   4.331   4.324 -0.1749 -0.1568 -0.2636
 4989W        W25269   6.576   0.831  15.100 -0.0195 -0.0750  0.0277
 4990W        W25270   6.284  14.500   2.511 -0.1618 -0.0661 -0.0910
 4991W        W25271  12.349   3.304   3.731 -0.1719 -0.0859  0.0853
 4992W        W25272   1.126   4.843  14.763  0.0169  0.0321 -0.0235
 4993W        W25273  14.931  13.786  12.250 -0.2468 -0.0921  0.2162
 4994W        W25274  12.751   0.266  16.192 -0.1462 -0.3608 -0.0101
 4995W        W25275   0.849  14.359  16.151 -0.2403 -0.2895  0.0756
 4996W        W25276   1.877  10.456   0.212  0.1878 -0.2427 -0.0828
 4997W        W25277   8.057   9.374  13.206  0.1612  0.0815  0.0218
 4998W        W25278  17.653   9.409  14.147 -0.0362  0.1397  0.0611
 4999W        W25279   6.887  11.456   0.008  0.3069 -0.1651  0.2717
 5000W        W25280  16.273   0.809  14.544 -0.1850 -0.3499 -0.0232
 5001W        W25281   9.158  17.153   3.220 -0.2053 -0.0088  0.1124
 5002W        W25282   8.256   2.699   0.634 -0.0550  0.2373  0.0627
 5003W        W25283   8.194   4.978  14.549 -0.0836 -0.3371  0.2271
 5004W        W25284   1.744  10.263   4.409  0.2014 -0.2299  0.2609
 5005W        W25285   6.091   1.840  15.688  0.0870 -0.1752 -0.2858
 5006W        W25286   4.963   3.225  14.449 -0.4468  0.1611 -0.0867
 5007W        W25287   0.199  14.447  13.936 -0.3903 -0.4843 -0.0369
 5008W        W25288   0.573   4.103   1.673  0.0657  0.0494 -0.0884
 5009W        W25289   3.405   7.704  14.241  0.0067  0.0721 -0.1091
 5010W        W25290  13.590   0.376  15.986 -0.2522  0.0421  0.2237
 5011W        W25291  16.502  15.011  13.614 -0.0649 -0.0842  0.0114
 5012W        W25292   5.738   3.768  12.862  0.0259 -0.3308  0.0408
 5013W        W25293   7.170   8.069   4.085  0.2863  0.0358 -0.1391
 5014W        W25294   4.945   5.612   3.471  0.0499  0.1033  0.1299
 5015W        W25295   0.321   2.513   2.136  0.3229 -0.0463  0.2062
 5016W        W25296   8.911   0.888   4.310  0.0660 -0.1297  0.0768
 5017W        W25297  16.478   1.941   3.817 -0.3984  0.1407  0.0563
 5018W        W25298  13.145  10.874  15.777 -0.0513  0.0050 -0.0403
 5019W        W25299  14.768   6.098   0.350  0.1108 -0.1910  0.0331
 5020W        W25300   6.869   6.358   1.719 -0.4614 -0.0808 -0.0072
 5021W        W25301   7.882   0.528  13.099  0.0089  0.0311  0.0956
 5022W        W25302  14.058  15.114  13.429  0.4898 -0.0079  0.1306
 5023W        W25303  14.319   7.138   4.169  0.3755  0.4025 -0.1250
 5024W        W25304  12.988   2.360   1.897  0.2957  0.1057  0.0643
 5025W        W25305   1.509  13.085   2.304 -0.1467 -0.4132  0.2835
 5026W        W25306   2.593   3.615   2.245 -0.2429 -0.0780 -0.1618
 5027W        W25307  10.828  12.623   3.136 -0.2038 -0.2935 -0.0657
 5028W        W25308   0.921   7.271   4.084  0.0523 -0.4096  0.1688
 5029W        W25309  16.323  15.909   1.986 -0.1381 -0.0953 -0.0182
 5030W        W25310  11.077  17.039  16.771  0.1887  0.1143 -0.1736
 5031W        W25311   9.913   5.089   4.150 -0.1454  0.0470  0.0946
 5032W        W25312   3.898  15.921  13.591  0.0207 -0.0543  0.2427
 5033W        W25313   3.616  16.710   2.636 -0.1281 -0.0743  0.3573
 5034W        W25314  13.064   0.400  15.178 -0.0827  0.0349 -0.2506
 5035W        W25315   0.607   8.487   2.069 -0.2917 -0.2055 -0.0812
 5036W        W25316   3.857  11.060  12.550 -0.1265  0.1059  0.0932
 5037W        W25317   1.179   7.980  13.224 -0.0980 -0.1165 -0.1654
 5038W        W25318   3.245  13.284   3.989 -0.2425  0.1531  0.0911
 5039W        W25319   0.325   8.428  16.548  0.0280  0.3440 -0.1318
 5040W        W25320   6.118   0.355  12.155 -0.1551  0.1171  0.0387
 5041W        W25321   8.646   2.202  14.592  0.0483 -0.0097 -0.2907
 5042W        W25322   1.019  11.835   3.046  0.1249 -0.2605  0.0636
 5043W        W25323   8.269   7.332   2.984  0.1886  0.0402 -0.0231
 5044W        W25324  13.608   2.504   2.706 -0.3067  0.0493  0.1162
 5045W        W25325   1.664   4.210   4.466  0.2645 -0.0341  0.2684
 5046W        W25326  11.725   3.466   3.899  0.0878  0.1434 -0.1455
 5047W        W25327   6.686   1.022   4.467 -0.1668 -0.0316  0.1214
 5048W        W25328   0.563   1.181   0.682 -0.0823 -0.0743 -0.3335
 5049W        W25329   8.123  10.866   2.588 -0.2823  0.0816  0.4016
 5050W        W25330   3.266   1.480  12.046  0.2021 -0.0997 -0.1476
 5051W        W25331  11.445  14.072   0.224  0.3107  0.1307 -0.0941
 5052W        W25332   7.870   3.690   3.398 -0.2328  0.3055 -0.1258
 5053W        W25333   2.085   5.030   0.649  0.0743 -0.3634 -0.1956
 5054W        W25334   1.631  15.533  15.575  0.3136  0.2007  0.2211
 5055W        W25335   7.121   3.057   1.590 -0.0612 -0.2627 -0.0598
 5056W        W25336   5.482  17.194  12.616 -0.3393  0.2412  0.1017
 5057W        W25337  14.933   8.273   0.147  0.4124 -0.0449 -0.0830
 5058W        W25338  11.379  12.237  15.721 -0.3050 -0.2275 -0.1933
 5059W        W25339   3.767   2.942  12.790 -0.1445 -0.2699  0.0303
 5060W        W25340   9.961   5.448  15.240  0.2617  0.0238  0.1533
 5061W        W25341  16.778   3.032  16.119  0.0377 -0.0872 -0.1995
 5062W        W25342  13.996   8.234  15.762  0.3286 -0.3170 -0.0077
 5063W        W25343   3.948   0.910  12.730  0.1219  0.0187 -0.1141
 5064W        W25344   0.174  15.072  15.321 -0.1505  0.0727  0.4704
 5065W        W25345   3.055   2.617   0.795 -0.1554 -0.3197 -0.1513
 5066W        W25346  13.444  16.141   5.339  0.0656  0.1276 -0.1028
 5067W        W25347   5.664   9.694   1.343  0.1310  0.0754 -0.0691
 5068W        W25348   4.930   8.551   2.148  0.0796 -0.0869  0.0832
 5069W        W25349  12.400  14.091  15.301 -0.0554  0.0696 -0.2624
 5070W        W25350   5.920  15.474   3.366  0.0228  0.2699 -0.1588
 5071W        W25351   3.202   9.531   1.956 -0.0244 -0.1179  0.0276
 5072W        W25352   5.765   5.843  14.071 -0.1906  0.3590  0.4342
 5073W        W25353  12.740   5.099   2.583  0.0046  0.1756 -0.0946
 5074W        W25354  14.311  10.340  14.887 -0.0474 -0.2042  0.0885
 5075W        W25355   8.765  11.071  14.019  0.0648  0.0442  0.0837
 5076W        W25356  10.075  12.471  14.378  0.0548  0.1800  0.2514
 5077W        W25357   1.874  15.149   0.710  0.0774 -0.1287  0.0387
 5078W        W25358   5.378  16.385  15.702 -0.1399  0.0099  0.0115
 5079W        W25359  11.854  12.339   1.409 -0.2987 -0.1394  0.0248
 5080W        W25360   7.260   6.185   4.149 -0.0668 -0.0291  0.0975
 5081W        W25361   2.456   8.976  14.324  0.1313  0.1617 -0.0148
 5082W        W25362  11.933   4.861   2.481  0.0064 -0.0562  0.4004
 5083W        W25363   8.701  13.396  16.149 -0.3026  0.1010 -0.1593
 5084W        W25364   1.279   6.294  12.448 -0.0048 -0.0336  0.3152
 5085W        W25365   3.304  16.317  15.627  0.3949 -0.0265 -0.1261
 5086W        W25366  13.692   4.093   1.996 -0.1716 -0.2866  0.4265
 5087W        W25367  12.996   6.520   1.780  0.2029 -0.0699  0.1620
 5088W        W25368   9.628   9.385   1.400 -0.0490  0.0879  0.1136
 5089W        W25369   3.311  12.681  14.037 -0.1487 -0.4232  0.4235
 5090W        W25370   0.810  16.795  12.081 -0.3701  0.2720  0.1986
 5091W        W25371  16.848   4.874   0.092  0.2903 -0.0148  0.0993
 5092W        W25372  12.317   2.718  14.310  0.0778  0.2902 -0.1027
 5093W        W25373   9.591   9.883   2.357  0.3610  0.0758  0.3736
 5094W        W25374   7.262  13.348  13.752 -0.0175 -0.2516  0.1687
 5095W        W25375  15.795  14.695  12.902  0.0788  0.0616  0.0130
 5096W        W25376  14.328   8.078   4.108 -0.0441 -0.1431 -0.2379
 5097W        W25377  14.526   0.193   0.537 -0.2598  0.0413 -0.1851
 5098W        W25378   7.298  14.235   3.367 -0.0112  0.0717 -0.0282
 5099W        W25379   5.018   0.367  15.336  0.2355 -0.0047 -0.1329
 5100W        W25380   0.906   1.478   0.899 -0.2402 -0.0390  0.1175
 5101W        W25381  12.432  11.505   2.781 -0.1131 -0.0320 -0.1782
 5102W        W25382   7.353   4.040   4.860  0.2852 -0.0166  0.3478
 5103W        W25383  15.791  13.017  14.066 -0.1201  0.1833 -0.1586
 5104W        W25384   0.983  12.768  16.857 -0.2059  0.1818  0.0357
 5105W        W25385   1.353  17.180  12.470 -0.2941 -0.1966  0.1282
 5106W        W25386  14.669   9.039  13.117 -0.3022 -0.2117  0.0098
 5107W        W25387  11.739  13.910  16.312 -0.0077  0.1319 -0.2542
 5108W        W25388   5.510   4.429  12.013 -0.0055 -0.2632  0.0017
 5109W        W25389  16.347   6.782  12.782  0.2564 -0.0361  0.1797
 5110W        W25390   1.110   0.058   1.093  0.1363  0.2287 -0.0894
 5111W        W25391  13.040   0.318   1.130  0.1476 -0.1002  0.1680
 5112W        W25392   6.284   4.511  14.155 -0.0739 -0.0357 -0.0400
 5113W        W25393   4.530   8.651  14.113  0.1135 -0.0343  0.3662
 5114W        W25394  15.222   9.144  13.231  0.3055  0.3103  0.0252
 5115W        W25395   7.483  12.001  14.872  0.0554  0.1039 -0.1871
 5116W        W25396   9.633   8.577  13.260  0.0506 -0.1422 -0.0101
 5117W        W25397  16.640   6.417   3.913 -0.4889  0.1774 -0.0945
 5118W        W25398   6.351   9.688  13.904  0.2593  0.2054 -0.0308
 5119W        W25399   8.750   8.689   3.464 -0.1119 -0.0972 -0.0581
 5120W        W25400   2.545   3.036   4.337  0.1125  0.2463 -0.0688
 5121W        W25401   0.269   6.257   3.591 -0.1299  0.2579  0.0850
 5122W        W25402  12.999   7.910   3.695 -0.0155  0.0220  0.1850
 5123W        W25403  17.604  13.800  15.950 -0.1710  0.3125  0.0512
 5124W        W25404   2.201   7.291  15.913  0.2675 -0.0584 -0.2305
 5125W        W25405  15.653  10.105   0.257 -0.0674  0.0982  0.1948
 5126W        W25406   2.599   6.801  13.575 -0.0659 -0.3075 -0.2656
 5127W        W25407   7.358   0.981   2.676 -0.0278  0.0487  0.1350
 5128W        W25408   7.332  13.714   1.232  0.1117 -0.0244  0.1344
 5129W        W25409  13.245   6.139  13.821  0.1977 -0.1392  0.4402
 5130W        W25410   0.800   8.076  12.968 -0.0270 -0.0857 -0.0527
 5131W        W25411  14.176  11.752  16.189  0.0510  0.0043 -0.3492
 5132W        W25412   4.244  10.066   4.288 -0.1559 -0.1539 -0.2045
 5133W        W25413   3.365  17.457   5.853  0.0567  0.0077 -0.3247
 5134W        W25414  11.824   3.387   1.811  0.0846  0.0381  0.0456
 5135W        W25415  16.328   5.353   1.663 -0.0337 -0.1279 -0.3678
 5136W        W25416  12.783  14.011  12.356 -0.1401 -0.0204  0.0499
 5137W        W25417  14.540   4.356   3.675  0.2229  0.1178 -0.1085
 5138W        W25418   5.713   9.698   2.257  0.1100 -0.1428 -0.3037
 5139W        W25419   3.807  11.388   1.957  0.1877 -0.0030 -0.1923
 5140W        W25420   9.540   7.770  14.093  0.0802  0.0321  0.0033
 5141W        W25421   1.302  16.387   5.021  0.2134  0.0590 -0.1515
 5142W        W25422   5.625   1.791  14.535  0.1032 -0.2288 -0.0154
 5143W        W25423   3.838  12.841   0.220  0.0767  0.2172  0.0904
 5144W        W25424  17.101  14.009   4.368  0.1731 -0.0246 -0.3621
 5145W        W25425   2.615   0.878   2.592 -0.0243  0.2415 -0.0602
 5146W        W25426   7.893  15.754  15.885  0.0174  0.0074  0.3061
 5147W        W25427   4.520  11.992  15.659 -0.2598 -0.1345  0.5414
 5148W        W25428   1.274   2.494   0.415 -0.0357 -0.0406  0.0067
 5149W        W25429   6.556   4.040  15.909 -0.2184 -0.2788  0.3258
 5150W        W25430   9.508   7.251  16.206  0.2255 -0.0618 -0.0145
 5151W        W25431  13.152   4.336   1.548  0.0955 -0.0128  0.1195
 5152W        W25432  16.007  12.184  15.202 -0.1206  0.1710  0.1883
 5153W        W25433   9.800  12.447   0.135  0.1663  0.0163  0.0906
 5154W        W25434  13.567   6.068  13.428  0.0104  0.2653 -0.4374
 5155W        W25435   0.764  15.094   2.656  0.2349 -0.1437  0.0030
 5156W        W25436   3.338  17.528  16.212 -0.2246  0.0833 -0.2211
 5157W        W25437   0.997   9.951   2.948  0.0135 -0.0901 -0.1120
 5158W        W25438  16.743   1.602   0.778 -0.0231  0.0506  0.0416
 5159W        W25439   2.223   0.434   1.900  0.3454 -0.2221 -0.0907
 5160W        W25440   6.747  15.512   1.166  0.1580  0.0838 -0.2902
 5161W        W25441  12.131   8.359   3.921 -0.3713  0.0195  0.2430
 5162W        W25442   1.272   2.158   1.810 -0.1015  0.0171 -0.3827
 5163W        W25443  13.894  13.830   2.177  0.0365 -0.0189  0.0224
 5164W        W25444  11.081  16.385   3.729  0.1318  0.0597  0.2231
 5165W        W25445  11.107  10.713  12.771  0.1547 -0.4055  0.1737
 5166W        W25446   6.597  11.986  16.212  0.2139  0.0559  0.4754
 5167W        W25447  13.892  13.644  14.697 -0.1314 -0.0758  0.0674
 5168W        W25448   4.783   7.315   3.414 -0.0953 -0.1941 -0.4545
 5169W        W25449   2.191   8.512   3.123  0.6119 -0.0578 -0.5402
 5170W        W25450  17.548  12.131   4.738  0.3530  0.1889  0.0298
 5171W        W25451  10.749   6.402   3.727  0.3480 -0.2534 -0.1981
 5172W        W25452  11.460  12.606   2.114  0.1320 -0.1449 -0.0282
 5173W        W25453   0.228   0.244   4.229 -0.4226  0.0416 -0.0297
 5174W        W25454   7.271  11.466  13.460  0.0036 -0.0524  0.2658
 5175W        W25455   6.050  15.784  12.202  0.0365 -0.0014 -0.1736
 5176W        W25456   2.882  10.947  14.076 -0.0576 -0.0357 -0.2831
 5177W        W25457  11.967   8.001   4.462  0.0484  0.0669 -0.1489
 5178W        W25458   9.682  14.262  16.086 -0.0231  0.1614  0.1501
 5179W        W25459  14.863   9.431  14.897 -0.2897  0.0043  0.0403
 5180W        W25460  14.953   7.663   1.838  0.0699 -0.0146 -0.3182
 5181W        W25461  16.078  15.908  13.723 -0.2700 -0.1365 -0.1456
 5182W        W25462   3.274   7.948  15.618  0.1260 -0.0049  0.4202
 5183W        W25463   9.822   5.378  13.595  0.2612 -0.0078 -0.0875
 5184W        W25464   0.148   1.330  12.172  0.1344 -0.1566  0.0830
 5185W        W25465   4.516   8.133  14.225  0.0048 -0.1128  0.1709
 5186W        W25466  12.867   9.514  15.804 -0.1777  0.1524  0.0046
 5187W        W25467   7.559   3.292   3.269 -0.0843  0.0992 -0.1028
 5188W        W25468   1.135   7.504  16.566  0.1456 -0.2473 -0.2321
 5189W        W25469   6.665  16.669   2.754 -0.0367  0.2013 -0.0804
 5190W        W25470  16.642  11.427  13.766  0.0011 -0.0174  0.1482
 5191W        W25471   1.282   9.259   1.245  0.0169 -0.1795  0.0074
 5192W        W25472  17.227  15.486   4.880  0.1191  0.3248 -0.1665
 5193W        W25473   4.389  14.302   1.951 -0.2062 -0.3260 -0.3693
 5194W        W25474  15.607   1.942  12.742 -0.0671 -0.0158  0.0423
 5195W        W25475   9.754   4.203   2.509  0.0058  0.1562 -0.2799
 5196W        W25476   3.284  14.271   4.847 -0.1006 -0.2774 -0.0445
 5197W        W25477  15.577   6.944   4.328  0.2169  0.2109 -0.0791
 5198W        W25478   9.942   4.717  15.876 -0.0134 -0.2271 -0.0020
 5199W        W25479   2.331   6.930   4.542 -0.1892 -0.1219 -0.0271
 5200W        W25480   5.905  16.423   2.292 -0.1543 -0.0636 -0.0787
 5201W        W25481   8.763   2.500  15.598  0.0979 -0.1581  0.1354
 5202W        W25482  14.275   2.027   0.360  0.2200 -0.0799  0.3015
 5203W        W25483   1.152   2.771  12.587  0.1158  0.1978  0.0610
 5204W        W25484   8.505  12.070  13.775  0.0733  0.0585 -0.0121
 5205W        W25485   8.737   5.141  14.265 -0.0064  0.4924 -0.4859
 5206W        W25486  12.401  11.851   4.740  0.0896 -0.0038  0.1777
 5207W        W25487   3.775  17.206   4.631 -0.2189 -0.2915  0.0869
 5208W        W25488  10.688   1.545   5.297 -0.0397  0.0017 -0.0326
 5209W        W25489  17.071   6.372  16.854 -0.1261  0.4995  0.0639
 5210W        W25490  11.470   0.582   3.159  0.0010 -0.1396 -0.0547
 5211W        W25491   7.349   8.277   1.784  0.1332  0.0102 -0.0886
 5212W        W25492  11.466   7.665   3.135 -0.1340  0.0470 -0.0340
 5213W        W25493   5.189  13.288   1.072 -0.0883  0.0909  0.5171
 5214W        W25494  11.838   3.303  11.772 -0.0106  0.0563  0.2139
 5215W        W25495  15.017  17.199  12.395  0.0116 -0.2070 -0.0733
 5216W        W25496  10.768   1.374  13.922 -0.3053  0.0019  0.1620
 5217W        W25497   7.908  11.505   2.761  0.2456  0.2447 -0.2530
 5218W        W25498  17.578   1.023  16.540 -0.2701 -0.0114  0.0584
 5219W        W25499  14.633   6.755   4.439 -0.0926 -0.3822  0.1911
 5220W        W25500   7.543  15.306  13.048 -0.0955 -0.1353 -0.1792
 5221W        W25501  16.463  11.576  14.253  0.0940  0.2014  0.2073
 5222W        W25502   5.983  16.534   1.683 -0.1274  0.0717 -0.1173
 5223W        W25503  11.677   0.975   2.797 -0.0454 -0.0336  0.1777
 5224W        W25504   9.984  13.291  13.688 -0.0315  0.1089 -0.0840
 5225W        W25505   0.145   6.807  14.562  0.0009 -0.0071  0.2756
 5226W        W25506  11.501  14.469   4.371  0.0860  0.1778 -0.0824
 5227W        W25507  14.305   1.685   4.321 -0.2770  0.1817 -0.1134
 5228W        W25508  10.907   3.588  13.422 -0.2771  0.0695  0.0168
 5229W        W25509   0.870  10.887   4.548 -0.3686  0.0348 -0.0591
 5230W        W25510   6.924   6.497  12.228 -0.0752 -0.4387 -0.1263
 5231W        W25511   1.402  17.623   4.202  0.2027 -0.2445 -0.4193
 5232W        W25512   9.701   8.763  12.744  0.2127  0.0439 -0.0380
 5233W        W25513   7.827   5.238  13.684  0.1092  0.0970 -0.0638
 5234W        W25514   0.115   5.068   3.140  0.0073  0.1024 -0.0662
 5235W        W25515   7.492   9.188   1.359  0.0691 -0.1776  0.1690
 5236W        W25516  17.378  16.615  16.471  0.2739 -0.1512  0.2499
 5237W        W25517  12.748  17.276  12.680  0.1452  0.0638 -0.3433
 5238W        W25518   6.779   5.017  12.164  0.2257 -0.0986  0.0149
 5239W        W25519   5.211   8.663   4.642 -0.2652 -0.2618 -0.1243
 5240W        W25520   1.863  16.842   2.949  0.1123  0.0093 -0.1235
 5241W        W25521   9.406  16.890   0.076  0.2380  0.2061  0.0885
 5242W        W25522   8.251   9.820  15.588 -0.0350 -0.0490  0.2052
 5243W        W25523  12.662   8.066  16.785 -0.1123  0.0836  0.0477
 5244W        W25524  16.584  14.215  14.341 -0.0163  0.0523 -0.0021
 5245W        W25525   7.982   4.118   4.257 -0.3727 -0.1588 -0.2620
 5246W        W25526   4.692   8.363   1.685  0.0793 -0.2584  0.3241
 5247W        W25527   7.894  11.177  14.912 -0.1973  0.0927  0.0528
 5248W        W25528  16.242  14.519   2.934 -0.1523 -0.0120  0.3745
 5249W        W25529  15.791  14.038  15.740  0.1109  0.3681  0.3426
 5250W        W25530   2.814   1.814   3.127 -0.0151  0.1886 -0.0279
 5251W        W25531  12.200   8.795   2.818 -0.0390  0.1909  0.2723
 5252W        W25532   0.366   7.990   3.669 -0.2312  0.1718  0.2182
 5253W        W25533   3.266  11.597   4.409  0.3693 -0.0580  0.1343
 5254W        W25534  15.430  12.989  12.274 -0.0590  0.1644  0.0869
 5255W        W25535   4.389  16.585   2.609 -0.1987 -0.0911  0.0918
 5256W        W25536  10.031   5.650  14.707 -0.0006  0.0587  0.0033
 5257W        W25537   4.682   9.950   2.175 -0.1373  0.0625  0.4264
 5258W        W25538   0.967   7.216   2.483  0.0780 -0.4096  0.0191
 5259W        W25539  15.899  14.422   5.087 -0.1847 -0.0053 -0.4736
 5260W        W25540   8.671   5.654   4.648 -0.3101  0.0201 -0.0825
 5261W        W25541   1.492  12.708  16.395  0.1827 -0.0635 -0.0383
 5262W        W25542  14.950   1.153  12.764 -0.0991 -0.0897 -0.3175
 5263W        W25543   6.760   3.396   0.304  0.1962 -0.2161  0.0068
 5264W        W25544   5.909   1.329  14.828 -0.1239  0.0794 -0.0229
 5265W        W25545  10.762  10.570   2.928  0.1256 -0.0278  0.0118
 5266W        W25546   5.232   2.945  12.742 -0.0870 -0.1804  0.0250
 5267W        W25547  11.904  10.420  15.343 -0.0471  0.1568  0.2073
 5268W        W25548   0.458   6.640   0.335  0.0075 -0.4009 -0.0119
 5269W        W25549  15.450   8.523  16.468 -0.0171 -0.1028  0.0345
 5270W        W25550   7.499  13.908  12.975 -0.1233 -0.3828  0.0261
 5271W        W25551   0.161   2.857  16.646  0.0314 -0.0445 -0.0769
 5272W        W25552   0.096   3.289  14.900  0.0306  0.1968 -0.2046
 5273W        W25553   2.331   1.803  14.213  0.0008  0.0845  0.1765
 5274W        W25554  14.223  10.521  16.697  0.0836 -0.1559  0.1062
 5275W        W25555   7.367  12.856  12.015 -0.0294 -0.0155  0.0411
 5276W        W25556   1.283   9.669  16.076  0.1916 -0.3774 -0.0060
 5277W        W25557   8.065  14.389   1.555 -0.2177  0.0508 -0.0213
 5278W        W25558   1.938   2.701   3.598  0.3009 -0.1701  0.1525
 5279W        W25559  14.110   9.735   2.042 -0.0749 -0.2037 -0.0439
 5280W        W25560  13.190   0.327   0.641 -0.1710  0.0605  0.1045
 5281W        W25561   7.133   5.212  15.004 -0.1963  0.1349  0.1206
 5282W        W25562  11.420   4.241  15.945 -0.0573  0.0311 -0.3338
 5283W        W25563   7.449   8.517   3.167  0.0377  0.0754  0.0213
 5284W        W25564  12.945   3.692   4.923  0.1192 -0.1953 -0.2261
 5285W        W25565   6.508  13.179   3.713 -0.2381 -0.3375 -0.0285
 5286W        W25566   8.462   5.072   2.072 -0.1224 -0.0980 -0.0179
 5287W        W25567  10.116   4.580  12.233 -0.1166  0.2463 -0.0223
 5288W        W25568   8.147   3.616  13.143 -0.2854 -0.2229 -0.2473
 5289W        W25569  11.507   6.655   1.304  0.3717 -0.0515 -0.3631
 5290W        W25570  10.420  17.366   1.187 -0.1130  0.0428 -0.3617
 5291W        W25571   3.938   9.871   1.099  0.1317  0.0641 -0.2793
 5292W        W25572   6.252  17.388   0.562  0.0008 -0.0928 -0.1418
 5293W        W25573  10.440  16.525  12.620  0.3236  0.2821 -0.0280
 5294W        W25574  10.671  15.606   1.906 -0.0316 -0.0403  0.1088
 5295W        W25575   8.536   5.762   0.222  0.0199  0.0344  0.1453
 5296W        W25576   6.204   1.765   4.560 -0.1485  0.0074  0.1689
 5297W        W25577  15.786   6.349   3.376 -0.0997 -0.0408  0.0572
 5298W        W25578   7.163   1.304  16.869  0.3010  0.0352 -0.0964
 5299W        W25579   7.286  16.174  13.211 -0.0759 -0.0348  0.1146
 5300W        W25580  10.836   4.137  13.498  0.0430  0.0330  0.1683
 5301W        W25581  12.015  17.204  12.189 -0.0758  0.5387 -0.0423
 5302W        W25582  16.050   0.238  12.396 -0.1471 -0.0957 -0.0079
 5303W        W25583  14.676   6.520  14.004 -0.0547 -0.1384 -0.1181
 5304W        W25584  14.257  12.553  15.343  0.0298  0.0926  0.2659
 5305W        W25585  16.035   6.052   4.760  0.1590 -0.0277  0.2028
 5306W        W25586   1.069  13.615   2.960  0.4904  0.2895  0.1200
 5307W        W25587   6.057   6.561  15.850 -0.1309 -0.0439 -0.1251
 5308W        W25588   2.765   8.100  15.373  0.0603  0.2305  0.0046
 5309W        W25589   3.566   3.691  16.335 -0.1840 -0.0145  0.0099
 5310W        W25590   1.030  13.560  13.422  0.0151  0.4634 -0.0866
 5311W        W25591  15.499  12.358   1.726 -0.0778 -0.0210  0.0953
 5312W        W25592   8.830  16.656   2.742 -0.0384 -0.2076 -0.0108
 5313W        W25593  12.010   6.684  12.742  0.0224 -0.1063 -0.1595
 5314W        W25594  14.954  16.316  12.819  0.2647  0.0084 -0.0849
 5315W        W25595   2.802   0.280  14.090 -0.2174  0.0861 -0.0815
 5316W        W25596  15.526  11.034  12.903 -0.1665  0.1505 -0.1992
 5317W        W25597   1.681   5.309  12.210  0.3721  0.1145  0.0074
 5318W        W25598   7.771  10.764  16.293 -0.0219  0.0755 -0.1636
 5319W        W25599   5.162   4.325   1.343  0.0102 -0.0109 -0.0206
 5320W        W25600  13.408  12.007  13.689  0.0673  0.0079 -0.0634
 5321W        W25601   0.538   3.546  16.572  0.0818  0.0207 -0.2362
 5322W        W25602  11.662  10.747  16.037 -0.0626  0.2642  0.0381
 5323W        W25603  16.881   2.116  14.514  0.3070  0.2640 -0.0528
 5324W        W25604   7.714   4.711  15.699  0.1926 -0.2583 -0.0858
 5325W        W25605   4.131   4.319   3.758 -0.2476 -0.3766  0.0740
 5326W        W25606   6.322  15.619   4.779  0.1004 -0.0552  0.1595
 5327W        W25607  15.444  10.736   3.928  0.4986 -0.3330  0.4286
 5328W        W25608   0.475   8.556  13.734  0.1602  0.0445  0.1653
 5329W        W25609   3.607  10.097   3.690  0.2333  0.1054 -0.1605
 5330W        W25610  16.911   5.882   0.038 -0.0828 -0.2263  0.0894
 5331W        W25611  17.227   7.594   0.384 -0.1573  0.2688 -0.0107
 5332W        W25612   9.553   2.943   2.130  0.1473 -0.3326  0.3122
 5333W        W25613   0.027  16.097  13.057 -0.1299  0.0161 -0.1529
 5334W        W25614   1.992  10.217  12.359  0.0438  0.2512 -0.0836
 5335W        W25615   7.376   2.653  12.880 -0.2268 -0.1550  0.4203
 5336W        W25616  13.526  15.220   2.191 -0.0627 -0.0255  0.1650
 5337W        W25617  11.274  12.694  12.957 -0.0870  0.2265  0.0718
 5338W        W25618  11.886   6.521   4.981  0.0037  0.1733 -0.0959
 5339W        W25619  10.270  10.869  12.375  0.0584 -0.2750 -0.1299
 5340W        W25620   4.723  12.454   4.226  0.1628 -0.0477  0.0347
 5341W        W25621   6.505   9.204   2.417  0.0172  0.0180  0.1201
 5342W        W25622  17.129   7.796   1.988 -0.1294  0.0660 -0.1721
 5343W        W25623   1.636   3.421   2.537  0.0562  0.1066  0.1946
 5344W        W25624  10.648   0.705   1.400  0.2761 -0.0048 -0.0368
 5345W        W25625  11.015  12.882   2.181  0.1302 -0.0791 -0.0892
 5346W        W25626   6.496   4.024  12.183  0.1424 -0.0532  0.1402
 5347W        W25627  13.353   5.043   2.617 -0.0845  0.1872  0.0927
 5348W        W25628   1.552  14.758  12.863 -0.0205 -0.2947 -0.1287
 5349W        W25629  14.307   0.971  15.059 -0.0862 -0.0318  0.2148
 5350W        W25630   9.701   6.057   3.158 -0.0834  0.1783 -0.2100
 5351W        W25631  17.186   6.393  13.163  0.0433 -0.0656  0.3301
 5352W        W25632  16.044  17.015   0.215  0.0972  0.1301  0.0635
 5353W        W25633  16.869   7.853   4.672  0.0154  0.2009 -0.0761
 5354W        W25634   1.313  16.419  14.413  0.2576  0.2869 -0.0813
 5355W        W25635   9.932   7.338   2.660  0.1093  0.3091 -0.0532
 5356W        W25636  11.972   2.246   2.424  0.3845  0.3071 -0.3877
 5357W        W25637  13.277  15.173  15.601  0.1713  0.0284  0.2337
 5358W        W25638   9.113   5.586  14.819 -0.0851 -0.0622 -0.1166
 5359W        W25639  17.439   3.893   0.315  0.3223 -0.0424  0.0827
 5360W        W25640  14.932  12.040  13.606  0.0104  0.1034  0.2118
 5361W        W25641   1.526  16.000  16.516 -0.0631  0.3696  0.0234
 5362W        W25642  14.230   5.699   0.317  0.2067  0.0323 -0.0213
 5363W        W25643  10.044   2.638  15.069 -0.0160 -0.2750 -0.2553
 5364W        W25644   7.158   9.316  12.997  0.0316  0.0137  0.1414
 5365W        W25645   2.526   4.653   1.396  0.1291  0.3056 -0.1126
 5366W        W25646  15.480  12.956   3.021  0.1307 -0.0501  0.0902
 5367W        W25647   2.429  10.099   2.095 -0.2290 -0.0798  0.2993
 5368W        W25648  15.794   9.104  13.110 -0.3005 -0.0512  0.2170
 5369W        W25649  10.567   6.489  13.914 -0.0392 -0.1157  0.0608
 5370W        W25650  17.519  16.715   1.936 -0.0761  0.0607 -0.1902
 5371W        W25651  13.516   0.675   0.431 -0.2179  0.1779  0.1532
 5372W        W25652  12.115   9.279  12.651  0.0808  0.0584 -0.1401
 5373W        W25653   7.169   8.023   2.473 -0.0517  0.1272  0.3468
 5374W        W25654  17.439   8.198  13.647 -0.0454  0.1407 -0.1428
 5375W        W25655  10.194   0.182  14.629  0.0019  0.1208  0.2660
 5376W        W25656   5.337   7.740  14.162  0.1807 -0.0859 -0.0574
 5377W        W25657   7.787  10.388   3.044  0.0938 -0.1052  0.0348
 5378W        W25658  16.692  16.088   2.237  0.0434  0.2372 -0.2106
 5379W        W25659   5.432   8.227   4.683 -0.0691  0.2478  0.0189
 5380W        W25660  12.766  11.613  16.253  0.0384 -0.2659 -0.0370
 5381W        W25661   9.503  12.970  16.313  0.1502  0.0707 -0.2661
 5382W        W25662   0.936   1.615  15.304  0.1959 -0.1496 -0.3309
 5383W        W25663   3.166  11.527   2.625 -0.1646 -0.0049  0.1261
 5384W        W25664   8.575   6.419  13.921  0.0920  0.0565 -0.4130
 5385W        W25665  16.075  11.988  15.665  0.1476  0.0667 -0.1182
 5386W        W25666  13.717  17.181   0.569 -0.1224  0.1865 -0.2260
 5387W        W25667  17.136   9.483  16.768  0.3977  0.0435  0.1442
 5388W        W25668   9.582  14.667  13.320  0.0950 -0.1130  0.1093
 5389W        W25669   9.886  15.395   0.707 -0.2290 -0.0214  0.1368
 5390W        W25670   8.033  16.087   4.178  0.1151  0.0031 -0.1345
 5391W        W25671  10.450  15.366  12.867 -0.0655  0.0546  0.1270
 5392W        W25672  15.214  15.141  16.497  0.0113 -0.0866 -0.1706
 5393W        W25673  14.197   3.070   1.493 -0.0451  0.0929  0.1396
 5394W        W25674   6.423   2.335   3.299  0.2100 -0.0916 -0.0545
 5395W        W25675   4.299  12.957  15.020 -0.0642 -0.0418  0.2126
 5396W        W25676   6.503   7.852   3.395  0.0796 -0.2624 -0.0344
 5397W        W25677   3.366  13.920  13.516  0.0295  0.1008 -0.1990
 5398W        W25678  13.224   2.258   0.942 -0.1726  0.1783 -0.1136
 5399W        W25679   5.266   7.685  16.013  0.3880  0.2263  0.1434
 5400W        W25680  14.352   7.515   3.251 -0.2428  0.2334  0.1954
 5401W        W25681   1.447  11.171  14.560  0.0609 -0.0472 -0.2735
 5402W        W25682   8.289  17.271  12.306 -0.2005  0.0863 -0.0315
 5403W        W25683  14.698  10.653  14.807 -0.0821  0.1572  0.2645
 5404W        W25684   6.770  13.141   2.093  0.0140 -0.0064 -0.0747
 5405W        W25685   9.190   0.599  13.784  0.2165  0.3322 -0.3562
 5406W        W25686   5.447   3.430   3.558 -0.1463  0.2358 -0.1031
 5407W        W25687   3.723   4.233   4.184 -0.1635  0.2819  0.1603
 5408W        W25688  15.170  16.651   4.800 -0.0228 -0.1013  0.0981
 5409W        W25689   7.319  14.345  12.808 -0.0198  0.1523 -0.1859
 5410W        W25690   2.030  10.836  14.977 -0.0570  0.1235  0.1805
 5411W        W25691   5.608   0.082  14.078 -0.0888 -0.0390 -0.2618
 5412W        W25692  16.774   8.422  14.047  0.2713  0.0251 -0.0608
 5413W        W25693   6.713   5.563   4.479  0.1562  0.1747 -0.1136
 5414W        W25694   3.277   6.413  12.290  0.2517  0.0655 -0.0162
 5415W        W25695   5.487   7.752   2.401 -0.1877 -0.3177  0.1489
 5416W        W25696   6.220   9.998   3.522  0.1776 -0.1564  0.1291
 5417W        W25697  14.293   4.195  14.793  0.1340 -0.2048 -0.2338
 5418W        W25698  11.454  12.605  14.403 -0.1412 -0.3925 -0.2875
 5419W        W25699   4.834  11.927  12.073  0.0073  0.4759 -0.2511
 5420W        W25700   2.755   2.500  14.397  0.0160 -0.1028  0.0309
 5421W        W25701  14.529   2.183  12.933 -0.2167  0.0876  0.1891
 5422W        W25702   3.245  12.511  12.686  0.0433 -0.2081 -0.1124
 5423W        W25703  17.433  15.703  14.690 -0.0212 -0.0881 -0.0179
 5424W        W25704   7.406   4.901   0.237  0.0298  0.1988  0.2834
 5425W        W25705   3.152  13.320   1.880  0.1869 -0.0315  0.1209
 5426W        W25706  17.200   7.084  14.367 -0.0584 -0.0665 -0.0038
 5427W        W25707  16.324   1.499  12.684  0.0244 -0.0195 -0.0233
 5428W        W25708  17.463   4.924   3.505  0.1217 -0.1645  0.2159
 5429W        W25709  17.147   7.136   0.860 -0.1800 -0.1999  0.1780
 5430W        W25710  11.819  17.270   0.978  0.2984 -0.1951 -0.1970
 5431W        W25711   9.290   0.646  12.396 -0.0213  0.0632 -0.0043
 5432W        W25712   0.114   2.948  12.379 -0.2367 -0.3230 -0.0864
 5433W        W25713  10.820  14.967   3.971  0.1453 -0.0569 -0.0677
 5434W        W25714   7.421   2.337   0.296  0.0878 -0.1867 -0.1272
 5435W        W25715   8.802   2.642   4.176  0.1219 -0.2072  0.3582
 5436W        W25716   7.084  10.519   4.513  0.0122 -0.0293 -0.3824
 5437W        W25717   2.642   4.611  13.359  0.0256  0.0610 -0.1545
 5438W        W25718   9.321   0.238  13.374  0.0012 -0.2717 -0.0555
 5439W        W25719   0.596  13.426  13.044 -0.0965 -0.0049  0.4549
 5440W        W25720  16.872   7.962  12.855 -0.1546  0.1474 -0.0689
 5441W        W25721  14.450   2.234   3.069  0.5430 -0.0020  0.4664
 5442W        W25722  12.822   9.065   2.116  0.3671 -0.3818 -0.3806
 5443W        W25723   0.449  11.715   3.057 -0.0502 -0.2629  0.1349
 5444W        W25724   5.261  15.769  14.632  0.1183  0.3799 -0.0482
 5445W        W25725  12.234  13.865   4.752  0.1980  0.1804 -0.0448
 5446W        W25726   4.960  12.071   3.943  0.1340 -0.2768  0.0505
 5447W        W25727  13.520   3.364  15.132 -0.0464  0.2127  0.3727
 5448W        W25728  11.806  10.765   4.339 -0.1723  0.0464  0.0068
 5449W        W25729   8.274  11.327   4.516 -0.2290 -0.1126  0.0502
 5450W        W25730  11.128  11.332  12.355  0.1166 -0.1709 -0.1744
 5451W        W25731   0.731   9.221  16.018  0.0352  0.1616 -0.1082
 5452W        W25732  15.368  11.925   4.273  0.0536  0.1598 -0.2099
 5453W        W25733  15.107  10.823   1.988  0.0529 -0.1411 -0.1512
 5454W        W25734   8.951   0.046  15.975 -0.1227  0.4023  0.1225
 5455W        W25735  14.693  14.382   3.316 -0.1843  0.4891 -0.3330
 5456W        W25736  17.657  10.313  14.559 -0.0727  0.0361  0.0625
 5457W        W25737   9.799   5.842  16.646  0.0621  0.4182  0.2156
 5458W        W25738   7.218  16.363  12.186 -0.3074 -0.1317 -0.1832
 5459W        W25739  12.184  10.238  12.764  0.0073  0.1868  0.0202
 5460W        W25740  11.909   1.754   2.419 -0.0149 -0.1334  0.1613
 5461W        W25741   1.069  13.133   3.096  0.2470 -0.2521  0.1501
 5462W        W25742   1.811  16.760  15.850  0.3145  0.1068 -0.1341
 5463W        W25743  10.435   4.160  12.179  0.0862  0.3587 -0.1512
 5464W        W25744   8.346   8.206  15.260  0.0241  0.2403  0.0895
 5465W        W25745   7.054  16.265  16.201  0.0497  0.2017  0.2535
 5466W        W25746  13.571   3.939   0.450 -0.1604 -0.0162  0.0548
 5467W        W25747   6.924   8.522   3.892  0.3139 -0.1931  0.0390
 5468W        W25748   5.539  11.252   0.496 -0.0584  0.2503  0.1335
 5469W        W25749  11.196   2.484  12.520 -0.3436 -0.2515 -0.1433
 5470W        W25750   5.027  11.674   2.551 -0.0211  0.0624  0.0635
 5471W        W25751   4.645  17.431  14.944  0.1316 -0.3070 -0.3410
 5472W        W25752  13.094   8.073   0.747 -0.1071 -0.0654 -0.1521
 5473W        W25753   6.426   8.913  15.527  0.1987  0.4058  0.2901
 5474W        W25754  11.014   9.549  14.760  0.1317 -0.1100  0.1963
 5475W        W25755  10.408   2.498   3.628 -0.1042  0.0237 -0.0156
 5476W        W25756  12.018  11.698  12.540 -0.3024 -0.1572  0.0853
 5477W        W25757   0.445  12.453   2.660 -0.2920  0.0329  0.1281
 5478W        W25758   6.191  15.147   2.015  0.2657 -0.0193 -0.0332
 5479W        W25759  11.243   4.554   4.451  0.0544  0.1689 -0.1249
 5480W        W25760   9.716   9.683  14.496 -0.0577 -0.0813  0.0762
 5481W        W25761  12.435  17.469  15.504  0.0409  0.0133  0.0627
 5482W        W25762   0.402  16.722  15.814  0.0731 -0.3399 -0.0577
 5483W        W25763   7.238   1.931   1.150  0.0602  0.2547  0.3753
 5484W        W25764   5.369  12.171   3.710  0.2261 -0.1363 -0.2257
 5485W        W25765  14.369  10.907   0.762 -0.2130  0.0271 -0.0224
 5486W        W25766   4.697   8.822  15.609  0.2641 -0.2842  0.1149
 5487W        W25767   0.354   2.393  16.858  0.2886  0.2088 -0.2601
 5488W        W25768  16.920   9.148  12.122 -0.0352 -0.2795  0.0870
 5489W        W25769   9.062  17.477   3.612  0.1866  0.1224  0.1665
 5490W        W25770  13.535  12.778  13.588  0.2401 -0.0958 -0.2282
 5491W        W25771  15.489   0.331   1.145  0.4563 -0.2147  0.3298
 5492W        W25772  14.685   9.872  13.286 -0.2163 -0.2154 -0.3837
 5493W        W25773   7.265   5.782  15.257 -0.0776 -0.2778 -0.3111
 5494W        W25774   7.021  10.666   3.303  0.0980 -0.1410  0.0087
 5495W        W25775  13.743   5.304  15.389  0.0504  0.1691 -0.2199
 5496W        W25776  10.880   0.757   4.616  0.1777 -0.1107 -0.1734
 5497W        W25777   6.645   4.437   0.502 -0.4280 -0.1413 -0.1881
 5498W        W25778  11.893  15.311  13.875 -0.3092  0.0626  0.1214
 5499W        W25779  13.429   3.694  14.718  0.1679  0.1491  0.0376
 5500W        W25780   8.923  12.568  15.828  0.3696 -0.1697 -0.2059
 5501W        W25781  17.738   8.464  13.386 -0.0599 -0.0391 -0.3849
 5502W        W25782  12.439   3.896   5.039 -0.1503 -0.3520  0.2521
 5503W        W25783   6.429   6.553  12.051  0.1710  0.1585 -0.0079
 5504W        W25784  15.976   0.547   1.131 -0.0991  0.0875  0.0739
 5505W        W25785  15.095  14.428   1.399 -0.0921 -0.1986  0.0904
 5506W        W25786  11.708  17.555  16.484  0.1408 -0.0741 -0.1711
 5507W        W25787   1.156  16.279   0.625  0.3530  0.0855  0.2960
 5508W        W25788  13.128   0.062  14.796  0.0421  0.1053  0.2619
 5509W        W25789   1.560   0.777   2.486 -0.0030  0.0890  0.0887
 5510W        W25790   6.442   7.288   2.547 -0.1747 -0.1256 -0.1097
 5511W        W25791   9.248   5.930  15.831  0.0175  0.2134 -0.0736
 5512W        W25792   4.723   3.980   2.057  0.2332  0.0045 -0.1199
 5513W        W25793  12.333   7.943  12.633  0.0917 -0.0615 -0.0407
 5514W        W25794  14.239  12.026   3.727  0.2009  0.0408  0.0063
 5515W        W25795   2.187   5.140  13.829  0.0967  0.1537  0.0413
 5516W        W25796  15.350   9.273   4.126 -0.2095  0.2806  0.2317
 5517W        W25797  11.885   4.760   1.035  0.0856  0.1387  0.0499
 5518W        W25798  12.503   0.217   1.553  0.0393 -0.0764 -0.0705
 5519W        W25799   9.819   5.123  10.459  0.0222  0.1865 -0.0571
 5520W        W25800  12.680   5.181   1.745 -0.0644  0.2603  0.2406
 5521W        W25801  15.226   6.198  15.762  0.3032 -0.0392 -0.1017
 5522W        W25802  14.229  12.501   2.055 -0.0408  0.1302 -0.1117
 5523W        W25803  14.862   6.660  12.657 -0.1697  0.2499  0.1073
 5524W        W25804  14.284  12.365  15.919 -0.2267 -0.0600 -0.2078
 5525W        W25805   2.511   3.135   1.942  0.0064 -0.0854  0.0499
 5526W        W25806   5.159  10.384  15.277 -0.0785 -0.1584 -0.2583
 5527W        W25807  12.038   0.926  15.081 -0.0385 -0.2281 -0.1550
 5528W        W25808   9.394   1.544   1.955  0.3777 -0.2412 -0.1710
 5529W        W25809  15.424   7.710  12.020  0.0805 -0.0176 -0.0375
 5530W        W25810  13.310  16.886   4.920 -0.0126  0.1278  0.1268
 5531W        W25811  15.253  17.558   0.127  0.1319 -0.1708  0.0274
 5532W        W25812   6.420   1.245  14.834 -0.0926  0.1402  0.0906
 5533W        W25813   2.405  12.447  15.867 -0.1097 -0.0185  0.1023
 5534W        W25814   8.071   0.199   3.732  0.2750 -0.0684  0.0994
 5535W        W25815   5.008   1.170   2.109 -0.0469 -0.1842  0.2423
 5536W        W25816   9.282  17.135  16.474 -0.0339 -0.2176 -0.1704
 5537W        W25817   7.765  16.358   1.257  0.0580  0.2442  0.0083
 5538W        W25818  13.533   7.566   0.741  0.0801  0.3034 -0.0239
 5539W        W25819   3.002   3.555   0.673  0.1986  0.0000  0.2214
 5540W        W25820   7.319   7.248  14.880 -0.1096 -0.1815 -0.0824
 5541W        W25821   8.507   2.025   2.977  0.1168 -0.1170 -0.1153
 5542W        W25822  13.999  12.386  14.904  0.0773  0.0852 -0.0902
 5543W        W25823  14.279   1.658  15.085 -0.0930 -0.3105  0.0217
 5544W        W25824   3.538  10.155   4.587 -0.0379 -0.4179  0.3305
 5545W        W25825   7.769  17.262  14.263  0.3250 -0.2880 -0.1899
 5546W        W25826   6.071   2.083  12.211 -0.0267  0.2876  0.2212
 5547W        W25827   5.760  16.940  12.326 -0.1392  0.2201 -0.0464
 5548W        W25828  14.290   1.768   3.340 -0.0249 -0.0559  0.1314
 5549W        W25829   1.569  16.598  13.137 -0.2204  0.0897  0.0448
 5550W        W25830  10.279   4.360  16.715 -0.2225  0.0497 -0.4626
 5551W        W25831   8.449   8.315   0.176 -0.1035  0.1732 -0.1321
 5552W        W25832   9.846  14.792   4.287 -0.0166 -0.3194 -0.1832
 5553W        W25833  12.360  11.975  14.765 -0.4486  0.2404 -0.0481
 5554W        W25834   8.796   9.975  12.741 -0.2586  0.1567  0.3142
 5555W        W25835   3.120   6.374   0.817  0.0306  0.1853  0.1150
 5556W        W25836   5.980  12.715   1.098  0.1218 -0.0705 -0.1400
 5557W        W25837   6.945   1.424  16.064 -0.0842 -0.2473 -0.0436
 5558W        W25838  15.433   3.637   4.455 -0.2091 -0.0237 -0.0170
 5559W        W25839  10.688   3.694  16.049 -0.0710 -0.2043  0.0881
 5560W        W25840  13.753  15.357   3.458  0.0552  0.2128 -0.0096
 5561W        W25841  15.545  15.236   1.326 -0.3678 -0.2702  0.0913
 5562W        W25842   7.881   1.976   0.371  0.0864  0.0683  0.1269
 5563W        W25843  16.383  13.269   3.188  0.0039  0.4259  0.0124
 5564W        W25844  10.444  16.794   2.379  0.0491  0.1837  0.0715
 5565W        W25845  12.197  17.224   2.711 -0.0588 -0.0282  0.1212
 5566W        W25846   4.851   6.505  12.924  0.0312  0.0340 -0.0392
 5567W        W25847   1.746   1.198   3.308  0.1671  0.1123 -0.1885
 5568W        W25848  15.080   9.931  14.212  0.1147  0.0568 -0.0693
 5569W        W25849   9.127  17.291  13.413 -0.1027  0.0779 -0.4530
 5570W        W25850   5.508  13.431   0.000  0.2169 -0.0277 -0.1937
 5571W        W25851   8.885   7.637   4.151 -0.2988 -0.0186  0.0166
 5572W        W25852   3.853   0.008   4.531  0.0079 -0.2896  0.0428
 5573W        W25853  15.838  15.911  12.721  0.1383 -0.2750 -0.2012
 5574W        W25854   4.454  11.263  16.700 -0.1953  0.1960  0.2038
 5575W        W25855   1.712   6.202   1.328 -0.0794 -0.1910  0.0860
 5576W        W25856   0.911   7.403   0.748 -0.1392  0.3209  0.0110
 5577W        W25857  14.299   7.448   3.766  0.0403 -0.2035  0.0130
 5578W        W25858  12.408   7.077  15.767 -0.0098 -0.2737  0.3356
 5579W        W25859  17.653   1.758   4.453 -0.1796  0.1113 -0.1600
 5580W        W25860  12.324   0.150   4.770  0.0066  0.0691 -0.1394
 5581W        W25861   2.285  17.513   1.155  0.4081  0.1058  0.3157
 5582W        W25862  16.085  15.341  15.707 -0.1656 -0.0093 -0.4167
 5583W        W25863  14.804   5.251  12.240 -0.0946 -0.0488  0.2940
 5584W        W25864   5.736  17.293   0.833 -0.0764  0.3024 -0.3446
 5585W        W25865   7.029   3.416   2.404  0.2932 -0.1271  0.2084
 5586W        W25866  16.597  15.442  15.836  0.1262  0.0900 -0.3634
 5587W        W25867   6.357   1.549  15.951  0.0784  0.1935  0.0336
 5588W        W25868  10.071   0.821  15.888 -0.0199 -0.0994  0.1591
 5589W        W25869  11.190  15.928   1.939  0.2079 -0.0247 -0.0138
 5590W        W25870  11.055  17.378  15.663 -0.0482 -0.1514  0.0392
 5591W        W25871   9.049  17.414   2.280 -0.0497 -0.2425  0.0718
 5592W        W25872   8.953   7.160  13.952  0.1007  0.0594 -0.2740
 5593W        W25873   0.918  14.918   2.256 -0.3369  0.2221  0.0458
 5594W        W25874  16.711   1.212  13.383  0.2991 -0.0146  0.0544
 5595W        W25875   1.594  10.683  14.324  0.1193  0.0593 -0.0266
 5596W        W25876  14.761  14.170   4.398  0.0688 -0.0322  0.0416
 5597W        W25877  12.503  12.017  16.212  0.2549 -0.0580 -0.0671
 5598W        W25878   9.271  13.117   3.965 -0.1431  0.0723 -0.1567
 5599W        W25879  16.295  14.157  15.885  0.1689 -0.1851 -0.1102
 5600W        W25880   2.889   7.876   1.640 -0.5625  0.1726 -0.0600
 5601W        W25881   4.906   9.469   2.714  0.1918 -0.1440  0.3574
 5602W        W25882   8.033   8.085   0.019 -0.1512 -0.1065 -0.2626
 5603W        W25883  12.625   1.781  14.920 -0.3386 -0.0004  0.1649
 5604W        W25884  12.429   4.830  15.317 -0.2329  0.0124 -0.0656
 5605W        W25885   3.833   7.092   2.322  0.2887 -0.2552  0.1831
 5606W        W25886  10.863  12.814   1.709 -0.3500  0.3583  0.3667
 5607W        W25887   5.909   6.515  16.799 -0.0884 -0.0345 -0.1858
 5608W        W25888  12.746   4.699  12.043  0.0074  0.1090 -0.1532
 5609W        W25889   5.410   6.364  14.820 -0.0067 -0.3239  0.3314
 5610W        W25890  17.375   0.451   1.351 -0.0572  0.0236 -0.4242
 5611W        W25891  14.111   9.408   4.158 -0.2439 -0.1379 -0.0246
 5612W        W25892   3.838  11.489  14.178  0.2429 -0.1300  0.0068
 5613W        W25893   0.181   8.544   4.699  0.2094 -0.0877 -0.2389
 5614W        W25894   2.415  14.247  14.348  0.1742 -0.1879 -0.1438
 5615W        W25895  15.926  15.452   2.588 -0.0676  0.2149 -0.3503
 5616W        W25896   9.584  11.414  12.055  0.2169 -0.1648  0.1513
 5617W        W25897   7.678  10.662   2.067 -0.0251  0.2458 -0.1744
 5618W        W25898  11.253  10.386   2.972 -0.0388 -0.0419  0.0433
 5619W        W25899  16.280   3.855  12.912  0.0023 -0.3239  0.1611
 5620W        W25900   5.892  10.093  14.699  0.3503 -0.3163 -0.2172
 5621W        W25901   9.240  13.766  14.974  0.3058 -0.2638 -0.0410
 5622W        W25902   8.500   7.920   4.356 -0.0760 -0.0756  0.2212
 5623W        W25903  12.966  11.512  14.147 -0.1894  0.0881 -0.1244
 5624W        W25904   4.769   0.860  12.468  0.0593 -0.0420 -0.1222
 5625W        W25905   7.760   7.024   3.599  0.0421  0.1949  0.1667
 5626W        W25906  12.484   1.233  14.995 -0.1884 -0.1855  0.2226
 5627W        W25907   5.127   8.628  15.936  0.1094 -0.0375  0.0892
 5628W        W25908  13.482  17.247   1.258  0.2542 -0.2368 -0.0267
 5629W        W25909   2.895  16.714   0.719 -0.1615 -0.0043 -0.0091
 5630W        W25910   6.818   0.960   2.601  0.1274 -0.1597  0.1120
 5631W        W25911  12.013   0.663  15.976 -0.0344  0.0675  0.2045
 5632W        W25912   1.654   1.764  15.819  0.1590  0.0270  0.1074
 5633W        W25913  12.374   3.339   0.132 -0.1369 -0.0836  0.0448
 5634W        W25914  16.840  14.125   3.517  0.0546 -0.2034 -0.2223
 5635W        W25915  16.859  15.081   3.327  0.0117  0.2886  0.0904
 5636W        W25916  15.730  14.415  13.360 -0.0995 -0.1635 -0.2192
 5637W        W25917   0.121   2.774   5.864 -0.3845  0.5357 -0.2451
 5638W        W25918  15.925   5.759   4.042  0.0250 -0.0260 -0.0293
 5639W        W25919   7.166  15.191  15.746 -0.2072  0.2052 -0.1001
 5640W        W25920   2.277   4.302   0.430  0.0116  0.0433 -0.1869
 5641W        W25921   3.628   1.222  13.815 -0.0553  0.1269 -0.1282
 5642W        W25922   7.029  10.824   0.764 -0.1477  0.0636 -0.0928
 5643W        W25923   2.936   9.329   0.705  0.0739 -0.0907  0.0060
 5644W        W25924   0.090   2.183  15.942  0.0934  0.0060 -0.0892
 5645W        W25925  16.152  13.367  13.784  0.3293 -0.1957 -0.1981
 5646W        W25926   1.347  12.567   0.995  0.2064 -0.2743 -0.1465
 5647W        W25927   6.542  14.779  16.474  0.2260 -0.1820  0.1421
 5648W        W25928  17.554   1.883  16.262 -0.2596  0.0789  0.2672
 5649W        W25929   5.019  11.824   3.489 -0.2343 -0.4491  0.0173
 5650W        W25930   7.438  12.745   3.646 -0.3202 -0.1447  0.0790
 5651W        W25931  15.057  12.282   1.927  0.0189 -0.2502 -0.0437
 5652W        W25932   2.057   8.020   2.136  0.2852 -0.1186 -0.0704
 5653W        W25933   3.978   1.022  14.189 -0.2244  0.1114 -0.0027
 5654W        W25934  14.691  15.105  16.621 -0.1598  0.1513 -0.1452
 5655W        W25935  16.021  16.977  14.162 -0.2843  0.1749  0.1550
 5656W        W25936   4.925   8.193  13.432  0.0333  0.2086  0.0917
 5657W        W25937   7.324   9.400  14.448 -0.1091 -0.0682  0.3595
 5658W        W25938   6.180   2.933   1.303 -0.0829  0.1523  0.3944
 5659W        W25939   3.049   4.756   1.124  0.4204  0.0221  0.1219
 5660W        W25940  14.755   4.125  16.528  0.1101  0.0275 -0.1920
 5661W        W25941   7.911   5.106   4.339 -0.1965  0.1770  0.0154
 5662W        W25942  12.334   2.631   4.895 -0.3645  0.0706 -0.0393
 5663W        W25943   4.701  15.613   4.462  0.1414  0.0172  0.1580
 5664W        W25944  16.588  12.991  13.724 -0.3824  0.1035 -0.1153
 5665W        W25945  12.195  14.076  14.148  0.1096 -0.0197  0.2259
 5666W        W25946  16.087  14.250   1.812 -0.2391  0.1148  0.3596
 5667W        W25947   8.667  16.684  13.457 -0.1329 -0.0085  0.1380
 5668W        W25948   8.368  17.438  16.375  0.2840  0.1869  0.5769
 5669W        W25949   5.717  15.872  14.907 -0.2000 -0.4466 -0.1113
 5670W        W25950   0.461   2.058  15.570 -0.0157 -0.0132 -0.0898
 5671W        W25951  16.030  16.979  16.629 -0.0783  0.0427 -0.2567
 5672W        W25952  11.889   7.066  15.666 -0.0397 -0.0956 -0.1726
 5673W        W25953  16.726  11.683   2.295 -0.0260 -0.0586 -0.0229
 5674W        W25954  15.330  17.222   2.495  0.1810 -0.0412 -0.0836
 5675W        W25955   6.607   6.119   3.813  0.0675 -0.0220 -0.2340
 5676W        W25956   0.705   4.201   4.575  0.0912  0.2314 -0.0478
 5677W        W25957  11.075   2.700   2.921 -0.0079  0.1067 -0.1179
 5678W        W25958   1.800   9.411  16.256 -0.0539  0.0674  0.1873
 5679W        W25959  14.321  13.918  13.100  0.0610  0.2324 -0.0683
 5680W        W25960   1.417   5.450  10.845 -0.0067 -0.3984  0.0454
 5681W        W25961  12.673  16.219  13.901 -0.1849  0.2990  0.2609
 5682W        W25962   1.467  15.876   4.813  0.1987 -0.0861  0.1266
 5683W        W25963  16.149   2.358   0.843 -0.2693 -0.1052 -0.1449
 5684W        W25964  15.489   1.305  16.318  0.1139 -0.1969  0.1980
 5685W        W25965  16.569   0.544  16.014 -0.1110 -0.0093 -0.2128
 5686W        W25966   8.001   8.882  13.088 -0.0954 -0.0005 -0.0090
 5687W        W25967  13.584  11.325  14.881 -0.0493 -0.2789  0.1147
 5688W        W25968   1.684   9.550   3.553  0.1823 -0.0426 -0.3162
 5689W        W25969   0.797   1.376   1.561 -0.0134 -0.1288 -0.0123
 5690W        W25970   1.954   3.411   0.839  0.1537 -0.1728 -0.0439
 5691W        W25971   5.603   9.666  11.964 -0.0461  0.2647  0.4879
 5692W        W25972   1.097   1.247   3.456 -0.1664 -0.0631  0.2973
 5693W        W25973  15.258   0.947  13.472 -0.2097  0.1854  0.0988
 5694W        W25974   7.141   2.226  12.966 -0.0338 -0.1345  0.0180
 5695W        W25975   7.608  13.736  15.752 -0.1178 -0.2322  0.3463
 5696W        W25976   9.344   6.740  12.381 -0.2625 -0.2154 -0.3380
 5697W        W25977   2.889   7.442  14.822  0.1732  0.1971  0.0901
 5698W        W25978  15.297   1.451   4.277  0.0671  0.0148 -0.3358
 5699W        W25979   7.785   0.651   4.467  0.3528  0.0670  0.0398
 5700W        W25980   6.673   9.236   0.983 -0.0667  0.2868  0.1689
 5701W        W25981  14.260   6.205  12.953  0.0327  0.0223 -0.0490
 5702W        W25982   2.364   7.517   2.981 -0.1514  0.0728  0.1760
 5703W        W25983   3.321   4.431  13.363 -0.2741 -0.1728 -0.4013
 5704W        W25984  15.981   4.310   2.744 -0.0738 -0.3722  0.1282
 5705W        W25985  14.679   5.078  13.481 -0.2377 -0.0432 -0.0936
 5706W        W25986   9.878   3.345  15.918 -0.1789  0.0986  0.4026
 5707W        W25987   0.883  15.065   4.510  0.6042  0.0681  0.0365
 5708W        W25988  13.929  11.026   0.291 -0.0822  0.1660 -0.1692
 5709W        W25989  11.446   1.631   6.099 -0.1468 -0.5201  0.3666
 5710W        W25990  11.548   0.028  15.103  0.1335 -0.0543 -0.0239
 5711W        W25991   5.288   8.223   3.110 -0.2035 -0.0142 -0.0316
 5712W        W25992   9.259   2.126  15.657  0.1156 -0.1051 -0.3047
 5713W        W25993   7.989   4.323  15.015  0.0609  0.1154 -0.3345
 5714W        W25994  12.568  13.186  13.303  0.0906  0.0955  0.3385
 5715W        W25995   7.365  14.922   0.590 -0.1751  0.1955  0.0346
 5716W        W25996   0.733   8.483  15.164  0.2925 -0.2542  0.3447
 5717W        W25997   2.130   1.448  12.345  0.3905  0.0733  0.2895
 5718W        W25998   5.258   4.898  12.996  0.0106 -0.0118  0.2650
 5719W        W25999   6.958   4.141  12.992  0.0447  0.0089  0.0072
 5720W        W26000  10.662  11.653   4.190 -0.1457 -0.0617 -0.0814
 5721W        W26001   6.401   4.671  15.871  0.1916  0.2363 -0.0358
 5722W        W26002   2.442   5.994   3.287 -0.0868  0.1304  0.0440
 5723W        W26003  14.545   2.873  14.228  0.2076 -0.0684  0.2156
 5724W        W26004   0.773   9.132  14.734 -0.0801  0.1521 -0.0695
 5725W        W26005   1.061   6.971   2.006  0.3613  0.1231 -0.0366
 5726W        W26006   0.219   2.511  13.469  0.1925  0.2053 -0.1900
 5727W        W26007  13.078  10.666  16.881  0.0936  0.3322 -0.0045
 5728W        W26008   9.259   1.693   0.165  0.0415  0.0215  0.0842
 5729W        W26009  14.116   7.618  13.203  0.0746  0.0545  0.3443
 5730W        W26010  10.667   9.001   2.832  0.1440 -0.1568 -0.0037
 5731W        W26011  10.284  17.394  12.469  0.1318  0.0362  0.0470
 5732W        W26012  13.153   6.439  16.489  0.1730 -0.2111  0.3180
 5733W        W26013   1.459  15.043   3.380 -0.0396  0.1794 -0.2022
 5734W        W26014   0.243  16.675   2.116 -0.0305  0.0587 -0.0986
 5735W        W26015   2.143  12.445  14.636  0.2436  0.2472  0.1042
 5736W        W26016   5.943   6.782  12.115 -0.1499 -0.2402 -0.1911
 5737W        W26017  13.959   1.035   1.725 -0.1224 -0.1818  0.0370
 5738W        W26018   1.965   6.691  12.186  0.4356  0.0139  0.1428
 5739W        W26019   1.882  14.118   1.452  0.0416 -0.1844  0.1235
 5740W        W26020   7.543  13.688   0.233 -0.1730  0.1536 -0.1425
 5741W        W26021   9.585   1.167   3.117 -0.0742 -0.0181  0.0652
 5742W        W26022   3.943  10.478   3.413  0.0884  0.1809  0.1979
 5743W        W26023   2.701  10.104   1.646  0.0025 -0.0571 -0.0777
 5744W        W26024   1.802   3.226  12.053 -0.2821 -0.2102  0.0180
 5745W        W26025  16.090   6.346   0.348 -0.0218  0.1402 -0.0151
 5746W        W26026  14.950   3.522  14.833  0.0057  0.0363 -0.0510
 5747W        W26027   8.220   7.255  12.519 -0.0249  0.2443  0.0561
 5748W        W26028  11.502  11.861   4.431 -0.3595 -0.1142  0.1147
 5749W        W26029   1.648   9.851  16.606  0.0004 -0.0762 -0.1212
 5750W        W26030   6.612   8.866   4.167  0.1393 -0.1768 -0.1076
 5751W        W26031  14.518  11.908   2.588  0.1926  0.0461 -0.1213
 5752W        W26032   5.983   7.468  16.805 -0.1478  0.2471  0.1842
 5753W        W26033   1.378   2.474   2.267  0.1134  0.3208  0.1364
 5754W        W26034   3.649   1.039   3.872  0.4514  0.0220  0.3839
 5755W        W26035  14.058  11.090  11.891 -0.0197  0.1326  0.0926
 5756W        W26036  15.076  10.780  15.100  0.2799  0.0342  0.0169
 5757W        W26037   0.327   1.852   4.735 -0.2497  0.2120 -0.1327
 5758W        W26038   7.235  17.436  12.110 -0.1441 -0.0773  0.0564
 5759W        W26039   5.940   0.013   2.987  0.1416 -0.2530 -0.1278
 5760W        W26040  17.422  13.801  13.370  0.1334  0.2341  0.2218
 5761W        W26041  14.062  15.830  12.750  0.0762  0.2015  0.0590
 5762W        W26042  17.513   7.760   2.851  0.1501  0.1982 -0.1192
 5763W        W26043   1.415   0.982  12.785 -0.0365 -0.1201  0.1267
 5764W        W26044   2.430   9.232   3.878  0.0370 -0.0906 -0.3265
 5765W        W26045  17.290   9.534  15.921  0.0710  0.0913 -0.2003
 5766W        W26046  15.793  14.680   1.898  0.2003  0.0377 -0.0236
 5767W        W26047   8.506  10.984   1.968  0.1607  0.2266  0.1480
 5768W        W26048  13.495  17.483  13.827  0.2841  0.0241  0.0710
 5769W        W26049  14.897  10.119   0.682 -0.1247 -0.0767  0.1472
 5770W        W26050  15.825   6.686  11.884 -0.0409  0.4408 -0.0442
 5771W        W26051  12.751  13.670   0.305  0.0228 -0.2541  0.0543
 5772W        W26052  13.308   3.420  14.244  0.1425 -0.0621  0.0420
 5773W        W26053   4.999  12.887  16.447 -0.2589  0.2252  0.2247
 5774W        W26054  15.699  12.279   1.073 -0.2485  0.0795  0.0847
 5775W        W26055   7.045   7.437   4.627 -0.0528 -0.0822  0.1460
 5776W        W26056   7.262   7.525  16.008 -0.0022  0.1301 -0.1292
 5777W        W26057  12.406  12.386   3.503 -0.1531 -0.2169 -0.4514
 5778W        W26058  16.818   8.154   1.996  0.0560  0.3123 -0.2685
 5779W        W26059   8.448  10.320  12.953  0.3234 -0.0807 -0.0434
 5780W        W26060  10.071   1.422   0.002  0.0016  0.2188  0.2380
 5781W        W26061   8.055   1.973  14.782 -0.2586 -0.1038 -0.2141
 5782W        W26062   2.754   1.998   4.867  0.0927 -0.1478 -0.1644
 5783W        W26063  14.283   2.729   1.920 -0.0443  0.2416 -0.2992
 5784W        W26064   5.866  12.191   3.614 -0.2002 -0.1396 -0.0148
 5785W        W26065   9.407   2.446   0.549 -0.1288 -0.0357  0.1164
 5786W        W26066   3.570   6.505   0.638  0.0707 -0.1204 -0.0396
 5787W        W26067   9.496  16.476   1.622 -0.1214 -0.0683  0.1712
 5788W        W26068   8.790  10.967  10.979  0.1716  0.0605 -0.0274
 5789W        W26069  13.689   4.400   4.684  0.1701 -0.0161 -0.2260
 5790W        W26070   2.000   1.945   4.406  0.2025  0.3551  0.2243
 5791W        W26071   3.500   0.332  16.123 -0.0422 -0.0807  0.1607
 5792W        W26072  10.571   2.820  15.155  0.0349  0.0902 -0.0322
 5793W        W26073   8.772   9.819  13.222 -0.0095 -0.0610 -0.3406
 5794W        W26074   9.828  14.217  13.245 -0.0918 -0.0790 -0.2480
 5795W        W26075   6.495   0.175   4.603  0.3622  0.0449 -0.0094
 5796W        W26076  15.714   9.263   2.940 -0.1075 -0.2609  0.0133
 5797W        W26077   9.521   0.616   4.945  0.0885 -0.2318 -0.1162
 5798W        W26078  10.981   1.413  11.514  0.0661  0.1811  0.0318
 5799W        W26079   0.244   8.160   1.004 -0.0094  0.1606 -0.1281
 5800W        W26080   0.311   4.497  15.734 -0.0404 -0.0788  0.1998
 5801W        W26081   1.525   0.297   0.856 -0.0297  0.0505  0.0348
 5802W        W26082  11.690   0.785  12.496  0.2300 -0.0818  0.0379
 5803W        W26083  13.952  12.196  16.251 -0.2342  0.0497 -0.0082
 5804W        W26084   9.942   1.873  12.239 -0.0905 -0.1280  0.0314
 5805W        W26085   2.785   3.116   0.720  0.1192  0.0958 -0.3847
 5806W        W26086  11.214   3.926  13.780  0.0208  0.2490  0.0622
 5807W        W26087   5.341   1.504  13.041  0.1377  0.1443  0.1162
 5808W        W26088   3.848   0.866  16.000  0.1824 -0.0337  0.1484
 5809W        W26089   0.076  14.457   1.531  0.1564 -0.3076  0.0235
 5810W        W26090  15.459   4.250  14.699 -0.2373  0.1026  0.1719
 5811W        W26091  10.106   1.761  12.695 -0.4036  0.0065 -0.1583
 5812W        W26092  16.660   1.827  13.393  0.0053 -0.0782 -0.0150
 5813W        W26093   4.503   4.428   2.086  0.0895  0.2567  0.0747
 5814W        W26094   4.666  17.003   0.636 -0.0877  0.3329  0.2442
 5815W        W26095   4.217   9.738  12.832 -0.1552 -0.2620 -0.1807
 5816W        W26096   6.950  10.203   0.369  0.0690  0.2254 -0.2425
 5817W        W26097   0.227   4.739  14.122  0.2891 -0.1174  0.1148
 5818W        W26098   4.007   3.322   0.409 -0.0426  0.2934  0.0014
 5819W        W26099   2.147   0.912  14.116 -0.0376  0.0513  0.0255
 5820W        W26100  10.886  12.133   4.870  0.0025  0.0260 -0.0767
 5821W        W26101   7.136   4.022  14.257  0.3262  0.3734 -0.4087
 5822W        W26102   1.459   4.479  14.813  0.3095 -0.0051 -0.0477
 5823W        W26103   8.628   1.453  13.359 -0.0835  0.0552 -0.1433
 5824W        W26104   9.046  12.152   3.799 -0.0324 -0.3017 -0.4229
 5825W        W26105   7.234   4.804  14.033 -0.0188 -0.2141 -0.2918
 5826W        W26106   0.886   3.759  13.623 -0.1847 -0.0911  0.0948
 5827W        W26107  14.114   7.650   1.159 -0.0605  0.2112 -0.1400
 5828W        W26108   4.370   8.098  12.685 -0.1730  0.1114  0.2316
 5829W        W26109   4.912   9.863  14.800  0.1717  0.2169 -0.0606
 5830W        W26110   5.998   4.305  16.657  0.0467  0.3565  0.0362
 5831W        W26111   8.532   3.239  15.283  0.0925 -0.6058  0.3005
 5832W        W26112   9.056   3.289   3.137  0.0548  0.0208  0.0918
 5833W        W26113   3.436  15.317   1.497 -0.0745 -0.0304  0.1288
 5834W        W26114  10.807   4.030   3.240 -0.0656  0.1464 -0.0587
 5835W        W26115   5.004  15.485   0.156  0.0556  0.2215 -0.4476
 5836W        W26116   5.050   0.521  16.683  0.1782 -0.2282  0.4395
 5837W        W26117   0.693  12.321   3.111 -0.2700 -0.0547  0.0505
 5838W        W26118  16.108   3.103   0.486 -0.2211 -0.3329 -0.1491
 5839W        W26119   1.216  14.213   4.477 -0.2394  0.0036 -0.2316
 5840W        W26120  16.414   5.674   0.396 -0.0504 -0.1493 -0.2627
 5841W        W26121  12.258   4.496   0.586  0.3246  0.1764 -0.0791
 5842W        W26122  10.674   8.644  12.184 -0.0690 -0.1656 -0.1629
 5843W        W26123   9.447   3.915   4.563  0.2465  0.0427 -0.1025
 5844W        W26124   8.931  13.270  15.341  0.1274  0.2426  0.2743
 5845W        W26125  15.137   9.227  15.940  0.4029 -0.2374 -0.4299
 5846W        W26126  13.174   3.316   2.268 -0.1019 -0.0659  0.0381
 5847W        W26127   6.149  17.690  15.004 -0.0445 -0.1103  0.0007
 5848W        W26128  14.071   3.944   4.476 -0.0421 -0.2086 -0.0529
 5849W        W26129   0.176  13.240   2.152  0.4028 -0.0077  0.0087
 5850W        W26130   6.384  17.211  13.665 -0.0017  0.0781  0.0510
 5851W        W26131   5.556  16.069   2.550  0.0828 -0.1695  0.0685
 5852W        W26132   7.921  10.740   0.255  0.0576  0.1602 -0.1462
 5853W        W26133   1.656   1.680  12.703 -0.4655  0.0773 -0.0289
 5854W        W26134  11.154   5.093  15.237  0.0256  0.2169 -0.1528
 5855W        W26135   9.992   9.722   3.735  0.1134 -0.0781  0.1303
 5856W        W26136   0.861  12.838  12.147  0.1183  0.2371 -0.1436
 5857W        W26137   6.461  15.855   2.016 -0.1612 -0.0238 -0.0819
 5858W        W26138   1.040   5.367   2.770  0.0876  0.1428  0.0477
 5859W        W26139   7.976  17.425   1.085  0.2360  0.1612  0.1766
 5860W        W26140   0.877  12.081   4.967 -0.1827 -0.0205  0.0584
 5861W        W26141   6.527  15.152   0.920  0.0291 -0.0108  0.1052
 5862W        W26142   7.134  11.127  15.814  0.1795  0.0040 -0.3275
 5863W        W26143   5.566  11.713   3.615  0.1813  0.0803 -0.0593
 5864W        W26144   9.076   8.321  15.945  0.0999  0.0815  0.0384
 5865W        W26145   2.999   7.054  14.442 -0.1961  0.0579  0.0011
 5866W        W26146  15.066   4.322  14.265  0.1937  0.1553 -0.0311
 5867W        W26147  12.204  12.917  13.953 -0.2279  0.0463  0.3293
 5868W        W26148   8.863  13.111  13.025 -0.3061 -0.0020 -0.0751
 5869W        W26149  15.287  11.767  15.608  0.2190 -0.1783 -0.0226
 5870W        W26150  10.423   1.015  14.674  0.2728  0.1536 -0.0864
 5871W        W26151  13.614  11.752   5.283  0.0422  0.1545 -0.0366
 5872W        W26152   0.949   1.911  14.226  0.1149 -0.0163  0.1050
 5873W        W26153   3.588   3.437   1.719  0.3225  0.0551 -0.2806
 5874W        W26154   6.070  13.533   2.113 -0.0566  0.3862  0.0425
 5875W        W26155   4.044  11.359   4.869  0.1908 -0.2479  0.0323
 5876W        W26156   7.299  16.083   3.143 -0.3500 -0.0400 -0.0786
 5877W        W26157   2.718  10.777   3.206  0.1770 -0.0342 -0.2803
 5878W        W26158   5.971   2.167  13.314  0.1327  0.2307 -0.0079
 5879W        W26159  13.839  11.943  14.724 -0.0680 -0.0596 -0.0851
 5880W        W26160   2.221  10.728  15.450  0.1631  0.1640  0.0222
 5881W        W26161  10.179   7.132  16.747  0.2699  0.0215  0.2671
 5882W        W26162   8.565   1.944   2.382 -0.0591 -0.2570 -0.2294
 5883W        W26163   6.139   3.995  14.237  0.3638 -0.0358  0.1284
 5884W        W26164   9.485  14.966   0.661  0.0201  0.0032 -0.0116
 5885W        W26165  14.383  15.864  15.630 -0.1271  0.0844 -0.2779
 5886W        W26166  14.688   6.461  13.108 -0.1257  0.1718 -0.1931
 5887W        W26167  15.874  13.833  16.732 -0.0436 -0.0172  0.3168
 5888W        W26168  15.987   2.816   1.384  0.1006  0.2913 -0.0636
 5889W        W26169   5.761   2.909   3.109  0.0997  0.0301 -0.1978
 5890W        W26170   7.958  17.402   0.536  0.0927  0.0423  0.0229
 5891W        W26171  13.259   6.732   3.251 -0.3111 -0.0728 -0.1587
 5892W        W26172  12.636  15.549  12.797 -0.1306 -0.1025  0.0592
 5893W        W26173  10.492  13.133  13.294 -0.1672 -0.2075  0.1210
 5894W        W26174  14.138   2.785   3.951 -0.0169  0.0251 -0.3148
 5895W        W26175   5.855  14.644   2.852 -0.1286  0.1093 -0.0888
 5896W        W26176   1.746  12.125  14.826 -0.0350 -0.2532 -0.2200
 5897W        W26177  10.853   9.029  13.046  0.0784  0.1811  0.1359
 5898W        W26178   2.126   1.023  16.860  0.2446  0.4193 -0.0348
 5899W        W26179   2.334   9.080   1.442  0.0222 -0.1351  0.3735
 5900W        W26180  16.221  10.406  12.102 -0.1220 -0.1451 -0.5632
 5901W        W26181   3.262   9.013   1.114  0.1293 -0.1872 -0.1386
 5902W        W26182  15.275  10.188   1.010 -0.0337 -0.1070  0.1344
 5903W        W26183   5.026   3.489  13.513 -0.1316 -0.0197  0.2318
 5904W        W26184   4.397   9.812   3.131 -0.1178  0.2419 -0.1641
 5905W        W26185   3.673   1.841  15.172 -0.0795  0.2121 -0.0711
 5906W        W26186   9.505  10.247   4.216 -0.0959 -0.1257  0.0641
 5907W        W26187   9.722   2.232  14.011 -0.0846  0.1188  0.2142
 5908W        W26188   2.368   2.815   2.780  0.1861 -0.1172  0.0425
 5909W        W26189  15.703   7.604   1.722  0.2247 -0.4677  0.0580
 5910W        W26190   7.826   3.289   2.736 -0.1000 -0.1181 -0.2981
 5911W        W26191   4.941   2.951   4.715 -0.1650 -0.0374 -0.2501
 5912W        W26192   4.523   8.278  13.754  0.0931  0.0968  0.2498
 5913W        W26193  13.993  10.955   4.274  0.1393  0.1246 -0.1010
 5914W        W26194   2.328   9.550   2.208  0.0275  0.1030 -0.0155
 5915W        W26195  11.168   5.167  15.946  0.0455 -0.2651 -0.2020
 5916W        W26196   9.195  10.607   3.052 -0.1684  0.3353 -0.1305
 5917W        W26197  16.724  12.765   4.229 -0.2403 -0.0686  0.1073
 5918W        W26198  17.342   6.459  15.083 -0.1043 -0.4411  0.4366
 5919W        W26199   1.488   3.740   0.494 -0.5316 -0.0609  0.0677
 5920W        W26200  16.598  12.262  12.261 -0.3293 -0.0990 -0.0563
 5921W        W26201   1.064   5.796  14.247  0.1600 -0.0708 -0.2101
 5922W        W26202   9.055  11.978   0.549 -0.1818  0.0847  0.0308
 5923W        W26203   2.625   4.379   0.049  0.1153 -0.0166  0.2707
 5924W        W26204  13.241  11.164  12.369 -0.1452 -0.0579 -0.0674
 5925W        W26205   1.403   4.740  15.260 -0.1667 -0.3133  0.1756
 5926W        W26206  13.119   9.823  15.449  0.1510 -0.1022 -0.0476
 5927W        W26207  16.183   0.083   0.845 -0.0932  0.2484  0.1641
 5928W        W26208   8.278  12.580   4.869 -0.2246 -0.2723  0.0364
 5929W        W26209  15.186  15.529  14.199 -0.2434 -0.0675 -0.1954
 5930W        W26210   8.253  14.864   1.132 -0.1436 -0.0820 -0.0745
 5931W        W26211   2.432  10.415   1.308 -0.2328  0.0260  0.4935
 5932W        W26212   4.389   8.206   3.074  0.1623  0.0861 -0.0960
 5933W        W26213  12.047  13.807  13.744 -0.0301  0.0962  0.2410
 5934W        W26214   7.147  16.939   1.607 -0.3359  0.1131 -0.0064
 5935W        W26215   2.620   9.863   4.638 -0.4348  0.1377  0.1693
 5936W        W26216   8.504   5.801   4.187 -0.0520 -0.2349  0.3111
 5937W        W26217  12.751  12.327   3.107  0.0469 -0.2251  0.1097
 5938W        W26218  16.632  13.054   2.082  0.0983 -0.0047  0.1621
 5939W        W26219  15.804   8.347   4.021  0.0628  0.0569 -0.0377
 5940W        W26220  11.558  10.769  15.016  0.1828 -0.3610 -0.0022
 5941W        W26221   0.041  10.103  12.908  0.1246 -0.0931  0.0965
 5942W        W26222  12.492   9.207   2.782  0.1791 -0.0442 -0.2273
 5943W        W26223   3.703  17.591  14.858 -0.2278 -0.1531 -0.2147
 5944W        W26224  16.709  15.557  13.606  0.1033  0.1932  0.1506
 5945W        W26225  14.280  17.343   4.285  0.1551 -0.0460 -0.0144
 5946W        W26226   1.201   7.576   4.317 -0.0534  0.0418 -0.0013
 5947W        W26227   1.108   7.676   4.819 -0.1200 -0.0495 -0.2017
 5948W        W26228  15.119   7.622  16.668  0.1245 -0.0031 -0.1177
 5949W        W26229  14.139   0.328  15.901  0.0207 -0.1128 -0.1515
 5950W        W26230  17.534   9.726  12.785  0.3613  0.0165  0.1946
 5951W        W26231  16.961  17.211  15.601 -0.0980  0.0880 -0.0084
 5952W        W26232   3.044   5.943   2.350  0.1211 -0.2964 -0.1194
 5953W        W26233  11.638   9.781   0.562 -0.0898  0.1742 -0.0208
 5954W        W26234   9.316   2.888   3.029  0.0220  0.4746  0.3394
 5955W        W26235   6.508   2.520   1.210  0.0240  0.1233 -0.1757
 5956W        W26236   7.893  10.108   2.276  0.1051  0.3527  0.0674
 5957W        W26237   0.083  12.723   2.296 -0.1727  0.0454 -0.1303
 5958W        W26238   8.709  13.100   4.094 -0.0609 -0.0855  0.1524
 5959W        W26239   3.584   3.959  15.308  0.0781 -0.1167  0.2925
 5960W        W26240   8.431  16.539  14.394 -0.1689 -0.2892 -0.4069
 5961W        W26241  15.773   4.258   1.043 -0.2661 -0.0912 -0.0123
 5962W        W26242  11.946  14.849  13.701  0.0881  0.1067 -0.0833
 5963W        W26243  16.128  11.601  15.977  0.0855 -0.2381 -0.0496
 5964W        W26244   5.768  17.420   1.880  0.0304 -0.2396 -0.0022
 5965W        W26245   9.369   1.351  12.751 -0.1474  0.1437 -0.3887
 5966W        W26246  10.298   5.421  16.196  0.1991  0.0631  0.4325
 5967W        W26247  10.751  17.357   1.723  0.1208  0.1874  0.2122
 5968W        W26248   9.423   4.872  15.980 -0.0072 -0.0278  0.1251
 5969W        W26249   5.095   8.770   1.656 -0.1608 -0.0619 -0.1606
 5970W        W26250  15.374   2.872  15.296 -0.0575  0.0461 -0.2705
 5971W        W26251   9.698   6.092  11.854  0.0328 -0.2258 -0.1383
 5972W        W26252  11.728  16.405  15.915  0.0746  0.0528  0.1223
 5973W        W26253  12.065  11.464   4.807 -0.0145  0.2709  0.0806
 5974W        W26254  12.310   9.881   4.588 -0.0924  0.0467  0.0895
 5975W        W26255   6.622   3.989   0.256 -0.0731 -0.1025 -0.1212
 5976W        W26256   9.604   0.623  15.856 -0.0268 -0.0294  0.0339
 5977W        W26257   1.844  13.796   2.797 -0.4727 -0.1085 -0.0163
 5978W        W26258   3.752   9.626   0.140  0.1322 -0.0302 -0.0992
 5979W        W26259  12.130   0.228  12.937  0.2738 -0.0484  0.1853
 5980W        W26260  13.063   1.532   3.915  0.2667 -0.0281 -0.1062
 5981W        W26261  15.626  10.173   5.306  0.2370 -0.0566  0.0870
 5982W        W26262  17.047  10.798   1.981 -0.1074 -0.1337  0.0894
 5983W        W26263   7.868  14.348   5.814  0.2024  0.0133 -0.1069
 5984W        W26264  11.630   4.610   2.153 -0.2562  0.0039  0.0098
 5985W        W26265  15.769  16.854   4.144 -0.0611 -0.3481 -0.1164
 5986W        W26266   7.209   1.825  15.355  0.1351 -0.0965  0.4725
 5987W        W26267   8.609  10.138  11.916 -0.2103  0.0614 -0.1380
 5988W        W26268   8.706   8.179   0.595  0.1530  0.1060  0.0988
 5989W        W26269  10.040   5.187  12.261 -0.0809 -0.0933 -0.0347
 5990W        W26270  11.622  13.424  14.405  0.3615  0.0797  0.0091
 5991W        W26271  16.386   4.484  12.173 -0.0077 -0.2530  0.2888
 5992W        W26272  13.565  10.660   2.807 -0.0546  0.1543  0.0302
 5993W        W26273   7.734   1.480   3.512  0.0030 -0.0533  0.1758
 5994W        W26274  16.933   2.824  15.058  0.0990 -0.0377  0.1070
 5995W        W26275  15.342  17.038   4.507  0.0720  0.0110 -0.1231
 5996W        W26276  16.145   9.162   0.354  0.1835 -0.2761  0.1119
 5997W        W26277  14.763   4.655   2.658  0.1561 -0.1034 -0.0498
 5998W        W26278  15.968   1.964  16.174  0.0811 -0.0371  0.0560
 5999W        W26279   8.107  16.119   6.122  0.0321 -0.2039  0.2916
 6000W        W26280   6.483   5.458  14.482  0.1837  0.0811  0.1535
 6001W        W26281  16.328   9.128   3.632  0.0591  0.1218 -0.1991
 6002W        W26282  11.486   9.348   0.422  0.2313 -0.0011  0.2520
 6003W        W26283   8.694  15.061  14.450  0.0745 -0.0041  0.2044
 6004W        W26284   0.541  14.404  13.593  0.0155 -0.1735  0.5191
 6005W        W26285  10.075  17.497  15.001 -0.0295  0.2305  0.1266
 6006W        W26286   3.796  11.258   1.273  0.2776  0.1663 -0.0134
 6007W        W26287   8.718  13.684  16.523 -0.1986 -0.0595 -0.3147
 6008W        W26288   5.461   3.199   3.983 -0.1010  0.0097 -0.2031
 6009W        W26289   5.800  12.214  14.125  0.4020 -0.1246  0.3090
 6010W        W26290  11.900  13.925  11.955  0.1394 -0.3346  0.1736
 6011W        W26291   6.427  16.977  16.668 -0.0472  0.0262  0.0744
 6012W        W26292   6.136   0.918  12.753  0.3428 -0.1552  0.1502
 6013W        W26293  11.457   9.302  13.552  0.0506  0.0244  0.1094
 6014W        W26294   2.505   5.700  12.186 -0.2082  0.2269  0.1282
 6015W        W26295   4.769   7.830  15.722 -0.2489  0.2022 -0.0517
 6016W        W26296  17.029   9.610  12.090  0.0554 -0.0639 -0.1239
 6017W        W26297  10.930  11.075   3.437 -0.2286 -0.0377 -0.3207
 6018W        W26298   0.452   2.376  11.112  0.3358  0.0578  0.0030
 6019W        W26299  12.868  11.685   4.499  0.2984 -0.1406  0.0809
 6020W        W26300  12.989  16.230   3.982 -0.0493  0.0846 -0.2997
 6021W        W26301   9.048   8.928   3.118  0.1143  0.0361  0.0063
 6022W        W26302   6.789   4.669   3.402  0.1988  0.1513  0.1621
 6023W        W26303  16.406   1.801   3.231 -0.0937  0.0835  0.1657
 6024W        W26304   9.190  15.977   0.876  0.2179  0.3734  0.0992
 6025W        W26305  17.508   3.272  13.620 -0.1665 -0.4172 -0.0949
 6026W        W26306   7.924   6.420   2.014  0.1929 -0.4695 -0.0094
 6027W        W26307   2.986  10.108   4.354  0.0456  0.0468 -0.2347
 6028W        W26308  15.785  13.052   2.345 -0.2180 -0.3124  0.0553
 6029W        W26309  17.675   6.422   4.117 -0.3610  0.1221 -0.0952
 6030W        W26310   5.501  10.091   2.440 -0.0941 -0.0838 -0.0202
 6031W        W26311  11.672   6.467   0.853  0.0885  0.3503 -0.0815
 6032W        W26312  16.730   2.155   0.518 -0.0893 -0.2534  0.0350
 6033W        W26313  16.190   2.847   1.888  0.0907 -0.1468  0.0789
 6034W        W26314  16.142   6.507   2.994 -0.0914 -0.0919 -0.1170
 6035W        W26315  17.677   7.683   0.989  0.1172 -0.1523 -0.0228
 6036W        W26316   1.977   8.837   1.764 -0.1416  0.3166 -0.2032
 6037W        W26317  17.530   4.491  13.202 -0.2795  0.1803 -0.1359
 6038W        W26318   8.022   8.057  12.774 -0.0099  0.1288  0.1696
 6039W        W26319   7.991  15.243   3.602 -0.2308 -0.1206  0.0727
 6040W        W26320   8.190  14.488   0.742  0.1903 -0.1258  0.1883
 6041W        W26321   3.331   1.244   0.096  0.4560  0.2271 -0.1658
 6042W        W26322  11.056  12.071  16.495  0.0698 -0.0313  0.0447
 6043W        W26323  11.406   0.452  12.333 -0.2641  0.1195  0.1313
 6044W        W26324   7.435  11.594  16.068  0.1228  0.0417 -0.0846
 6045W        W26325  14.782   1.978   1.562  0.2677 -0.4287 -0.1114
 6046W        W26326   2.467   1.551   2.240  0.2291  0.0528  0.2834
 6047W        W26327   7.245   6.096  16.334 -0.2810 -0.1621 -0.1925
 6048W        W26328   2.723   2.792  13.527  0.0324 -0.1960 -0.3877
 6049W        W26329  13.207   3.556   5.335  0.0709 -0.2370 -0.2150
 6050W        W26330   0.018   6.178   2.254  0.3258 -0.0565 -0.1391
 6051W        W26331   8.972   6.348   4.393 -0.1100 -0.0801  0.4668
 6052W        W26332   0.025   4.557   3.002  0.0825  0.0557 -0.0084
 6053W        W26333   4.174   4.359  14.069 -0.1485  0.0426  0.0572
 6054W        W26334   7.555   1.974   3.496  0.0630 -0.0071  0.0908
 6055W        W26335   7.700  11.475  13.774 -0.0817  0.0419  0.0198
 6056W        W26336   9.496  12.532   3.057  0.0681 -0.2838  0.0792
 6057W        W26337   5.695  11.193  16.052  0.2448 -0.0073 -0.0347
 6058W        W26338  17.531  13.849  15.412 -0.2941 -0.0486 -0.3252
 6059W        W26339   7.100   9.969  15.296 -0.2672 -0.1490 -0.1729
 6060W        W26340   5.578   6.859   4.411 -0.0798 -0.3412 -0.1050
 6061W        W26341  11.375   5.603  12.100  0.0137 -0.2068 -0.1982
 6062W        W26342   3.270   3.792   3.467  0.1973  0.0176 -0.0907
 6063W        W26343  15.800  13.843  12.625 -0.1772 -0.1722  0.1811
 6064W        W26344   5.128   3.599   3.930 -0.0841 -0.1536 -0.0161
 6065W        W26345   2.315   3.094  12.109  0.0584  0.1925  0.1504
 6066W        W26346  14.231   2.002  13.780 -0.0195  0.0916  0.1023
 6067W        W26347   1.857   5.393   3.264 -0.1148  0.2545  0.0123
 6068W        W26348   8.977   1.356  16.701  0.0979  0.1894  0.2891
 6069W        W26349  11.864  13.570  15.573 -0.0186 -0.1252 -0.0875
 6070W        W26350  17.386   0.493   1.879  0.0994 -0.1393 -0.1523
 6071W        W26351   3.656  10.323   1.132  0.0692 -0.3357  0.1350
 6072W        W26352   8.940   6.084   0.186 -0.1261  0.3490  0.2865
 6073W        W26353   5.479   9.964  16.153 -0.1756 -0.2500 -0.1333
 6074W        W26354  15.910   8.686  16.106 -0.2489  0.1096  0.0759
 6075W        W26355   4.198  17.487  14.598  0.1055  0.0112 -0.3571
 6076W        W26356  11.130  11.510   1.813 -0.0495  0.1239 -0.2196
 6077W        W26357   4.545   9.268   4.402 -0.0725 -0.1731  0.0774
 6078W        W26358   8.278  13.237  15.228 -0.1553 -0.3533  0.3734
 6079W        W26359   1.204  15.313  14.394 -0.2501  0.1617  0.3033
 6080W        W26360  16.727   5.876  15.027  0.0305 -0.0636  0.0951
 6081W        W26361   4.282   7.810  13.881 -0.2552 -0.1525  0.2025
 6082W        W26362   8.088   4.165  11.608  0.2507 -0.1134 -0.0870
 6083W        W26363  14.275   1.252  15.537 -0.0749  0.1362 -0.0329
 6084W        W26364   4.579  11.554  14.246  0.1495  0.1337  0.0679
 6085W        W26365   6.945  10.330   2.891  0.0618  0.0652  0.0447
 6086W        W26366   2.564   3.949   4.302  0.3707  0.1410 -0.0786
 6087W        W26367  14.682   7.260  16.697  0.1484 -0.3496  0.2005
 6088W        W26368   3.116   4.418   4.900 -0.0131  0.0575 -0.1252
 6089W        W26369   3.431  16.422   2.173 -0.0113  0.0677 -0.1843
 6090W        W26370   2.569   4.650   3.135 -0.0763 -0.1529  0.1148
 6091W        W26371   1.644  11.538  13.675 -0.0963 -0.0031  0.0336
 6092W        W26372  17.059   3.156   1.451  0.1568  0.3318  0.2647
 6093W        W26373  17.379  12.623   2.042  0.1145  0.1411 -0.0328
 6094W        W26374   3.660   9.644   4.608  0.3133 -0.0137 -0.2339
 6095W        W26375  11.486   8.634  16.091 -0.1932  0.1766  0.0036
 6096W        W26376   3.729   4.760  12.518 -0.2979 -0.0428 -0.1645
 6097W        W26377   4.589   7.312   2.462 -0.0246  0.0107 -0.0473
 6098W        W26378  17.451   0.213  16.148 -0.2090 -0.0205  0.1213
 6099W        W26379  11.115  12.511   0.864  0.0424 -0.1111 -0.0786
 6100W        W26380   2.504  15.152  16.231  0.1323  0.0381  0.0259
 6101W        W26381  12.661   5.581   3.095 -0.0877 -0.1126 -0.0920
 6102W        W26382   0.887   0.612  13.996 -0.1717 -0.0468  0.1531
 6103W        W26383   8.849  11.592   1.320 -0.0571 -0.0215 -0.2311
 6104W        W26384   5.018   5.605  16.414 -0.0975 -0.4686 -0.0254
 6105W        W26385   7.208   2.412  15.128 -0.0613  0.2767 -0.0478
 6106W        W26386   4.453   9.307  12.936 -0.0640  0.1338  0.0259
 6107W        W26387   4.083  14.931   4.009 -0.1805  0.1080  0.3955
 6108W        W26388  10.308  14.139   1.051 -0.3198  0.0626  0.2629
 6109W        W26389  13.797  11.940  12.899 -0.2533  0.2945  0.0183
 6110W        W26390  15.590   4.906  12.315 -0.3294 -0.1052 -0.1955
 6111W        W26391  12.877   8.106   3.214  0.0147 -0.2600  0.0595
 6112W        W26392   1.284   6.358  12.933 -0.0423  0.2104 -0.2668
 6113W        W26393   4.534   5.984  15.760  0.0162  0.2385  0.0837
 6114W        W26394  11.569   5.636  12.998  0.2398  0.1269 -0.2250
 6115W        W26395  13.136   2.839  12.338  0.2286  0.0292 -0.3088
 6116W        W26396  10.869   6.735  15.174  0.1765  0.0880 -0.0009
 6117W        W26397  10.677   5.040  16.157 -0.2139 -0.3316 -0.0171
 6118W        W26398   5.556   4.372   0.089 -0.1479  0.2681 -0.2035
 6119W        W26399   2.876  16.075   1.525  0.0850 -0.0090 -0.3779
 6120W        W26400   1.041   7.249  14.426  0.1728 -0.3041 -0.1691
 6121W        W26401   0.104  12.511   3.047  0.1812  0.1790 -0.0147
 6122W        W26402   1.655   9.714   2.708 -0.1379 -0.0868  0.2377
 6123W        W26403  12.029  10.511   2.636 -0.0346  0.2091  0.2494
 6124W        W26404   6.776  10.912   4.290 -0.1044  0.0599  0.2221
 6125W        W26405   0.206  13.017  16.486 -0.0045 -0.1494 -0.1643
 6126W        W26406   0.214  15.683  12.322 -0.1398  0.0547  0.1493
 6127W        W26407   4.918   0.075  16.509  0.0129  0.0262  0.0683
 6128W        W26408   4.254  13.806   3.722  0.0962 -0.1959  0.0596
 6129W        W26409   3.818  16.419   1.710 -0.1827  0.1843 -0.2601
 6130W        W26410  13.170  10.446  12.464 -0.0050 -0.1445  0.2572
 6131W        W26411  15.761   2.096  13.774 -0.0795 -0.0721 -0.2462
 6132W        W26412  13.495  10.082   2.081 -0.0363  0.0252 -0.0708
 6133W        W26413   7.409   3.384   0.270 -0.1132  0.0804  0.0372
 6134W        W26414   3.939   1.791   2.536 -0.2289 -0.0182  0.0405
 6135W        W26415   0.512   6.709   1.086  0.0818 -0.1670  0.0012
 6136W        W26416  16.914   4.207   4.466 -0.0002  0.0472  0.3037
 6137W        W26417   6.413   2.527   2.195 -0.1811 -0.1771 -0.0553
 6138W        W26418   7.988   8.586  16.158 -0.0788 -0.0876  0.0374
 6139W        W26419   8.940   0.440  15.045 -0.0800  0.1866 -0.2877
 6140W        W26420   9.421   2.540  13.748 -0.2862  0.0516 -0.0293
 6141W        W26421  14.212  17.443  12.941 -0.0153  0.3154 -0.0812
 6142W        W26422   6.848  16.124   3.334  0.2954  0.3879 -0.0086
 6143W        W26423  13.094  16.951  13.443 -0.0206  0.0054 -0.1044
 6144W        W26424   5.820  12.238   4.178 -0.2291  0.1818  0.4181
 6145W        W26425  16.645   5.520   2.053  0.1045  0.0464 -0.0925
 6146W        W26426   2.681   1.380   2.876 -0.1701  0.2354  0.2024
 6147W        W26427  11.955   4.031   0.293 -0.1635 -0.0218 -0.2949
 6148W        W26428   5.835   8.434   4.198 -0.2990  0.0142 -0.0066
 6149W        W26429   0.402   1.061  15.419 -0.0570  0.2407  0.2516
 6150W        W26430   1.969   7.151  14.614  0.1743 -0.2419 -0.0347
 6151W        W26431  11.954  11.078  16.256  0.2282 -0.0125 -0.0433
 6152W        W26432  15.433  14.576   3.346  0.1206  0.3686  0.1498
 6153W        W26433   1.409  12.843  12.877 -0.2121 -0.0671 -0.1699
 6154W        W26434   4.190   4.994  11.874  0.1636 -0.1902  0.4323
 6155W        W26435   0.293  16.977  12.056  0.1846 -0.2214  0.1070
 6156W        W26436   9.536   6.440  13.898 -0.2774 -0.1869 -0.0712
 6157W        W26437  14.140   9.151   1.190  0.2218  0.2352  0.0989
 6158W        W26438   7.761   7.577  15.765  0.1518 -0.0335  0.0513
 6159W        W26439  11.898   4.753  15.236 -0.1287 -0.0522 -0.1019
 6160W        W26440  10.498  17.586  16.608 -0.2950 -0.0262  0.1392
 6161W        W26441  16.889  13.813  14.227 -0.0454 -0.2096  0.2179
 6162W        W26442   0.619  15.609   1.163 -0.0013  0.2873 -0.0886
 6163W        W26443  13.299   9.722  14.218  0.3059 -0.2160  0.1859
 6164W        W26444   8.918  17.154   4.041  0.2883 -0.0854 -0.0349
 6165W        W26445   4.696  14.654   3.544  0.1968 -0.0019 -0.2357
 6166W        W26446   9.911  16.745   1.679 -0.1071  0.1491  0.2988
 6167W        W26447   1.278  13.840   0.820  0.1694  0.0463  0.2347
 6168W        W26448   4.663   5.541  12.060 -0.0110  0.2618 -0.1237
 6169W        W26449   7.874   3.439   0.677  0.1194  0.0391 -0.1397
 6170W        W26450  10.550  10.299   4.092 -0.0605  0.1262 -0.0277
 6171W        W26451  17.372   6.885   4.068  0.1066 -0.0517  0.1917
 6172W        W26452  11.209  15.661   2.581  0.0143  0.0665  0.0574
 6173W        W26453  10.927  16.751  14.497  0.1023  0.1979  0.3304
 6174W        W26454  16.818   3.143  13.175 -0.0875  0.0669 -0.0818
 6175W        W26455  11.992  13.789   2.730  0.2156 -0.1066  0.1231
 6176W        W26456  11.110  10.491  14.801  0.1521 -0.3215 -0.1152
 6177W        W26457   0.519   6.391   1.468 -0.3043 -0.1081 -0.0782
 6178W        W26458  17.109   0.175   3.432  0.1176 -0.0084  0.1282
 6179W        W26459  16.513  12.964   0.849 -0.0994 -0.0972  0.1876
 6180W        W26460   9.501   3.386   3.099 -0.1662 -0.2135  0.1688
 6181W        W26461  16.721   4.652   3.892 -0.4555 -0.0478  0.0221
 6182W        W26462   7.945  17.480   3.826 -0.0391 -0.0604 -0.1936
 6183W        W26463  10.025   3.344  12.302  0.1650  0.4213  0.0582
 6184W        W26464   4.129  15.813   0.036 -0.1871  0.2799  0.3212
 6185W        W26465   6.599   9.920  13.403 -0.1004 -0.2050  0.0428
 6186W        W26466   4.313   1.025   4.669 -0.0133 -0.0401 -0.2083
 6187W        W26467   0.341   7.501  16.126  0.2619  0.0106  0.2867
 6188W        W26468   6.561  14.312   5.195  0.2608 -0.1125 -0.3229
 6189W        W26469   0.157  16.746  13.311 -0.0631  0.3087  0.1185
 6190W        W26470  11.895  11.799   3.914  0.0557  0.2633 -0.1992
 6191W        W26471  13.846  16.640   0.544  0.2061  0.1349  0.0871
 6192W        W26472   5.730  15.832  16.592 -0.0019  0.0959  0.0172
 6193W        W26473  16.869   7.570   3.470 -0.1696  0.3127 -0.0251
 6194W        W26474  11.569   4.882  11.707 -0.1068 -0.1710 -0.0946
 6195W        W26475   7.400   5.091  15.402 -0.1490 -0.3336  0.1443
 6196W        W26476   3.581  11.897  16.058 -0.1652 -0.0443  0.0230
 6197W        W26477   3.553   7.040   3.828  0.1865  0.1308 -0.2187
 6198W        W26478   2.541  17.641  14.353  0.3867  0.0211  0.0383
 6199W        W26479  10.198  12.016   2.695  0.0770 -0.0657 -0.1797
 6200W        W26480   8.450  14.637   1.864  0.0868  0.0923 -0.1708
 6201W        W26481   6.233   9.624  15.969  0.4948 -0.2822  0.1034
 6202W        W26482   1.483   8.715   0.109 -0.1355  0.0570 -0.3379
 6203W        W26483   2.632   5.902  14.834 -0.0135  0.1344  0.5710
 6204W        W26484   4.682   6.170  14.924  0.2590  0.1073  0.0902
 6205W        W26485  10.185   3.487   0.172  0.0716  0.3305  0.2462
 6206W        W26486   8.176   2.319   0.273  0.2678 -0.1030 -0.2103
 6207W        W26487  16.109   2.276   4.987 -0.1180 -0.1134 -0.0989
 6208W        W26488  15.468   7.903  15.805 -0.2480 -0.1278 -0.0283
 6209W        W26489   5.323   8.780   3.413 -0.2729  0.2841  0.2628
 6210W        W26490  14.670  16.911   2.133 -0.1805 -0.1994  0.0088
 6211W        W26491  10.044   0.912   2.901  0.1058  0.1229 -0.0872
 6212W        W26492  11.579   8.352  12.458 -0.2949  0.1451  0.0627
 6213W        W26493   6.993   8.238  15.614  0.1202 -0.1257  0.0375
 6214W        W26494   0.339   8.000  14.594  0.0468 -0.3344 -0.0324
 6215W        W26495  13.225   5.727   0.064 -0.5476  0.0674  0.3293
 6216W        W26496   7.983  15.866   1.321  0.0016  0.0537  0.0615
 6217W        W26497   7.501   6.389  16.699 -0.1026 -0.0201 -0.0736
 6218W        W26498   3.523   0.267   0.236  0.0373  0.0880  0.2808
 6219W        W26499   0.261  10.009   2.607  0.0138  0.1485 -0.1447
 6220W        W26500   1.295   0.680   1.061  0.0795 -0.1503  0.2664
 6221W        W26501  11.524  13.541   2.066  0.0683 -0.0103 -0.0790
 6222W        W26502   6.896   5.688  13.317  0.0165  0.1335 -0.0303
 6223W        W26503  10.079   6.437  13.681  0.1977 -0.0632 -0.1606
 6224W        W26504   0.401  15.292   2.890  0.0425 -0.1136 -0.1108
 6225W        W26505   1.978   3.880   2.166  0.0598 -0.2023  0.0353
 6226W        W26506   5.666  16.840  14.012  0.1155 -0.2463  0.1484
 6227W        W26507   4.237   7.834   1.561 -0.0882  0.3077  0.1888
 6228W        W26508  12.113   1.804   1.589  0.0718 -0.2375 -0.2334
 6229W        W26509  12.845   7.159  13.508 -0.1332  0.0975  0.3124
 6230W        W26510   3.153  16.633   1.180 -0.1367  0.0014  0.3107
 6231W        W26511   0.059  11.306   0.506  0.1259  0.2790  0.1145
 6232W        W26512   1.987  12.259   4.156  0.0671 -0.1216  0.3491
 6233W        W26513   8.194   5.698  15.511  0.1955 -0.2676  0.1239
 6234W        W26514   9.291  17.402   2.753  0.1742 -0.4389 -0.0119
 6235W        W26515   4.455  11.564   5.064  0.1440 -0.0076 -0.0868
 6236W        W26516   8.225  16.535   4.023  0.0839 -0.0933 -0.2224
 6237W        W26517   9.493   0.119  15.935  0.0415  0.1304  0.0824
 6238W        W26518  12.064  14.661   1.301  0.2540 -0.4026 -0.0635
 6239W        W26519   9.062   6.999  16.031 -0.3733 -0.1449 -0.0572
 6240W        W26520   5.521   5.776  15.906 -0.0092  0.1726 -0.2465
 6241W        W26521   2.581   8.205  15.933  0.0277  0.0173 -0.0423
 6242W        W26522  14.184   5.702   2.070  0.2214 -0.1171 -0.1466
 6243W        W26523  12.065   6.994  13.500  0.1388 -0.1071  0.1805
 6244W        W26524  12.007  12.157  16.868  0.0208  0.1002  0.0520
 6245W        W26525  11.538  13.160   1.283 -0.0893  0.0614  0.2283
 6246W        W26526   2.826   8.768  14.545  0.0738  0.2002 -0.2965
 6247W        W26527  10.262  16.537   3.265  0.0843 -0.4080 -0.0658
 6248W        W26528  13.454   1.237  14.056  0.1037 -0.1664  0.1828
 6249W        W26529  14.631  11.417   1.389  0.0830  0.1507  0.0592
 6250W        W26530  10.483   5.868  16.081  0.0290 -0.0150 -0.1985
 6251W        W26531  16.342   4.460  14.221  0.1897 -0.0324  0.1366
 6252W        W26532   9.628   1.575   4.801  0.2225  0.0957 -0.1824
 6253W        W26533  16.276  12.896   2.516  0.0399 -0.2079  0.1138
 6254W        W26534   0.412  11.120  14.828  0.0808  0.0712 -0.2436
 6255W        W26535  10.605   1.594  16.264 -0.1741  0.0312  0.1694
 6256W        W26536  13.582   9.574   4.377  0.0602 -0.0211 -0.0410
 6257W        W26537   8.675   5.567  15.185 -0.0551  0.2598  0.0038
 6258W        W26538  15.757  12.555  13.371  0.1873 -0.1301 -0.0865
 6259W        W26539   6.197  14.113  15.605  0.4248  0.0837  0.4171
 6260W        W26540  12.372  16.176   2.820  0.0406  0.0152 -0.0259
 6261W        W26541  10.655   5.469  13.917 -0.0408  0.0748  0.0241
 6262W        W26542   7.683   5.915   4.384  0.2965  0.0327  0.2805
 6263W        W26543  17.632  12.416  13.971  0.1167  0.4150 -0.0440
 6264W        W26544   4.799  15.808  15.480  0.0609  0.0768  0.0488
 6265W        W26545  11.589   6.346  10.434  0.0209  0.0056 -0.1207
 6266W        W26546   9.172  11.433  13.631  0.0938 -0.0536 -0.0064
 6267W        W26547   7.010   9.335  12.212 -0.1568  0.1933  0.0602
 6268W        W26548   0.745   0.134   0.348 -0.1572  0.2497 -0.1809
 6269W        W26549  17.240   1.562  14.360 -0.0245  0.3346  0.2134
 6270W        W26550  10.416   7.725   1.431  0.1989  0.2700 -0.0305
 6271W        W26551   2.440  15.236   3.433 -0.3819  0.1259  0.1917
 6272W        W26552  15.274  14.169  15.643 -0.1768  0.0562  0.1288
 6273W        W26553  13.022  16.326   2.080 -0.0385  0.0826  0.1327
 6274W        W26554   0.765  13.434   0.803  0.0926 -0.2260  0.1283
 6275W        W26555  15.873   2.764  16.461  0.0471  0.0176  0.2880
 6276W        W26556  11.025  12.025  13.298  0.1284  0.1098 -0.1860
 6277W        W26557  14.317   4.389   0.274 -0.4414 -0.0370 -0.1011
 6278W        W26558  11.302   1.726   0.587 -0.0886 -0.1203  0.1997
 6279W        W26559   5.426   8.919   4.303  0.0298 -0.2258 -0.1249
 6280W        W26560  15.864   5.929  14.686  0.1833  0.0948  0.1580
 6281W        W26561  11.780   5.007   0.521 -0.1096  0.2749  0.0556
 6282W        W26562   0.236   4.821   0.535  0.1449  0.2700  0.1214
 6283W        W26563  11.445  10.357  13.478  0.0205  0.1471  0.1082
 6284W        W26564   4.742  16.528  13.620  0.2852 -0.2773  0.0884
 6285W        W26565   9.013   5.412  12.179 -0.0955 -0.1119 -0.1466
 6286W        W26566   2.938   8.785  16.696 -0.1653  0.0550  0.1289
 6287W        W26567  16.009   5.596  15.632 -0.1976  0.0900 -0.1093
 6288W        W26568   2.590   1.708   0.445  0.0032 -0.0978 -0.1563
 6289W        W26569  13.415  15.404   4.268 -0.2867  0.4438  0.0274
 6290W        W26570   6.868   9.398  14.757  0.1648  0.1651  0.0802
 6291W        W26571  13.558   0.034   3.875 -0.0145 -0.0570  0.2645
 6292W        W26572  16.482   3.735  14.528 -0.0202 -0.1175 -0.3053
 6293W        W26573   5.606  14.273   3.698  0.0074 -0.0080  0.1784
 6294W        W26574  11.432   2.192   3.081 -0.0637 -0.1358  0.3413
 6295W        W26575   9.765  10.563  14.782  0.0646  0.1303  0.0033
 6296W        W26576   3.110   7.053  16.131 -0.0447 -0.3482 -0.0442
 6297W        W26577   1.397   7.956  16.667  0.1861 -0.0071  0.0744
 6298W        W26578   7.666  11.834   1.071  0.2083  0.0730 -0.1186
 6299W        W26579  15.942   2.013   2.929  0.0307  0.3100  0.0008
 6300W        W26580  10.293   4.616  14.990 -0.0936 -0.2980 -0.1135
 6301W        W26581  14.121   4.109  14.028 -0.1884  0.3818 -0.1235
 6302W        W26582   1.441   7.143   0.771 -0.1634  0.0337  0.4641
 6303W        W26583  10.189   4.419   3.716 -0.3693  0.0717 -0.0938
 6304W        W26584  12.258   0.993  16.521  0.0556 -0.0823 -0.0945
 6305W        W26585  16.734   6.858   0.361  0.0841 -0.0081  0.0739
 6306W        W26586   4.410  11.005   0.479 -0.0552 -0.1240 -0.1446
 6307W        W26587   5.745   8.933   2.033  0.0321  0.4981  0.0872
 6308W        W26588   4.729   4.611   0.730 -0.1066  0.0081 -0.1980
 6309W        W26589  14.998   6.383  12.213  0.1387  0.3634  0.0249
 6310W        W26590  10.736   3.646  12.952  0.0024  0.0820 -0.0485
 6311W        W26591  15.235  14.176   4.616 -0.0112 -0.0570  0.0486
 6312W        W26592  12.928  15.943   4.882  0.2623 -0.1754 -0.0657
 6313W        W26593  14.197  16.218   1.620 -0.0851 -0.1507 -0.1091
 6314W        W26594  12.191   6.433  11.990 -0.2446 -0.3354  0.1572
 6315W        W26595   0.759   7.232  13.975  0.0884 -0.1620  0.2062
 6316W        W26596   8.823  15.949  13.022 -0.2409  0.2701 -0.1122
 6317W        W26597   0.100   7.617   3.510  0.0849  0.3421  0.0210
 6318W        W26598   7.691   5.806  12.958 -0.1493  0.1947  0.2613
 6319W        W26599  16.854   3.519   3.481  0.0114  0.1289  0.2282
 6320W        W26600   7.904  10.803  15.655  0.1409  0.1269  0.1132
 6321W        W26601  12.727   8.062   1.712 -0.0820  0.5173 -0.2214
 6322W        W26602   8.572  12.233   5.009 -0.2557  0.0255 -0.2401
 6323W        W26603  13.444   7.190  13.555  0.0558 -0.0457 -0.1498
 6324W        W26604   7.534   0.184   1.933 -0.2637 -0.1841 -0.2247
 6325W        W26605  13.820   4.891  14.371  0.1506  0.2201  0.0094
 6326W        W26606  16.195   0.771   4.883  0.1611 -0.1132 -0.0577
 6327W        W26607   6.046   3.944   4.151 -0.2894  0.1134  0.0389
 6328W        W26608   8.323  14.057  13.602 -0.0508  0.1868  0.0056
 6329W        W26609   6.288   5.351   3.727  0.0379 -0.2109 -0.3318
 6330W        W26610   7.283  16.969  13.526  0.2809 -0.0060 -0.2774
 6331W        W26611  12.217  10.834   3.957  0.3898  0.3781  0.0925
 6332W        W26612   2.290  14.734   1.884  0.4263 -0.0583  0.2077
 6333W        W26613  10.587   0.318   0.120 -0.0319  0.0953 -0.0260
 6334W        W26614  11.305  14.955   1.505  0.0646  0.0322 -0.0150
 6335W        W26615   3.692  11.849  12.930 -0.0841 -0.0982 -0.0682
 6336W        W26616  10.276  15.214   1.929 -0.2560 -0.2729  0.1165
 6337W        W26617  16.146  10.529   2.385 -0.0240 -0.0965 -0.1013
 6338W        W26618  13.868   7.477   3.502 -0.1667 -0.1422 -0.1518
 6339W        W26619   4.675   5.294   2.569 -0.0515  0.0741 -0.0823
 6340W        W26620  14.162   2.763   2.875  0.0175 -0.1616  0.0761
 6341W        W26621  12.153   1.413  13.178 -0.2257 -0.0151 -0.0071
 6342W        W26622  16.932   3.958  12.675  0.0184 -0.1324  0.2829
 6343W        W26623   4.682  11.196  15.188  0.0876  0.2875 -0.1450
 6344W        W26624   4.452   6.693   4.629  0.1994  0.3408 -0.0726
 6345W        W26625  16.798   5.112   1.842  0.0439 -0.0916  0.0457
 6346W        W26626  16.463  16.921   2.392  0.1094  0.0291  0.2560
 6347W        W26627  14.178  12.863   2.647  0.2518 -0.0256 -0.1821
 6348W        W26628  12.360   9.105   3.236  0.0297 -0.0394  0.0244
 6349W        W26629  17.539   8.611  13.943 -0.1765  0.2206  0.0081
 6350W        W26630  15.028   3.859  15.816  0.1031  0.0916 -0.2341
 6351W        W26631   8.667  13.370   1.911  0.3126  0.3251 -0.0839
 6352W        W26632  16.151   6.625  12.302  0.0384 -0.1841 -0.0515
 6353W        W26633   6.384  17.064   2.792 -0.0686  0.1336  0.0467
 6354W        W26634   7.376  11.947   1.775 -0.3155  0.0390  0.0202
 6355W        W26635  16.019  11.293   0.947  0.1413 -0.2205 -0.1021
 6356W        W26636   2.315  13.211   0.352  0.0305 -0.0601  0.0212
 6357W        W26637  13.229  15.999   0.575  0.3654  0.0321 -0.2952
 6358W        W26638  17.379   3.206  13.100 -0.0571 -0.2288  0.0294
 6359W        W26639   6.799  13.157   2.774  0.1644 -0.1587 -0.0096
 6360W        W26640  11.087   0.693  16.213 -0.1851  0.0292 -0.0726
 6361W        W26641   1.751  13.226  12.885 -0.0272 -0.2835  0.0306
 6362W        W26642   0.406  10.368  14.395 -0.0754 -0.0268  0.0186
 6363W        W26643   7.034  12.183   2.126 -0.0550 -0.0637 -0.0944
 6364W        W26644  13.037   3.715  15.021  0.0879  0.2231 -0.0933
 6365W        W26645   7.587   3.424  11.765  0.1117  0.0763  0.0236
 6366W        W26646   2.017  11.240  14.703 -0.1673 -0.2301 -0.1844
 6367W        W26647   0.767  15.615  13.380  0.1064 -0.0202  0.0122
 6368W        W26648   6.397   7.268   0.115 -0.0698  0.1345  0.0977
 6369W        W26649   3.966   7.044   3.234 -0.0971  0.2017 -0.0194
 6370W        W26650  11.141   3.753  16.246 -0.1268 -0.0718  0.1819
 6371W        W26651   7.041  12.217  14.921 -0.2978  0.1203  0.1075
 6372W        W26652   4.188  13.045   0.463  0.0072 -0.0222  0.2616
 6373W        W26653   5.533  15.365  15.793  0.0752 -0.0492  0.0836
 6374W        W26654   2.669   7.786   2.731  0.0314  0.2318  0.2552
 6375W        W26655  10.152  16.384   2.544 -0.0289  0.2271  0.0893
 6376W        W26656  13.690   9.949   4.759 -0.0176  0.2707 -0.1615
 6377W        W26657   2.712   9.290   2.876 -0.1011  0.3378  0.1037
 6378W        W26658   1.860   5.473  16.246  0.0334 -0.0097  0.0558
 6379W        W26659   4.912  11.458  13.057  0.1795 -0.1391  0.1559
 6380W        W26660   9.396  17.482  14.242 -0.0709 -0.2219  0.0694
 6381W        W26661   3.711   5.092   2.050  0.2031  0.1408 -0.0469
 6382W        W26662   2.917  13.107   1.144  0.2056  0.1005  0.0538
 6383W        W26663  15.073  15.398   3.589 -0.2077 -0.3146  0.1238
 6384W        W26664  11.999   8.558   4.821 -0.1634  0.1253 -0.0352
 6385W        W26665   6.515   7.314   4.564  0.1878 -0.3154 -0.0256
 6386W        W26666  13.191  14.908  13.760  0.0534  0.0073  0.0996
 6387W        W26667  11.018   9.166  16.420  0.0228  0.0001  0.1121
 6388W        W26668   8.817   3.066  16.864  0.2609 -0.0807  0.0530
 6389W        W26669  10.456   9.533  15.370  0.2011  0.3401  0.1871
 6390W        W26670   4.510   4.751   1.732 -0.1538  0.0023 -0.0550
 6391W        W26671   9.413   8.240   2.802 -0.0628  0.2389 -0.0338
 6392W        W26672   1.650   0.053   2.246 -0.0520 -0.0323  0.3337
 6393W        W26673   3.736  13.361   3.154 -0.4114  0.3097 -0.1648
 6394W        W26674  11.641  15.181  13.456 -0.0304  0.0450  0.2293
 6395W        W26675   8.000   5.157  13.258 -0.1541 -0.1609 -0.0160
 6396W        W26676  13.579  16.957  11.991 -0.1034  0.2112 -0.0447
 6397W        W26677   1.728   8.576   1.351  0.0706  0.1572  0.0900
 6398W        W26678   8.042   4.239   1.845  0.1840 -0.1958  0.1651
 6399W        W26679   1.088   7.790  14.658  0.0391  0.0533 -0.0711
 6400W        W26680  14.307   3.337  14.629 -0.0814 -0.0891 -0.2052
 6401W        W26681  10.894  10.021   0.806 -0.0522 -0.3050  0.2570
 6402W        W26682   7.213  14.472  16.080  0.1530  0.1047  0.2766
 6403W        W26683   1.952  12.963  14.757  0.0196  0.2243 -0.1106
 6404W        W26684   8.032   4.087  15.459 -0.2888 -0.1580  0.0120
 6405W        W26685  13.997   0.545   1.514 -0.1931  0.1103  0.0653
 6406W        W26686   4.165   1.188  15.763 -0.0480  0.2103  0.0813
 6407W        W26687   4.780   7.001  16.107 -0.0495  0.0358  0.1217
 6408W        W26688   0.055   4.948   4.991 -0.0907 -0.0281 -0.0818
 6409W        W26689   8.273   6.444  12.917  0.1515 -0.1299 -0.1317
 6410W        W26690   5.496   9.014  15.856 -0.1517 -0.1585  0.2044
 6411W        W26691  17.138   8.095   3.622  0.1784 -0.0173 -0.0147
 6412W        W26692   0.130   3.298  14.410  0.1531  0.1059  0.0225
 6413W        W26693  14.190  14.203   2.536  0.2046 -0.1459  0.3072
 6414W        W26694  14.085   9.872   4.393 -0.0015  0.1909  0.0556
 6415W        W26695   7.594   1.946  15.062 -0.0612 -0.0687 -0.2583
 6416W        W26696  15.645   3.204  14.047 -0.2726  0.0076  0.2302
 6417W        W26697   7.983   5.206   2.309  0.0027  0.3413  0.1352
 6418W        W26698  11.707  13.537  13.362 -0.1942  0.0560 -0.2324
 6419W        W26699   8.283  14.395  15.536 -0.0865  0.3046 -0.1634
 6420W        W26700  16.364   5.294  16.280 -0.0463  0.2709 -0.0739
 6421W        W26701   5.229   1.054   3.152 -0.0529  0.2459  0.1086
 6422W        W26702   9.415   0.225   1.556 -0.2269 -0.0559  0.6139
 6423W        W26703   3.679   2.252   2.377  0.1111 -0.1887 -0.1035
 6424W        W26704   9.704  16.223   2.636 -0.0548 -0.0736  0.0387
 6425W        W26705   1.160   1.600  13.904 -0.0213 -0.0120 -0.0993
 6426W        W26706   1.899   1.189  15.448 -0.0861  0.3348  0.3109
 6427W        W26707  17.562  15.328   0.474  0.0301 -0.0978 -0.0327
 6428W        W26708   0.299   2.709  16.185  0.1092 -0.1078  0.0285
 6429W        W26709  13.304   3.103  16.625 -0.1680  0.1408  0.2577
 6430W        W26710  14.770   8.392   3.436  0.1620 -0.2009  0.1388
 6431W        W26711  12.766  16.054  15.850 -0.1092 -0.1181 -0.0134
 6432W        W26712  14.143  12.486   3.459  0.0177 -0.2863 -0.4163
 6433W        W26713   9.989   4.403  11.740  0.2629  0.0798 -0.4259
 6434W        W26714   6.001  15.826   0.779  0.1801  0.2239  0.0379
 6435W        W26715   3.882   7.509  13.403  0.0130  0.2175  0.2222
 6436W        W26716   9.052   4.736   0.961 -0.0515 -0.2403  0.1921
 6437W        W26717   2.762   9.742   2.038  0.0803 -0.1944 -0.1295
 6438W        W26718  15.660  11.697   1.082 -0.0691 -0.2515 -0.1422
 6439W        W26719  13.044   5.898  16.502  0.1472  0.0317  0.1295
 6440W        W26720  15.384   6.593  12.539 -0.3450  0.0877 -0.0318
 6441W        W26721  14.224   8.332  15.228  0.0770 -0.0423  0.1654
 6442W        W26722  12.977  10.017   1.996 -0.0554  0.0362  0.0199
 6443W        W26723   5.064   1.579  14.425 -0.0773  0.2084  0.1853
 6444W        W26724   6.886  11.817   1.777 -0.2774  0.0530  0.2983
 6445W        W26725  10.251   4.069  11.148 -0.3828  0.2271  0.2274
 6446W        W26726  12.186   8.923   1.344 -0.1663 -0.1484  0.4938
 6447W        W26727   4.943  17.016  14.904  0.0060 -0.3584  0.1825
 6448W        W26728  13.374   0.531  13.797  0.1263  0.0089  0.0446
 6449W        W26729   1.296   3.776   0.075 -0.2334  0.0708  0.1947
 6450W        W26730   8.780   4.055  13.491 -0.1572 -0.1661 -0.1890
 6451W        W26731  11.716  10.349  14.688  0.0605  0.0176 -0.0225
 6452W        W26732  12.985   3.356  13.803 -0.0981 -0.0041  0.0571
 6453W        W26733  10.612  11.263  14.526 -0.0782 -0.1035 -0.0075
 6454W        W26734   0.011   8.340   0.197  0.1844 -0.0226  0.3395
 6455W        W26735  12.430   3.464  15.679  0.1218  0.0916  0.1532
 6456W        W26736   1.426   1.827  13.501  0.0901  0.0637 -0.3268
 6457W        W26737  13.108   9.556  12.565 -0.2824 -0.2288  0.2249
 6458W        W26738   6.491  11.168   2.994 -0.3837 -0.2265  0.0205
 6459W        W26739  10.816   8.988  12.489 -0.2048  0.1614 -0.0437
 6460W        W26740   9.384   5.430  15.887 -0.0676 -0.1121 -0.0874
 6461W        W26741  11.153   5.481  15.552  0.1706  0.2235 -0.0623
 6462W        W26742   2.993  15.480  12.600  0.2356  0.1161  0.2871
 6463W        W26743   0.682  11.913  14.269  0.0675 -0.2531  0.1815
 6464W        W26744   8.438  13.221  13.970 -0.2005  0.0012  0.1173
 6465W        W26745  11.727  10.808   1.140  0.1818 -0.2654  0.0678
 6466W        W26746   1.396   6.603  12.084 -0.1151  0.2052 -0.0786
 6467W        W26747  10.982  11.732  13.816  0.2587  0.0513 -0.0393
 6468W        W26748  17.200  10.334  14.302 -0.1553 -0.1525 -0.2217
 6469W        W26749   4.749   5.604  13.876  0.1939  0.2881 -0.1530
 6470W        W26750  15.637   6.400   1.285  0.1335  0.3461 -0.0238
 6471W        W26751   7.129   4.341   1.633 -0.1390 -0.2539  0.1932
 6472W        W26752  10.911   8.580   3.267  0.2719  0.0549 -0.0686
 6473W        W26753   9.976  10.334   4.387 -0.1689 -0.1745  0.3973
 6474W        W26754  13.593  12.884   5.554 -0.0887 -0.0157 -0.1608
 6475W        W26755   6.371  11.964  14.720  0.1349 -0.1825  0.5815
 6476W        W26756   6.776   5.000  15.309 -0.1731  0.2233 -0.2524
 6477W        W26757  10.591  12.311  14.359 -0.2931 -0.2509  0.1489
 6478W        W26758   3.314   6.008   0.471  0.3943  0.0777  0.2235
 6479W        W26759   9.900   0.948  13.078  0.2805 -0.1197 -0.2857
 6480W        W26760  15.866   6.139  13.676 -0.1445 -0.4485  0.3840
 6481W        W26761   1.954   9.932   0.078 -0.0681  0.1931 -0.1787
 6482W        W26762  15.216   2.141   1.813 -0.0363  0.2117  0.1643
 6483W        W26763  17.039   5.124  12.752  0.0720  0.0577  0.2739
 6484W        W26764  16.849   5.052   0.553  0.0513  0.0542  0.2133
 6485W        W26765  11.119   6.292  14.160  0.1251  0.1170  0.1257
 6486W        W26766   5.804   5.587  12.744 -0.0059  0.4306  0.1492
 6487W        W26767   2.934   2.531  16.315 -0.0270 -0.1248 -0.2178
 6488W        W26768  12.661   4.440   3.208  0.2184  0.1696 -0.0220
 6489W        W26769   4.844  10.604  13.406  0.0749 -0.0705  0.0160
 6490W        W26770   6.047  17.637   3.972 -0.0691 -0.0326 -0.1539
 6491W        W26771  16.077   6.853   3.366 -0.2680 -0.1306 -0.1905
 6492W        W26772   1.845  16.709  16.869 -0.2348  0.0064  0.1119
 6493W        W26773   3.043  16.457   0.138 -0.0728  0.1382  0.0238
 6494W        W26774  13.674   9.680   0.648 -0.0013 -0.2641  0.2027
 6495W        W26775  11.131  13.036   3.076 -0.4304 -0.0133 -0.0225
 6496W        W26776  10.734  14.849  15.985 -0.2338 -0.0576  0.1194
 6497W        W26777   6.056  12.984  15.557 -0.0036  0.1341 -0.2307
 6498W        W26778   3.949   3.826  12.349  0.1416  0.3193  0.1235
 6499W        W26779  10.289   7.016   1.736 -0.0573 -0.1703 -0.0019
 6500W        W26780   6.031  10.845   3.805 -0.0592 -0.0021  0.1794
 6501W        W26781   0.381  11.163   0.146 -0.1613  0.2380  0.0513
 6502W        W26782   9.300   7.848   3.787 -0.0801  0.0609  0.1161
 6503W        W26783   2.916   8.362   3.913  0.1784 -0.2402  0.2262
 6504W        W26784  12.048   8.621  14.677  0.0589 -0.0482  0.4602
 6505W        W26785  11.856   1.194   2.412  0.1352 -0.2756 -0.5502
 6506W        W26786  17.271  15.301   0.896 -0.1486  0.1335  0.1534
 6507W        W26787  16.498   8.789  13.730  0.0038 -0.0278  0.0342
 6508W        W26788  13.602   4.607  12.509 -0.4090  0.0951  0.4169
 6509W        W26789   7.591  15.916   4.233 -0.0852 -0.0357  0.0425
 6510W        W26790   5.949  15.983   4.748  0.1051  0.2903 -0.0491
 6511W        W26791   7.264  12.435   4.650  0.1587  0.2348 -0.0025
 6512W        W26792  11.046   1.714  13.087 -0.1818  0.2795  0.0240
 6513W        W26793   2.497  12.522  12.173  0.0618  0.0814  0.3482
 6514W        W26794   7.828   3.936  16.044 -0.0750  0.2311  0.1013
 6515W        W26795   5.064   2.672  16.086  0.1518 -0.2124 -0.0314
 6516W        W26796  13.133   7.917  14.091 -0.1595 -0.0028 -0.0459
 6517W        W26797   7.503   6.445  14.157 -0.0812  0.0195 -0.0215
 6518W        W26798   0.308  12.525   4.609  0.2305 -0.3963  0.1704
 6519W        W26799   3.298  12.896   1.426 -0.0925  0.0814 -0.0139
 6520W        W26800   9.536   5.705   0.700  0.0452 -0.0729 -0.0415
 6521W        W26801  13.081   0.167   4.151 -0.1121 -0.0566  0.0857
 6522W        W26802  14.495  10.971  16.771  0.0826  0.1071  0.2877
 6523W        W26803   7.253   4.384   3.699  0.0623  0.0412 -0.2353
 6524W        W26804   3.338  15.997   4.387  0.4014 -0.0183 -0.2851
 6525W        W26805   0.072   4.835  16.072 -0.0674  0.0476  0.1558
 6526W        W26806   3.783  13.474  15.606  0.4016  0.1415  0.2939
 6527W        W26807   6.277  13.219  13.780 -0.1170 -0.2106  0.2816
 6528W        W26808   4.567  16.090   1.220 -0.1234  0.1336 -0.0864
 6529W        W26809   1.432   7.284   3.303 -0.1468  0.1533 -0.0370
 6530W        W26810   3.916   2.561   0.976 -0.1987  0.1467  0.2282
 6531W        W26811   1.395   8.639   4.529 -0.1899 -0.2590 -0.0922
 6532W        W26812  12.039   6.078   0.391 -0.3120 -0.0380  0.0477
 6533W        W26813  15.883   4.419   2.112  0.0123 -0.1290 -0.0757
 6534W        W26814   6.166   7.189   3.900  0.0382  0.1824 -0.0813
 6535W        W26815   2.808   3.444  15.205  0.0606  0.0237  0.3302
 6536W        W26816  10.105   0.314   5.034  0.3093  0.2272 -0.1825
 6537W        W26817   1.119  16.485   4.554 -0.0345  0.0489 -0.0977
 6538W        W26818   1.468  16.990  16.401  0.0421  0.1540  0.0714
 6539W        W26819   4.713   2.327  12.758  0.2633 -0.1783 -0.0223
 6540W        W26820   4.630  16.702   0.185 -0.5087  0.0014  0.1204
 6541W        W26821  14.828  16.623  12.339 -0.1398 -0.0177  0.1015
 6542W        W26822   4.056  14.377   2.783 -0.1837  0.1874 -0.1977
 6543W        W26823   2.667  10.851  13.481 -0.1715  0.0894  0.1312
 6544W        W26824  15.162  16.027  15.140 -0.1553  0.0798 -0.0791
 6545W        W26825   4.000   4.656   1.695 -0.1464  0.1260 -0.0145
 6546W        W26826   4.256   0.521  12.845 -0.1962  0.1279 -0.1380
 6547W        W26827  12.372   2.107  12.817  0.1191 -0.0928 -0.0662
 6548W        W26828  17.018  10.473  15.984 -0.0431  0.0026  0.5032
 6549W        W26829  11.005   9.455   0.326 -0.0391  0.2057 -0.2127
 6550W        W26830   3.921   6.159   1.329 -0.1721 -0.0777  0.1938
 6551W        W26831   9.811  11.564   3.621  0.1949 -0.0575 -0.0122
 6552W        W26832  12.581  15.722  14.573  0.0857 -0.1359  0.1134
 6553W        W26833   2.240   4.316   2.964  0.1492  0.1805  0.1007
 6554W        W26834   6.159   9.881  14.350  0.0345 -0.0822  0.0128
 6555W        W26835  11.567  16.497   4.875  0.0715 -0.2062  0.0020
 6556W        W26836   6.736   7.125   3.987  0.2654  0.1055  0.0991
 6557W        W26837   9.012  14.899  13.479 -0.2251  0.0820 -0.0847
 6558W        W26838  17.107   3.953  13.872 -0.5164 -0.0100  0.2553
 6559W        W26839  12.347   3.303  16.179 -0.0449 -0.2751  0.3564
 6560W        W26840   3.336   0.744  13.414 -0.2811 -0.0676 -0.0738
 6561W        W26841   5.553  15.524   4.166 -0.2744  0.0173 -0.2181
 6562W        W26842   8.351  12.003  12.080 -0.2223 -0.2112 -0.0343
 6563W        W26843   8.261   4.968  12.034 -0.1531  0.0447  0.0658
 6564W        W26844  15.141  12.631  13.728  0.3173  0.2816 -0.3152
 6565W        W26845   5.279  12.680  12.103 -0.1553  0.2932  0.1863
 6566W        W26846   5.043  15.557   3.257 -0.0092 -0.5341  0.1540
 6567W        W26847   9.550   7.959  13.203 -0.0743  0.1796  0.2232
 6568W        W26848   3.272   5.517  12.459 -0.0311  0.3364 -0.1473
 6569W        W26849   0.876   9.001   5.407 -0.0316  0.0654 -0.3864
 6570W        W26850  12.074  11.174  12.533  0.1755  0.0180  0.1423
 6571W        W26851   2.849  14.805  15.137  0.3631 -0.0334  0.0394
 6572W        W26852   1.693  15.478  12.695 -0.1970 -0.1299  0.1788
 6573W        W26853   1.456  14.684   1.499  0.0293 -0.2142  0.0703
 6574W        W26854   9.120   5.428   0.684  0.0279  0.2091  0.0712
 6575W        W26855  13.689   1.111   3.688  0.4355 -0.2629  0.3213
 6576W        W26856   2.806   8.901   1.380  0.3983  0.2685 -0.0392
 6577W        W26857   7.127   2.444   4.907 -0.1952 -0.1101  0.3711
 6578W        W26858  13.360  12.748  12.602  0.0020  0.0089 -0.0451
 6579W        W26859   1.299  15.325   4.707  0.1595 -0.2360  0.0894
 6580W        W26860  10.559   4.596  11.904  0.0944  0.2309 -0.2544
 6581W        W26861   5.960   2.396   4.905 -0.0725  0.2176 -0.3090
 6582W        W26862   5.746  13.768  13.225  0.0493 -0.0253  0.1083
 6583W        W26863   7.987   5.668  16.332  0.1824  0.3149  0.1467
 6584W        W26864  13.618  16.960  13.441  0.1639  0.0956  0.2243
 6585W        W26865   9.959   2.007   1.336 -0.1590  0.2290  0.1340
 6586W        W26866  15.104  14.349  12.275 -0.1908  0.1640 -0.0780
 6587W        W26867   7.767   3.564  14.759  0.2252 -0.1971 -0.2593
 6588W        W26868  13.927   6.413  12.388 -0.1103  0.1154  0.0215
 6589W        W26869  15.933  10.265  12.559  0.4161 -0.1405 -0.0233
 6590W        W26870  10.342  14.133  13.566 -0.3152  0.1686  0.0528
 6591W        W26871   6.882  11.086  12.478  0.1190 -0.1582 -0.2166
 6592W        W26872  13.163   4.651   1.058  0.0412 -0.0406 -0.1494
 6593W        W26873   5.160   3.786   2.361 -0.0894  0.1812 -0.2995
 6594W        W26874  11.759  15.502   1.291  0.0550 -0.0322 -0.0069
 6595W        W26875   2.891   1.485   1.937  0.0482  0.1294 -0.0541
 6596W        W26876  12.410   1.634   2.542  0.2281 -0.1390 -0.1568
 6597W        W26877  17.142   8.399   2.717  0.3827 -0.2598  0.0536
 6598W        W26878   2.347   4.471  12.313  0.2643  0.0164 -0.2485
 6599W        W26879   6.275   9.079   4.566 -0.0914  0.2900 -0.1944
 6600W        W26880  13.586   6.997   0.550  0.1260  0.1381 -0.0129
 6601W        W26881   9.322   9.061  15.364  0.2329  0.0351 -0.2098
 6602W        W26882   2.378   1.502  13.437 -0.2658 -0.2559  0.0525
 6603W        W26883   0.950   9.455   5.154 -0.0537 -0.0579 -0.1535
 6604W        W26884   4.601   9.826   1.704 -0.1687 -0.2478 -0.2532
 6605W        W26885   9.238   8.682   1.725  0.0725 -0.2177  0.0783
 6606W        W26886  14.654   8.663   4.090  0.1201  0.0356  0.3211
 6607W        W26887   9.846  17.703   1.663  0.0273  0.3033  0.0852
 6608W        W26888  14.676   6.197  12.582 -0.3536  0.0790  0.2305
 6609W        W26889   8.695  10.434   2.190 -0.0396  0.3108 -0.0609
 6610W        W26890   6.680   3.236  14.054 -0.2960 -0.3667 -0.1330
 6611W        W26891   3.666   9.439   0.963  0.2573  0.1031  0.2824
 6612W        W26892   1.912  13.237   2.647  0.1123 -0.2873  0.4776
 6613W        W26893   0.280   0.355  15.882 -0.2160 -0.0089 -0.0772
 6614W        W26894   3.279  14.884   0.562  0.0285  0.1238 -0.1853
 6615W        W26895   8.469   8.852  14.041  0.0093  0.1027  0.0304
 6616W        W26896  15.095   7.242   0.108  0.2885 -0.0609  0.0889
 6617W        W26897   9.871  12.291  14.969 -0.3122  0.0811 -0.2411
 6618W        W26898   3.400   4.424  12.689 -0.2734 -0.1808  0.2133
 6619W        W26899   2.610   1.285   3.439 -0.0546 -0.0105  0.0255
 6620W        W26900  11.319  13.517   1.605 -0.0171  0.0058 -0.1043
 6621W        W26901   8.535  12.483  12.763  0.0477 -0.1690  0.1732
 6622W        W26902  15.876   1.467  14.108  0.1397  0.1636 -0.0649
 6623W        W26903  14.354   3.267  13.129 -0.3485 -0.2076 -0.0153
 6624W        W26904   5.876  16.741  11.016  0.1798 -0.3775  0.0603
 6625W        W26905   7.654  16.111  15.593  0.4963 -0.4929  0.0909
 6626W        W26906   5.585  15.768   2.147  0.0112  0.0573 -0.0655
 6627W        W26907   7.700  11.671   3.350 -0.2603 -0.0642 -0.0338
 6628W        W26908  11.752   8.398   0.099  0.0266  0.1550  0.3222
 6629W        W26909  11.703  17.261   3.012 -0.0330 -0.1583 -0.0063
 6630W        W26910  16.374  13.039   5.148  0.0225  0.0942 -0.1017
 6631W        W26911  12.283   4.999   0.572  0.0443 -0.3223  0.1693
 6632W        W26912   3.853   5.800   3.257 -0.0109  0.1712  0.1437
 6633W        W26913  17.034  14.204  12.538 -0.1196  0.1742  0.2199
 6634W        W26914   2.160  17.234   0.310 -0.1491  0.0429 -0.1906
 6635W        W26915   5.529  14.166  12.489  0.0915 -0.0402 -0.0409
 6636W        W26916   5.093   4.758  14.564 -0.2640  0.1081 -0.2527
 6637W        W26917   2.795  12.750   0.847  0.3071 -0.2392 -0.4174
 6638W        W26918   2.627   9.429   3.366 -0.1070 -0.3088 -0.1795
 6639W        W26919   9.497  16.966  16.063  0.1376 -0.1040 -0.0813
 6640W        W26920   8.271   0.973  15.653  0.0207 -0.0173 -0.1506
 6641W        W26921   1.118  15.270  12.111 -0.0107 -0.2223 -0.2483
 6642W        W26922  15.574  11.108   1.136 -0.0925 -0.0172  0.0343
 6643W        W26923   4.999   3.690   1.799 -0.2127 -0.4566 -0.1436
 6644W        W26924  10.147   6.562   0.805 -0.4014  0.1902  0.1165
 6645W        W26925   1.922   8.508   3.846  0.1611  0.0867  0.1036
 6646W        W26926  14.171   7.544   0.008 -0.1037  0.0782  0.0489
 6647W        W26927  12.448  16.854   2.993 -0.2292  0.2570  0.0170
 6648W        W26928  12.355   8.811  15.614  0.2858 -0.1379  0.0777
 6649W        W26929   7.361   6.424  14.991  0.1363 -0.0959 -0.0033
 6650W        W26930  14.607   0.759   2.945  0.0910  0.0813 -0.1363
 6651W        W26931   8.096  16.650   1.762 -0.1494  0.1171 -0.0170
 6652W        W26932   8.248   0.470   0.768  0.0700  0.1061  0.2098
 6653W        W26933   6.400   5.575   2.460  0.2311  0.0043 -0.2059
 6654W        W26934  11.671  13.848  14.750 -0.1297 -0.0833  0.3127
 6655W        W26935   4.088  11.939  15.910 -0.2333  0.1890 -0.0973
 6656W        W26936  14.084   4.417   0.702  0.0263  0.1014 -0.1257
 6657W        W26937  11.427   8.072   4.374 -0.0276 -0.2083  0.1809
 6658W        W26938  12.503  17.537  15.996  0.0881  0.1352  0.1598
 6659W        W26939  11.337  16.544  14.129  0.2127 -0.0942  0.1052
 6660W        W26940   0.707  11.969   2.632 -0.0330  0.3318 -0.0940
 6661W        W26941  10.253   1.985  14.208 -0.0181  0.2594  0.1661
 6662W        W26942   6.533   3.320   2.651 -0.1776 -0.0819  0.0245
 6663W        W26943   1.397  11.260  14.047  0.0988 -0.1144  0.0102
 6664W        W26944  16.762   5.996   1.988 -0.0007  0.4543 -0.0253
 6665W        W26945   9.183   4.047   0.799  0.0389  0.1329  0.1069
 6666W        W26946  15.076   5.657  14.611  0.1960 -0.3120  0.0016
 6667W        W26947   1.740  11.224   2.276  0.2426  0.0505 -0.1552
 6668W        W26948   5.913   2.611   2.065 -0.0921 -0.1653 -0.1381
 6669W        W26949  11.990   7.674  15.102  0.0220  0.0356  0.1117
 6670W        W26950  10.302  14.924  13.905  0.0986 -0.2060  0.3260
 6671W        W26951  13.062   0.967   4.762 -0.2482 -0.3220  0.1387
 6672W        W26952  14.447   4.647  15.605  0.1988 -0.0365  0.0919
 6673W        W26953   8.347   8.228  12.377  0.0466  0.3890 -0.1955
 6674W        W26954  17.222  16.808   0.103  0.0635 -0.0838  0.0865
 6675W        W26955  13.289   8.129  13.582 -0.0058  0.2550 -0.3380
 6676W        W26956   1.715   4.432   2.908 -0.1149 -0.0634 -0.3595
 6677W        W26957  15.303  10.751   4.530  0.0752 -0.0794 -0.3446
 6678W        W26958  17.042   1.717  13.931  0.1324 -0.2268  0.1306
 6679W        W26959  12.893  11.952  15.897 -0.1034  0.2227  0.2222
 6680W        W26960  10.057  11.699   0.569 -0.1037 -0.0902  0.0731
 6681W        W26961  11.082  15.819  13.619 -0.1484  0.1500  0.2176
 6682W        W26962  11.992   1.477   0.301 -0.0640  0.2358 -0.0425
 6683W        W26963  17.475  13.045   2.301  0.0688  0.2326 -0.2836
 6684W        W26964  11.267  10.220   3.603 -0.2307  0.3490  0.1230
 6685W        W26965  12.695   2.931  13.894 -0.0073  0.3015 -0.0668
 6686W        W26966  12.497   2.091  15.307  0.2262 -0.2314  0.1053
 6687W        W26967  12.749  13.658   4.784  0.0692 -0.2446 -0.1006
 6688W        W26968  16.543   0.829  15.636 -0.0025  0.2758  0.1178
 6689W        W26969  16.966   1.754   2.463  0.1350  0.0265  0.0976
 6690W        W26970  13.827   1.978   2.131 -0.1610  0.0588  0.0030
 6691W        W26971  12.295   6.984  14.366 -0.0101 -0.2818  0.2483
 6692W        W26972  17.311   3.506   3.704  0.1494 -0.0551  0.1562
 6693W        W26973   4.072   1.980   4.199 -0.2539 -0.0731 -0.0403
 6694W        W26974  16.674   7.956   3.756 -0.0308 -0.0180  0.0009
 6695W        W26975  17.289   5.250   2.523  0.2118 -0.1935  0.1428
 6696W        W26976   1.893   4.110   1.246  0.0011  0.1724  0.4723
 6697W        W26977   0.661  10.882   1.827 -0.1530  0.0569  0.1234
 6698W        W26978   4.517   4.423   3.387 -0.0073 -0.1028  0.1049
 6699W        W26979  16.702   4.214  14.630  0.1411 -0.0554 -0.1993
 6700W        W26980  10.461   3.841  13.359  0.1661 -0.0539  0.0948
 6701W        W26981  14.180   4.567   4.467  0.1332  0.2892  0.0287
 6702W        W26982   3.747   7.751  13.855  0.0535  0.0358 -0.2824
 6703W        W26983   5.415  10.170  16.665 -0.0473 -0.0535  0.1695
 6704W        W26984  10.510  16.979   1.515  0.0647 -0.0320  0.0068
 6705W        W26985   1.736   5.090   0.239  0.0454  0.1643 -0.1294
 6706W        W26986  16.606   5.291   2.495 -0.1750 -0.1537 -0.0177
 6707W        W26987  12.169   6.887  12.306  0.1640 -0.0085 -0.0301
 6708W        W26988   8.713   0.923   0.079 -0.1039  0.0352 -0.0070
 6709W        W26989   0.804   9.687  14.775 -0.0456 -0.0251  0.3020
 6710W        W26990  16.827   2.890   1.075 -0.2286  0.0204 -0.0782
 6711W        W26991   3.055   8.072   0.680  0.2019  0.3994 -0.3169
 6712W        W26992  15.207  16.657   0.214 -0.1319  0.0431 -0.0271
 6713W        W26993  17.616  13.509   3.458 -0.2667  0.0473 -0.1098
 6714W        W26994  13.304  13.155   4.552 -0.0369  0.0566  0.0285
 6715W        W26995  10.117   4.078   1.586  0.0380 -0.5918 -0.0370
 6716W        W26996   8.989   2.428  14.289 -0.0026  0.0866  0.0905
 6717W        W26997  11.934   9.188  14.027  0.0714  0.3090 -0.0351
 6718W        W26998   9.263   4.749   5.656  0.1984  0.0426  0.2181
 6719W        W26999   3.480  15.097  12.417 -0.0258  0.2646 -0.1388
 6720W        W27000   7.460   7.284  16.417 -0.2403 -0.0456 -0.2380
 6721W        W27001  17.721   8.928   2.176  0.0400  0.0379  0.1317
 6722W        W27002   9.095   5.539  14.190  0.1141  0.1807 -0.2142
 6723W        W27003   5.160   4.588  16.716  0.2509 -0.2626 -0.0169
 6724W        W27004  16.428   6.932  13.780 -0.0433  0.2102  0.1548
 6725W        W27005  16.337  11.684  13.403 -0.0415  0.0847 -0.0719
 6726W        W27006  11.027  13.396   2.177  0.0354  0.0026  0.0979
 6727W        W27007  16.335   6.220  13.533 -0.0477  0.0551  0.1537
 6728W        W27008   4.693   1.072   5.177  0.0599  0.1856 -0.0099
 6729W        W27009  17.357  10.799   1.182  0.0049  0.0880 -0.1385
 6730W        W27010   5.200   6.073   2.236 -0.1189  0.2529  0.1317
 6731W        W27011   1.033  13.607   0.313  0.0839 -0.2860  0.1568
 6732W        W27012   8.176   5.472  11.941 -0.1610 -0.2302 -0.2301
 6733W        W27013   5.839   8.772   4.551 -0.0499 -0.0747 -0.1773
 6734W        W27014   9.004  10.868   2.169  0.1069  0.0468 -0.2054
 6735W        W27015   6.610   0.364   1.679  0.0184 -0.1597  0.1254
 6736W        W27016  16.526   1.385   1.198  0.0261 -0.0100  0.0117
 6737W        W27017   0.619   9.315   4.096  0.1635 -0.2051  0.1135
 6738W        W27018   9.468  14.942   1.589 -0.2226 -0.0198  0.0740
 6739W        W27019  10.487   1.990  12.845 -0.3204  0.0365 -0.1106
 6740W        W27020   6.029  12.172  12.735 -0.0799  0.2257 -0.3526
 6741W        W27021   2.792   5.222  12.315 -0.3492  0.1412 -0.2153
 6742W        W27022   1.139   5.936  16.496  0.0495  0.2191 -0.0727
 6743W        W27023   4.255  12.474   4.058 -0.2753  0.0702  0.0603
 6744W        W27024  16.197   2.209  13.852 -0.1720 -0.2807 -0.0222
 6745W        W27025   8.675   3.761  13.121 -0.1209 -0.1240 -0.0108
 6746W        W27026   2.384   5.561   4.595  0.2708  0.2919 -0.0514
 6747W        W27027  14.838   3.915   3.519  0.0294 -0.0762  0.0955
 6748W        W27028  11.194   0.277   6.042  0.2080 -0.0008 -0.1021
 6749W        W27029   3.451  12.042   3.059  0.2646  0.2183  0.3058
 6750W        W27030   5.483   0.394  15.768  0.2701 -0.1645  0.0599
 6751W        W27031   5.732   9.076  12.088 -0.0971  0.2182  0.1741
 6752W        W27032   6.307   9.231  14.588  0.0768 -0.1368  0.1156
 6753W        W27033  14.781  10.390  11.962 -0.0713 -0.1190  0.1746
 6754W        W27034  17.590   7.280  14.191 -0.2217  0.0096 -0.2355
 6755W        W27035  15.168  13.152   4.558  0.2718  0.0359 -0.0426
 6756W        W27036   7.438  10.509  13.372 -0.2992  0.0292  0.0402
 6757W        W27037  12.569  11.988   1.475 -0.0717  0.0112  0.0950
 6758W        W27038  12.832  16.334   1.180 -0.0058  0.1244  0.2378
 6759W        W27039   4.140   5.211   0.123  0.0145  0.1046 -0.1356
 6760W        W27040   2.606  15.955   1.059 -0.3379  0.2089  0.0654
 6761W        W27041   3.123  11.068   0.174 -0.1759  0.1538 -0.0454
 6762W        W27042  14.059   4.826   0.304  0.2808  0.3152  0.1859
 6763W        W27043  14.559   8.622  14.483  0.1886 -0.1798 -0.0239
 6764W        W27044   3.158   8.429  15.387 -0.1926 -0.2612  0.0475
 6765W        W27045  14.700   4.756  16.453  0.0347  0.0124 -0.1195
 6766W        W27046  16.727  16.813  12.465 -0.3494 -0.0887  0.0543
 6767W        W27047   5.656  17.598  14.937  0.0135  0.0721 -0.0209
 6768W        W27048   5.065  14.601   0.135  0.2076  0.0032 -0.5587
 6769W        W27049  10.608  12.075  15.661 -0.1091  0.0179  0.0365
 6770W        W27050  15.812  15.589  13.418 -0.0855 -0.1369  0.1304
 6771W        W27051  17.347  14.313  16.606  0.0486  0.0489 -0.1845
 6772W        W27052   6.955   8.874  13.951  0.2885  0.1149  0.1281
 6773W        W27053   3.066   3.696   2.080 -0.1156  0.1422  0.1106
 6774W        W27054   3.913  15.066  13.012 -0.1232 -0.1572  0.2875
 6775W        W27055   1.155   3.654   0.886  0.0246 -0.0366 -0.2104
 6776W        W27056  16.567  14.258  12.938 -0.0599 -0.0823  0.0991
 6777W        W27057  15.990  13.161  15.981  0.0821  0.2502  0.2535
 6778W        W27058  14.295  16.056   1.143  0.1665  0.0848 -0.1554
 6779W        W27059  11.625   5.952  16.368 -0.0725  0.1227  0.1233
 6780W        W27060  10.955  11.855   3.310  0.0357  0.2242 -0.2201
 6781W        W27061   8.344   8.202   3.346  0.0464  0.3416  0.1290
 6782W        W27062   1.673   5.969  16.483 -0.0513 -0.0117  0.0420
 6783W        W27063   2.798  11.447   0.314 -0.0413  0.1170  0.0624
 6784W        W27064   4.960   2.492   4.873  0.0294 -0.3692 -0.1557
 6785W        W27065   9.285   0.036  15.107  0.0925 -0.0826  0.1504
 6786W        W27066   4.184  11.692   0.699 -0.1875  0.0076 -0.2838
 6787W        W27067   6.414   2.745  12.147 -0.0696  0.3229  0.2764
 6788W        W27068   9.465   3.192  14.492 -0.2690 -0.4472  0.1289
 6789W        W27069  15.624   9.019   2.065  0.1372  0.1495  0.0018
 6790W        W27070  17.681   9.291   1.770 -0.3657  0.0762  0.1520
 6791W        W27071   9.061   4.678   3.782  0.0519 -0.2685 -0.1528
 6792W        W27072  12.145  13.696  14.483 -0.0231  0.1157 -0.1928
 6793W        W27073  14.132  17.216   2.998  0.0941 -0.0522 -0.2864
 6794W        W27074   9.051   0.722  15.832  0.1762 -0.0644  0.1871
 6795W        W27075   4.683  15.510  13.149  0.1337  0.1320  0.1787
 6796W        W27076  10.677   4.244   4.123 -0.0264  0.1365 -0.1376
 6797W        W27077   3.946  10.978   2.760  0.2969 -0.2669 -0.0883
 6798W        W27078   6.157  10.902  14.005 -0.2026  0.0369  0.0628
 6799W        W27079   2.425  10.309  16.231  0.0719 -0.0736  0.0761
 6800W        W27080   4.453   2.609   2.467  0.1247 -0.0576 -0.2064
 6801W        W27081   7.015  13.073  13.362  0.0045 -0.5162 -0.2474
 6802W        W27082   3.477  10.535   0.699 -0.0564 -0.5249  0.0031
 6803W        W27083  17.670   9.628   2.565  0.1138  0.1973 -0.2796
 6804W        W27084   0.122  12.991   4.871 -0.4564 -0.4308  0.3732
 6805W        W27085  14.598   8.874   3.670 -0.0879  0.1761  0.1152
 6806W        W27086   1.637   0.230  12.602 -0.1737 -0.2628  0.0999
 6807W        W27087   8.015  14.540  15.070 -0.1980  0.2510  0.0959
 6808W        W27088  16.502   0.043  13.160 -0.0173 -0.0102 -0.1938
 6809W        W27089   1.448   2.470  13.548 -0.0325 -0.0208 -0.0908
 6810W        W27090   3.228   5.284  13.762 -0.0581  0.0345 -0.3297
 6811W        W27091  17.187  11.901   5.060  0.0598 -0.1160 -0.0520
 6812W        W27092  15.382   5.689  12.837  0.0217  0.0703  0.0368
 6813W        W27093  10.738   5.889   0.567 -0.1702 -0.2690 -0.0587
 6814W        W27094   2.240   9.537  16.509  0.0300  0.1027 -0.2540
 6815W        W27095   6.939   7.463  13.340 -0.0078 -0.0788 -0.0600
 6816W        W27096  14.513  14.237   0.993  0.1064  0.2311 -0.0583
 6817W        W27097   6.688  10.474  12.548  0.0115  0.0199 -0.1525
 6818W        W27098   0.576  12.874   3.871  0.0301  0.1719 -0.1841
 6819W        W27099   4.827   3.969   1.427 -0.1436  0.4787 -0.2794
 6820W        W27100  10.378   0.096   3.082  0.0844 -0.1080 -0.0943
 6821W        W27101  17.228   0.667   3.087  0.0697 -0.0886 -0.0084
 6822W        W27102  14.948   7.921  15.774  0.0884  0.1465  0.2983
 6823W        W27103  15.722  15.093  14.869  0.2047  0.0250  0.1546
 6824W        W27104   1.393  13.986  12.192 -0.1768 -0.0801  0.0104
 6825W        W27105   8.110   2.051   2.590  0.1247 -0.1157  0.0108
 6826W        W27106  14.232  15.927   4.123  0.0672 -0.1399  0.1008
 6827W        W27107  12.490  10.401  15.565  0.1723 -0.2058  0.0343
 6828W        W27108   2.993   0.593  14.452  0.0197  0.0299 -0.0486
 6829W        W27109  12.970  12.547   0.411  0.1279 -0.0718 -0.1833
 6830W        W27110   0.156   7.705   2.536 -0.0019  0.1201 -0.0699
 6831W        W27111   1.741   9.668  13.062 -0.3624  0.0317 -0.1532
 6832W        W27112   3.696  10.581  16.413 -0.1414 -0.0701  0.1117
 6833W        W27113   0.561   2.406  14.753 -0.1119  0.1128 -0.1730
 6834W        W27114  13.951  11.067  13.710 -0.0658 -0.2235  0.0303
 6835W        W27115  17.664   7.569  16.494 -0.2493 -0.1457  0.1107
 6836W        W27116  13.382  12.255  14.682  0.0055  0.0388 -0.2600
 6837W        W27117   5.134  11.848  15.340 -0.0815 -0.1265 -0.0393
 6838W        W27118  12.135   9.984  16.163 -0.2417  0.2347  0.2383
 6839W        W27119   2.536   9.908  12.129 -0.0428 -0.1085 -0.0225
 6840W        W27120   1.144   2.489  14.127  0.1212 -0.0616 -0.0666
 6841W        W27121  15.419  13.717  15.714  0.1850  0.1791 -0.0069
 6842W        W27122   9.443  16.969   1.417 -0.2162  0.2420  0.2020
 6843W        W27123  16.049   0.094  11.858  0.2924 -0.1906 -0.2761
 6844W        W27124  12.867  12.908   0.083 -0.1965  0.2043  0.0869
 6845W        W27125   9.712  17.185   2.938  0.0701 -0.0561  0.0813
 6846W        W27126   4.024   1.988  14.747  0.1885 -0.3668 -0.0002
 6847W        W27127   1.840   2.436   4.558  0.1016  0.0059 -0.1272
 6848W        W27128   9.567  12.110  12.208 -0.0917  0.0535  0.0118
 6849W        W27129  17.493  17.504   1.340  0.1040  0.1356  0.2556
 6850W        W27130   5.285  14.823   4.784  0.1698  0.1395 -0.1256
 6851W        W27131   1.218   3.554  14.940 -0.0036  0.0861  0.1602
 6852W        W27132  13.720  14.341  16.742 -0.2744  0.1763  0.1430
 6853W        W27133   8.833   3.237   1.107  0.1052  0.1428  0.1880
 6854W        W27134   2.041   6.572   0.476  0.0476  0.1333  0.2752
 6855W        W27135   4.797  13.703   3.454 -0.2070 -0.2336 -0.3840
 6856W        W27136   5.084   6.948  16.619 -0.0349  0.0630  0.3184
 6857W        W27137  16.799   3.526  16.269  0.0393 -0.0063  0.5063
 6858W        W27138   4.015   2.718  13.235 -0.2050  0.0424  0.0191
 6859W        W27139  10.985  12.903   4.417  0.1626  0.0308  0.1749
 6860W        W27140   8.926  14.167   0.479 -0.1122  0.1423 -0.2023
 6861W        W27141  16.500   0.551   4.130 -0.1922 -0.1546  0.3019
 6862W        W27142   8.768  16.248   3.093  0.0368  0.1248  0.3077
 6863W        W27143  14.639  13.996  15.967 -0.2552 -0.0428 -0.1391
 6864W        W27144  12.206   9.296   0.954  0.0320 -0.0224 -0.0724
 6865W        W27145   0.349  11.657   3.642 -0.2556  0.2639 -0.3892
 6866W        W27146   5.048  14.498   3.861 -0.0814 -0.0173  0.1651
 6867W        W27147   8.049   7.605   1.418 -0.2929 -0.0714  0.0242
 6868W        W27148   4.607   9.376  16.761 -0.0572 -0.3689 -0.1693
 6869W        W27149   8.646   7.618  13.254 -0.0675  0.2230  0.2480
 6870W        W27150   6.742  14.397  12.718  0.0278  0.1072  0.0127
 6871W        W27151  13.140  12.472  13.503 -0.0853  0.1095  0.2199
 6872W        W27152  11.457   9.845   2.388  0.2236  0.1274  0.2915
 6873W        W27153  17.022  16.543  12.908  0.0828 -0.2270 -0.1304
 6874W        W27154  16.853   8.363   0.947 -0.0989 -0.1570 -0.0605
 6875W        W27155   6.719   2.083   1.130 -0.2314 -0.1179 -0.2076
 6876W        W27156   3.730  10.377  14.015 -0.3778  0.0569  0.1407
 6877W        W27157   9.768  13.090  12.656  0.0117  0.0182  0.0702
 6878W        W27158  15.172  13.354  15.830  0.0027 -0.1138 -0.0865
 6879W        W27159   7.721   7.591  12.387  0.1658  0.0567 -0.1047
 6880W        W27160  17.112  12.191   1.623 -0.0572  0.2824  0.0530
 6881W        W27161   3.965  10.521   2.587 -0.0676 -0.0524 -0.2171
 6882W        W27162   5.687   2.280   1.807  0.0037 -0.1763  0.0689
 6883W        W27163  11.702  12.193  14.441  0.0845 -0.2084 -0.1299
 6884W        W27164   3.341   1.218   1.094  0.0198 -0.0499  0.2239
 6885W        W27165  11.390  12.150   3.436  0.3161 -0.3226  0.1564
 6886W        W27166  16.738   8.833  16.270  0.1455 -0.0938  0.0594
 6887W        W27167  10.849   8.896   4.661 -0.1758 -0.1301 -0.1323
 6888W        W27168   2.331  15.972  12.701 -0.1247  0.2125 -0.0216
 6889W        W27169   3.883  11.216   0.338  0.0370  0.3405  0.1615
 6890W        W27170   4.800   2.556  15.228 -0.0869 -0.0323 -0.1698
 6891W        W27171  17.579  16.946  12.910  0.0183 -0.3172  0.0006
 6892W        W27172  12.512  12.210  15.549 -0.2296  0.0665 -0.0093
 6893W        W27173  10.626   2.561   4.369  0.0081  0.2601  0.1542
 6894W        W27174   0.857   4.476   3.266  0.0310  0.1064 -0.1837
 6895W        W27175   5.931   1.514   2.999  0.2012  0.0541 -0.0624
 6896W        W27176   3.412   9.014   3.186  0.1744 -0.2399  0.0025
 6897W        W27177  12.090   5.825  16.123 -0.0456  0.1394 -0.1422
 6898W        W27178  10.944   0.232   4.458 -0.2007 -0.1631  0.1774
 6899W        W27179   2.197  17.454  14.762  0.1787 -0.2752 -0.0415
 6900W        W27180  14.047   8.734   3.541  0.0698  0.1795 -0.1578
 6901W        W27181   1.077  15.415   2.377 -0.1882 -0.0230  0.0401
 6902W        W27182   5.746   0.483  14.376 -0.0631  0.0855  0.0530
 6903W        W27183   7.126  12.189   0.404 -0.1179  0.1788 -0.2367
 6904W        W27184   7.141   7.840  14.178  0.1530 -0.1160  0.2774
 6905W        W27185   0.428   6.814  12.398 -0.1938  0.0269  0.3048
 6906W        W27186  10.607  16.360   1.002  0.3783 -0.1666 -0.1892
 6907W        W27187   1.255   6.791   4.355  0.0098 -0.0276  0.0333
 6908W        W27188   6.691  17.405  16.611 -0.0847 -0.0149  0.2638
 6909W        W27189   4.750  15.729  14.958  0.1419 -0.1734  0.3368
 6910W        W27190   3.121   1.458   3.226 -0.0099 -0.1034 -0.1113
 6911W        W27191   2.010   9.956  16.277 -0.1418  0.0210  0.2507
 6912W        W27192   7.650  11.122   2.517 -0.5148 -0.1893 -0.1017
 6913W        W27193   1.279  10.796  12.939  0.1987 -0.0555  0.1627
 6914W        W27194   2.184   7.677  16.306  0.0172  0.0153 -0.1102
 6915W        W27195   4.556   5.818   4.111 -0.0425  0.0909  0.0911
 6916W        W27196  12.518  15.934  16.301  0.2186 -0.2144 -0.1823
 6917W        W27197  17.288  10.755  13.255 -0.0577 -0.0653  0.0853
 6918W        W27198  10.009  12.983   1.336  0.2003 -0.3758 -0.0408
 6919W        W27199  15.606  10.418   0.726 -0.0607 -0.1296  0.3166
 6920W        W27200   3.983   8.770  14.799 -0.0859  0.0090  0.1623
 6921W        W27201  13.765   2.942   1.941  0.1553  0.1571  0.1371
 6922W        W27202   2.652   8.399   0.979 -0.2204  0.0969 -0.0820
 6923W        W27203   2.598  10.051   0.355 -0.2516  0.0222  0.1393
 6924W        W27204   4.753   4.009   4.566 -0.0403  0.2743  0.0817
 6925W        W27205   2.152  16.510   1.041 -0.0190 -0.1615 -0.0670
 6926W        W27206  17.072   7.287   2.168 -0.0058  0.1570  0.1601
 6927W        W27207  15.688   4.477   0.262 -0.4333  0.1184 -0.0398
 6928W        W27208  12.737   6.995  15.343 -0.3276 -0.1231  0.0223
 6929W        W27209  10.248  14.558  16.856  0.1231  0.0607  0.3602
 6930W        W27210   3.193  11.814  14.170 -0.0837 -0.3554  0.1596
 6931W        W27211   1.857   4.160   0.715 -0.1833 -0.2064  0.0059
 6932W        W27212   2.827  15.012  16.611 -0.1843  0.1633 -0.2065
 6933W        W27213   3.351   6.197  14.577  0.1544 -0.1966  0.0263
 6934W        W27214  14.308  11.945  14.871 -0.0536  0.1745  0.0830
 6935W        W27215  14.690   6.816   0.747 -0.1921 -0.1134  0.0288
 6936W        W27216  13.761  15.021  15.634 -0.0091 -0.1428 -0.1065
 6937W        W27217  16.426   8.217  15.695 -0.0578 -0.2232  0.0596
 6938W        W27218  11.234  11.675  15.415 -0.0008 -0.1722 -0.1422
 6939W        W27219  12.583  16.544  12.456 -0.2715 -0.3514  0.1728
 6940W        W27220  15.800  16.462   1.209  0.1175 -0.2991 -0.1537
 6941W        W27221  14.221  10.810  15.740 -0.0090  0.1163 -0.2608
 6942W        W27222   5.574   1.344  12.666 -0.2246  0.2053  0.0615
 6943W        W27223  11.319   9.564   1.319  0.1736  0.2394 -0.0587
 6944W        W27224  12.071   9.348  12.086  0.1622 -0.1511  0.3137
 6945W        W27225   4.622   6.493   2.930  0.0624  0.1232  0.1080
 6946W        W27226  17.719   8.812  13.051  0.1148 -0.2118 -0.1388
 6947W        W27227  13.296  15.979   2.388 -0.2929 -0.0705 -0.2462
 6948W        W27228   0.124  17.413  16.638  0.1198 -0.0439 -0.0589
 6949W        W27229   1.572   2.160   4.212 -0.0324 -0.2349 -0.1128
 6950W        W27230  17.136   0.546   0.871 -0.3139 -0.1725  0.0013
 6951W        W27231   8.367   3.092  13.933  0.1110  0.1330  0.2450
 6952W        W27232   8.403   5.471  13.377 -0.2736  0.0048  0.0269
 6953W        W27233   2.444  11.199  16.392 -0.0769 -0.0349  0.0991
 6954W        W27234   1.693   0.106   1.721  0.0680 -0.0941 -0.0185
 6955W        W27235   4.647  13.195  16.721 -0.1088 -0.1310  0.2022
 6956W        W27236   1.351  11.140   4.443 -0.0406  0.3134  0.0952
 6957W        W27237  12.582   5.400  15.951 -0.2513 -0.2237 -0.2030
 6958W        W27238   7.688  11.192   1.116  0.0838  0.1180 -0.1050
 6959W        W27239  12.885  16.031  15.358  0.0088 -0.1129 -0.1000
 6960W        W27240  14.853   5.270   2.788  0.1862 -0.3118  0.1045
 6961W        W27241  16.802  10.147  12.130  0.1199 -0.2207  0.1652
 6962W        W27242   8.021   2.714  12.299 -0.0445 -0.1751 -0.3006
 6963W        W27243   6.522  16.531  16.472 -0.0262  0.2183  0.2147
 6964W        W27244  16.330   2.751   4.898 -0.1719 -0.3186 -0.1416
 6965W        W27245   3.349  15.903   0.713 -0.0630 -0.1672 -0.0841
 6966W        W27246   4.724   9.721  12.924 -0.3008  0.1973 -0.0116
 6967W        W27247  15.681   5.201   2.859  0.1103  0.0305  0.2398
 6968W        W27248   4.029  13.528   4.719  0.1946  0.0138  0.2506
 6969W        W27249  12.167   4.412  11.875  0.1798  0.3026  0.0566
 6970W        W27250   3.569   9.348  15.623  0.1201  0.0117  0.1031
 6971W        W27251   2.765  12.429   3.480 -0.2706 -0.1678 -0.0769
 6972W        W27252  10.595   7.920  13.912 -0.1626 -0.1305 -0.1255
 6973W        W27253   4.559  15.264   2.808  0.0972 -0.1532  0.2729
 6974W        W27254  11.349   4.772  14.303  0.1927 -0.1525  0.0580
 6975W        W27255  11.909  16.656  14.108 -0.2006  0.3460  0.1816
 6976W        W27256  16.151   1.753  15.665 -0.0030  0.0628 -0.0160
 6977W        W27257   5.209  13.692   2.991  0.0463  0.0584 -0.0153
 6978W        W27258  10.104  12.490   3.799 -0.1471 -0.0220 -0.0484
 6979W        W27259   1.870  16.706  16.345  0.0008  0.0901 -0.1779
 6980W        W27260   8.042  17.333   2.384 -0.1778 -0.3486  0.0932
 6981W        W27261  14.623  17.406   1.837 -0.1578  0.3538 -0.1181
 6982W        W27262  16.000   8.107  12.448 -0.0841 -0.0114 -0.1799
 6983W        W27263   9.501   8.698  14.812 -0.0687  0.1850  0.3296
 6984W        W27264   8.677  12.126  12.455 -0.0725  0.2651  0.3712
 6985W        W27265  15.717  11.389  13.738 -0.2120  0.0044  0.3506
 6986W        W27266   5.898  15.775  15.545 -0.0605  0.1804  0.1862
 6987W        W27267  14.236  14.974   4.058 -0.0115 -0.0915 -0.2837
 6988W        W27268   2.060   4.324  15.663  0.0435 -0.2837 -0.1663
 6989W        W27269   9.497  12.078   1.922 -0.1381 -0.3757 -0.0330
 6990W        W27270   9.931   1.233   3.823  0.0568  0.0067  0.1972
 6991W        W27271  12.751   2.284   0.800  0.3324 -0.2694 -0.1980
 6992W        W27272  12.225  11.703  16.494  0.0907  0.0518 -0.0066
 6993W        W27273  12.692   3.215  15.179  0.0351 -0.1288 -0.0586
 6994W        W27274   6.482   7.838  15.602 -0.0755 -0.0316  0.1362
 6995W        W27275   8.773   0.411   2.393  0.0231  0.0735  0.2104
 6996W        W27276   5.530  10.823   3.889 -0.0341 -0.0864  0.0862
 6997W        W27277   3.966  10.759   0.582 -0.2795 -0.1922 -0.1390
 6998W        W27278  10.024   3.620  12.875  0.2169  0.1000 -0.0507
 6999W        W27279  10.827   2.611  13.868  0.0297  0.2243  0.0679
 7000W        W27280  13.941  13.993  15.060  0.0383 -0.1078  0.1731
 7001W        W27281  16.571  11.985  15.526 -0.3044 -0.1345 -0.1330
 7002W        W27282   3.761  15.460  12.714 -0.2828  0.0997  0.1176
 7003W        W27283   3.238  13.707  14.220 -0.0246 -0.2485 -0.1149
 7004W        W27284   7.092  10.382   1.349  0.1073 -0.2128 -0.0825
 7005W        W27285   5.097  10.816   1.985  0.1197  0.0176 -0.2912
 7006W        W27286   2.499  15.816   0.580 -0.1445  0.0377  0.2372
 7007W        W27287  10.430   8.539   0.127 -0.1037 -0.2882  0.0612
 7008W        W27288   6.919   3.677  13.932 -0.1315  0.0577  0.2807
 7009W        W27289  14.574  10.003  14.058  0.0859 -0.2137 -0.2897
 7010W        W27290   3.733  14.223  12.271 -0.1017  0.0409 -0.2615
 7011W        W27291   2.971   8.313  16.392 -0.0802  0.2425  0.1819
 7012W        W27292  15.297   2.286  16.033  0.3316 -0.5608  0.0039
 7013W        W27293   4.359  12.471   3.055 -0.2001 -0.1505 -0.0808
 7014W        W27294   2.174  10.483   0.853  0.0224  0.1653 -0.1963
 7015W        W27295   7.054   2.920  14.177  0.3201 -0.0488 -0.2525
 7016W        W27296  11.293   8.874  13.242 -0.0210 -0.2715  0.1403
 7017W        W27297  12.584   3.488   2.849  0.0693 -0.0470 -0.2272
 7018W        W27298  12.231   4.967  13.242  0.1178 -0.1195 -0.0746
 7019W        W27299  11.641   5.264   5.116  0.3304 -0.1144  0.1319
 7020W        W27300   9.175   6.288  12.564 -0.1628 -0.0159  0.0203
 7021W        W27301  17.377   3.582   1.559 -0.1959  0.1879 -0.1821
 7022W        W27302   9.877   5.060   1.208  0.1863 -0.2629 -0.0391
 7023W        W27303  12.779   7.723   4.070  0.2878 -0.3042 -0.2339
 7024W        W27304   3.647   7.217   1.884 -0.0695 -0.0156 -0.0366
 7025W        W27305   4.010   8.631   4.865  0.0455  0.0317 -0.0543
 7026W        W27306   8.641  16.293   3.634 -0.4206 -0.2042  0.0856
 7027W        W27307   9.330   9.364   0.603 -0.3490  0.0306  0.0067
 7028W        W27308  15.710  14.297   2.257 -0.0058  0.1672  0.1873
 7029W        W27309   0.448   1.785  16.006 -0.3402 -0.0136 -0.3354
 7030W        W27310  17.067   2.589  12.464  0.0740 -0.0764  0.2248
 7031W        W27311   7.777   2.113  12.087 -0.1274 -0.1322 -0.0303
 7032W        W27312  12.436  11.554   4.315  0.1905  0.0883 -0.1377
 7033W        W27313   2.395  12.979   3.159  0.1747 -0.1481  0.2119
 7034W        W27314   0.912  11.385   4.479  0.2259 -0.0740  0.0352
 7035W        W27315   8.725  12.504   2.050  0.0310  0.2071  0.3009
 7036W        W27316   9.600   1.884  12.662 -0.0505 -0.0044 -0.1503
 7037W        W27317  12.492   8.459   2.511  0.2062 -0.0238  0.3440
 7038W        W27318   0.297   6.201  15.474  0.1370  0.0140  0.4004
 7039W        W27319   7.547   0.503   2.638  0.1126 -0.0474  0.2811
 7040W        W27320   6.063   5.065   0.815 -0.3559  0.1578  0.1274
 7041W        W27321   6.117   8.626   3.111  0.1841 -0.3307  0.4214
 7042W        W27322   8.221   2.759  15.659  0.1554 -0.1922  0.0600
 7043W        W27323  11.164   9.502   3.107 -0.1183 -0.0140 -0.0728
 7044W        W27324  14.441   1.514  12.082 -0.3309  0.1870  0.1416
 7045W        W27325   6.123   0.487  16.548 -0.0011  0.0810 -0.4751
 7046W        W27326  12.657   4.088   4.150 -0.0114  0.0206  0.0568
 7047W        W27327  13.375   0.823   3.355  0.0784 -0.0146 -0.3700
 7048W        W27328  13.454  17.216   0.110  0.1173 -0.0209 -0.1584
 7049W        W27329   7.333  12.269   3.878 -0.0039  0.0666 -0.0944
 7050W        W27330  10.093   1.587   4.613 -0.1564 -0.1243 -0.1776
 7051W        W27331  10.360   6.835   0.436  0.0180 -0.1407 -0.1010
 7052W        W27332  11.652  15.809   1.741 -0.3940  0.0314  0.3139
 7053W        W27333  12.695   5.607  11.092 -0.1099  0.0090  0.1906
 7054W        W27334   4.249  13.452   5.197  0.0487  0.3440  0.1804
 7055W        W27335  12.703   4.430   2.196  0.3301 -0.3557  0.2289
 7056W        W27336  13.668   4.840  13.542 -0.2212 -0.0768  0.1211
 7057W        W27337   7.293  13.414  15.319  0.0985 -0.1728 -0.3468
 7058W        W27338  12.858  11.365  15.864 -0.1292  0.1838  0.1295
 7059W        W27339  14.673  17.455   2.949 -0.0843  0.0662  0.0442
 7060W        W27340   2.543  14.037  12.997 -0.0111  0.1993  0.3088
 7061W        W27341   1.757  14.074  16.652 -0.2544  0.0943 -0.1154
 7062W        W27342  14.284   4.044   1.101 -0.0121 -0.0220  0.0428
 7063W        W27343  13.432   8.307  15.012 -0.0749  0.0402 -0.1260
 7064W        W27344   7.830  12.595   4.656  0.2726  0.1773  0.0903
 7065W        W27345  10.276   1.130   1.572 -0.1808 -0.1301 -0.0860
 7066W        W27346  15.506  13.930   2.828 -0.1349 -0.0197  0.0224
 7067W        W27347  10.324   6.721   3.175 -0.1104  0.2627  0.0300
 7068W        W27348   6.030   1.507   0.680 -0.2548  0.0058 -0.1963
 7069W        W27349  11.032   5.250   2.285  0.0849 -0.0068 -0.1728
 7070W        W27350   3.264   1.657  13.721  0.1815  0.4167 -0.4290
 7071W        W27351   6.450  11.732  15.772  0.2254  0.0896  0.4229
 7072W        W27352  16.143  12.170  13.705  0.0491 -0.1586 -0.0767
 7073W        W27353   8.241  16.995  16.651  0.0613 -0.0133 -0.2166
 7074W        W27354  14.606   4.671   4.788 -0.0091 -0.1152 -0.0069
 7075W        W27355  12.645  10.843  16.134 -0.0903  0.1345 -0.0956
 7076W        W27356  10.553   6.598   4.856  0.1588  0.0183  0.3648
 7077W        W27357  15.766  16.287  16.574  0.0140  0.2428  0.0209
 7078W        W27358   5.577   7.441   1.664 -0.0873  0.0739  0.1388
 7079W        W27359   1.927   8.481  12.343 -0.1923  0.0755  0.2325
 7080W        W27360  10.005  12.299  12.351 -0.2382  0.0974  0.1161
 7081W        W27361   7.795   8.520   1.476  0.2502  0.0290  0.0996
 7082W        W27362   4.243   3.679  14.784  0.4760 -0.0004 -0.2756
 7083W        W27363  16.839   7.357   0.518 -0.1272  0.1001 -0.1967
 7084W        W27364   7.446   6.600  12.220 -0.3020 -0.2119 -0.0674
 7085W        W27365   4.466  17.263  12.433  0.0722 -0.1882 -0.2779
 7086W        W27366  14.193  10.299  12.453 -0.0057 -0.0678  0.0152
 7087W        W27367   4.508   8.948   2.318  0.0546 -0.1250 -0.0102
 7088W        W27368   0.448   2.508  15.787 -0.3809 -0.0389  0.0368
 7089W        W27369   3.513   4.617   5.128 -0.1270  0.1225 -0.4241
 7090W        W27370   2.810   3.349  14.676  0.2352 -0.0638 -0.1124
 7091W        W27371  15.835   3.807   2.645 -0.2596 -0.2972 -0.1598
 7092W        W27372  10.268   5.562   0.670  0.2094 -0.0833  0.1022
 7093W        W27373  15.024   1.883   2.732  0.1287  0.1900 -0.0002
 7094W        W27374  12.085   4.324   2.322  0.0715  0.0075 -0.1464
 7095W        W27375   1.045  17.688  14.042 -0.0010  0.0715 -0.2531
 7096W        W27376  14.842  10.661   3.215  0.3810  0.1285 -0.1587
 7097W        W27377  15.922  16.649  13.138 -0.0301 -0.1388  0.1941
 7098W        W27378  16.494  16.843   2.974 -0.2030 -0.1578 -0.0126
 7099W        W27379   2.453   7.765   3.942 -0.3512  0.0381 -0.0317
 7100W        W27380   9.586  12.631  13.479 -0.5187  0.0623 -0.5281
 7101W        W27381  12.162  12.955   2.971 -0.2040  0.1377 -0.0602
 7102W        W27382  10.102   7.963  13.992  0.2387  0.0909 -0.1382
 7103W        W27383  13.466   2.188  13.050 -0.0269 -0.0741  0.1705
 7104W        W27384   4.020  17.474   2.328  0.2926 -0.0147 -0.0243
 7105W        W27385   6.400  14.294  16.642 -0.0062 -0.1040  0.1115
 7106W        W27386   3.220  16.248   3.669 -0.1900  0.2742 -0.2243
 7107W        W27387   2.328   3.490   2.672  0.1329  0.2906 -0.0571
 7108W        W27388   2.545  14.618  15.597  0.0282 -0.1269 -0.2034
 7109W        W27389  10.073   9.134   1.254 -0.0784 -0.0111 -0.0541
 7110W        W27390  10.916   7.998   4.392 -0.0650  0.1987  0.1346
 7111W        W27391   7.359  15.552  14.681  0.4181  0.1255 -0.0841
 7112W        W27392  14.470   8.767   3.184 -0.1865 -0.1349 -0.1489
 7113W        W27393  12.416  16.931  15.690 -0.1173  0.1943  0.1021
 7114W        W27394   9.426   1.714   3.313 -0.0356  0.1566 -0.1599
 7115W        W27395   1.157  15.115   0.384 -0.0516 -0.0428 -0.1543
 7116W        W27396   9.637   7.928   0.519 -0.0123 -0.0393 -0.2312
 7117W        W27397   6.073   9.510   0.964 -0.0945  0.0986  0.0248
 7118W        W27398  10.856   9.829   1.236  0.2563  0.0333 -0.1104
 7119W        W27399  13.012  13.834  15.932 -0.1358 -0.2126 -0.2038
 7120W        W27400   6.347   3.951   2.230 -0.1771  0.0991 -0.0548
 7121W        W27401   4.209  11.832   4.547  0.2738  0.0226  0.4691
 7122W        W27402   9.870  15.144   0.317  0.0618  0.1375 -0.1060
 7123W        W27403  14.073  16.522  14.578  0.1182 -0.2388 -0.1521
 7124W        W27404  10.537   4.931   0.120  0.1844  0.2249  0.0904
 7125W        W27405  12.554   2.641   1.721 -0.1582  0.1376  0.1223
 7126W        W27406  15.058   8.660   3.804 -0.1140  0.2410 -0.1920
 7127W        W27407  13.659  16.306  15.695 -0.2119  0.0735 -0.1565
 7128W        W27408  15.910   6.283  16.679 -0.1339 -0.2745 -0.0097
 7129W        W27409   3.692   1.062  15.555  0.2048  0.0502 -0.3555
 7130W        W27410  10.357  15.576   2.247 -0.0415  0.1478  0.2356
 7131W        W27411  10.733   2.266   1.852  0.3080 -0.1506  0.1258
 7132W        W27412  10.363   6.609   2.106  0.2679 -0.0837 -0.2508
 7133W        W27413   1.665  16.945  14.091  0.0937 -0.0002  0.1014
 7134W        W27414   8.766  10.458   4.444 -0.1182 -0.4783  0.0273
 7135W        W27415  14.319   2.191   2.244 -0.0406 -0.1453  0.3604
 7136W        W27416   0.116   3.736   0.002 -0.1970  0.1058 -0.0878
 7137W        W27417   1.538  14.384   0.095  0.1624 -0.1416 -0.2892
 7138W        W27418  13.601   9.340  13.354  0.1246  0.3239 -0.0774
 7139W        W27419  16.521   6.550   1.224  0.2720 -0.1329  0.1909
 7140W        W27420  17.597  17.472  13.460  0.0465  0.1243 -0.1362
 7141W        W27421  16.587  14.831   4.926 -0.1271  0.0483 -0.0396
 7142W        W27422   8.338   1.032  15.157 -0.4585 -0.1750 -0.2353
 7143W        W27423  17.570  14.230  13.066  0.3172  0.2247  0.2005
 7144W        W27424  17.736   4.467  16.562  0.3114  0.0839 -0.3344
 7145W        W27425   5.847  17.466  15.549  0.0409  0.2337  0.0096
 7146W        W27426   6.486  14.212  11.254 -0.2588 -0.2892 -0.4362
 7147W        W27427   3.959   7.014  13.333 -0.1607  0.4699 -0.0936
 7148W        W27428  15.186   1.813   3.566  0.1935 -0.0019 -0.0953
 7149W        W27429  14.766   8.189  13.117  0.1697 -0.0686  0.1495
 7150W        W27430  12.890  14.053   3.193 -0.1750  0.0087 -0.4753
 7151W        W27431   4.851   7.250   0.271 -0.0406 -0.1621 -0.0975
 7152W        W27432  12.409   0.162   3.186 -0.0859  0.0272  0.0493
 7153W        W27433   3.094   0.702   4.426  0.2031 -0.2007 -0.0496
 7154W        W27434  10.211   9.333   0.386 -0.1473  0.3436 -0.4422
 7155W        W27435  11.225   8.913  14.414  0.1132  0.2167 -0.0390
 7156W        W27436   5.843   1.732  16.643  0.0095 -0.0790 -0.1443
 7157W        W27437  17.428   0.443  14.255 -0.0875  0.0188 -0.0386
 7158W        W27438   2.526  11.224   3.302  0.2083 -0.2698 -0.1702
 7159W        W27439  13.863   5.461  12.960  0.0089 -0.0133  0.1120
 7160W        W27440  15.749   8.490   3.428  0.0443  0.2984 -0.0333
 7161W        W27441  14.617   5.489  15.605  0.0996  0.0377 -0.1717
 7162W        W27442  16.435  10.275   0.361  0.1289  0.0132  0.1082
 7163W        W27443   6.515  17.425   1.051 -0.0368 -0.1280  0.2025
 7164W        W27444  10.281   4.726   4.277 -0.2100  0.0053  0.2830
 7165W        W27445   0.829  12.609   1.168 -0.0402  0.0379 -0.2775
 7166W        W27446   3.940   1.487   4.090 -0.0907 -0.2784  0.1581
 7167W        W27447   2.114  14.382   1.116 -0.1565 -0.0398  0.1959
 7168W        W27448   0.436   4.725  12.720 -0.0888 -0.3302 -0.1014
 7169W        W27449   1.345  11.465  12.411  0.2570 -0.1493  0.1773
 7170W        W27450   1.611  15.774   2.859 -0.1866  0.0366  0.3754
 7171W        W27451   7.482   7.724   4.303  0.0268 -0.0413 -0.1393
 7172W        W27452  11.668   2.657  13.432 -0.1428 -0.0906 -0.0906
 7173W        W27453   4.449  13.163  15.568 -0.1219  0.2102  0.0012
 7174W        W27454  10.186  10.805   4.461  0.2554 -0.1201  0.0741
 7175W        W27455   0.877   6.538  12.197 -0.1522 -0.1800  0.1193
 7176W        W27456   1.817  12.843   4.871 -0.1109 -0.0155 -0.0978
 7177W        W27457   6.400  16.698   1.311  0.0989 -0.2425 -0.2676
 7178W        W27458   1.599   9.266   4.063 -0.4508  0.0833 -0.0803
 7179W        W27459  16.992   8.322  12.319  0.2335 -0.0469  0.1040
 7180W        W27460  17.170  15.380   3.610 -0.0090  0.3246  0.0499
 7181W        W27461  10.977   9.564   4.025 -0.0778 -0.0330  0.0342
 7182W        W27462   7.035  11.474   3.208 -0.1143  0.3378 -0.3502
 7183W        W27463   9.758  11.994  16.787 -0.3228  0.1366  0.0666
 7184W        W27464   0.585  11.599   0.292 -0.2212 -0.1767  0.2218
 7185W        W27465  13.141  16.513   3.563  0.0536 -0.0266  0.2769
 7186W        W27466   5.728   3.674  16.580  0.1563 -0.1460  0.1425
 7187W        W27467   9.623  12.572   2.476 -0.0617 -0.1137  0.0223
 7188W        W27468  15.029  11.915  12.199  0.0512  0.0409 -0.3222
 7189W        W27469  15.252  11.212   0.767 -0.1982 -0.4126 -0.1168
 7190W        W27470   7.352   8.478  12.376  0.2855 -0.1813  0.1194
 7191W        W27471  11.612   0.271  14.644  0.0880 -0.0560  0.2196
 7192W        W27472   0.455  14.697   3.767 -0.1290  0.1748  0.0322
 7193W        W27473  17.506   5.729   2.297 -0.4999 -0.1621  0.1675
 7194W        W27474   5.863  15.624   5.138 -0.0712 -0.3177 -0.1241
 7195W        W27475  10.293   6.531  12.280 -0.2328 -0.3938 -0.1621
 7196W        W27476   8.559  16.116  15.177 -0.2365  0.0320 -0.1532
 7197W        W27477  10.711   6.220   2.284  0.0277 -0.2377 -0.2809
 7198W        W27478  16.431   8.309  15.149 -0.0642 -0.0123 -0.1677
 7199W        W27479   9.559  15.236  15.931 -0.1664  0.2003 -0.1833
 7200W        W27480   4.458   3.357   0.874  0.0096  0.1060 -0.3662
 7201W        W27481   6.664   4.656  14.969 -0.1305 -0.1055  0.1102
 7202W        W27482  13.856  12.733   3.042 -0.2055  0.0196 -0.1552
 7203W        W27483   2.123  17.530   4.417 -0.2354  0.2507  0.1244
 7204W        W27484  14.558   2.830  13.712  0.1292 -0.0059 -0.1025
 7205W        W27485  16.047   1.385   3.136  0.2948 -0.1394  0.1334
 7206W        W27486   2.031   2.431  16.671  0.0187 -0.2863  0.2076
 7207W        W27487   7.930  13.982   0.158 -0.0723  0.0534 -0.0789
 7208W        W27488   8.930   8.442   2.715  0.1932 -0.3712  0.0642
 7209W        W27489  17.045  17.708   3.869  0.0418  0.3506 -0.1208
 7210W        W27490   3.177  15.777   0.152 -0.1103 -0.3274 -0.1640
 7211W        W27491  14.746   8.575   1.775  0.0996  0.2870 -0.0513
 7212W        W27492   4.399  12.095  11.959  0.1058  0.0991  0.0391
 7213W        W27493   6.535   6.314  12.543 -0.0605  0.2250  0.0050
 7214W        W27494  12.832   5.476   2.138 -0.0096 -0.0507 -0.1629
 7215W        W27495  11.293  16.952  15.453  0.2564 -0.1379  0.1874
 7216W        W27496   3.306   9.717  16.825 -0.2893  0.0939 -0.2000
 7217W        W27497   4.877  11.714  15.890  0.3491  0.0586 -0.0256
 7218W        W27498   8.534   6.080   0.654 -0.3885 -0.1306  0.2357
 7219W        W27499  12.097   7.414  16.079 -0.0929  0.2994 -0.1050
 7220W        W27500  17.265   6.029   1.358 -0.2516 -0.1345 -0.1735
 7221W        W27501  13.232  10.616  13.845 -0.1688  0.1145 -0.4021
 7222W        W27502   0.794   0.383   4.942 -0.0286 -0.0247 -0.4713
 7223W        W27503   0.223   0.796   3.906 -0.0165 -0.1489 -0.0112
 7224W        W27504   9.910   7.578  16.184 -0.4392  0.2085 -0.0171
 7225W        W27505  16.816   0.339  15.052  0.0207 -0.3673  0.3301
 7226W        W27506   4.081   4.247   1.299  0.1864 -0.2578  0.3209
 7227W        W27507  16.781  12.823   3.355 -0.1233  0.0406 -0.1868
 7228W        W27508  11.482   8.034  14.453 -0.2646 -0.1544 -0.0231
 7229W        W27509   2.188   3.784   0.493  0.0626  0.1171  0.1628
 7230W        W27510   2.097   4.667  16.068  0.2089  0.4429  0.0728
 7231W        W27511  13.537  13.994   0.318 -0.2516 -0.1912  0.1068
 7232W        W27512  17.169   5.809   3.815 -0.1894 -0.1382 -0.0242
 7233W        W27513   4.266  14.834  12.719  0.3320 -0.1966  0.0945
 7234W        W27514   8.325   0.360   4.588 -0.0156 -0.1511  0.1812
 7235W        W27515  12.445   9.030   1.767  0.1871  0.2361  0.1081
 7236W        W27516  11.091   2.502  16.100  0.1550 -0.2058  0.0537
 7237W        W27517   1.044   1.994   2.275  0.1571 -0.1218 -0.2738
 7238W        W27518   8.099   9.972  16.545  0.1231  0.0549 -0.1334
 7239W        W27519   8.143  11.007   4.023  0.0576  0.1613 -0.0891
 7240W        W27520   6.568   1.364   2.445 -0.0829 -0.1989 -0.1477
 7241W        W27521   5.699   4.294   0.569 -0.1451 -0.1157 -0.0069
 7242W        W27522  16.467   7.187  13.118  0.1108  0.2420  0.1088
 7243W        W27523  17.684   9.491  13.630 -0.2076 -0.2146 -0.3163
 7244W        W27524  10.164  10.298  12.562  0.0232 -0.0282  0.0682
 7245W        W27525   7.912   1.625  16.492 -0.1416  0.3179 -0.0809
 7246W        W27526  11.388   9.810   0.104  0.2464  0.1496 -0.0856
 7247W        W27527  14.948   2.888   4.164 -0.0586  0.0636  0.1460
 7248W        W27528  13.057   0.875  12.549  0.0943 -0.0917  0.3567
 7249W        W27529   9.277   2.577   1.837 -0.0153  0.1281  0.0465
 7250W        W27530  11.952   9.775   1.084  0.0217 -0.1018  0.0418
 7251W        W27531   1.288   1.334  16.779 -0.1445 -0.2437  0.1512
 7252W        W27532   3.561  12.868   4.011  0.3157  0.3217 -0.1350
 7253W        W27533  17.091   0.045   1.206 -0.1261 -0.2645 -0.0225
 7254W        W27534  16.278  16.403   2.150  0.2696  0.2767  0.3522
 7255W        W27535   6.804   1.719  15.619 -0.1056 -0.0712  0.0410
 7256W        W27536   3.675  10.815   3.210 -0.0848 -0.2027  0.1627
 7257W        W27537  15.924   7.151  13.642  0.0186 -0.0862  0.1446
 7258W        W27538  14.303  16.868  15.802 -0.1267  0.0361 -0.1045
 7259W        W27539   2.167   3.096   0.449 -0.1441 -0.2745 -0.2049
 7260W        W27540  14.245   8.052   1.444  0.1078  0.0948 -0.2039
 7261W        W27541   8.659  10.152   3.864  0.3131  0.4168 -0.1216
 7262W        W27542  13.536  16.305   4.373  0.0036 -0.2695  0.0523
 7263W        W27543   6.912   5.483  15.365 -0.2708 -0.1096  0.0162
 7264W        W27544  12.389  13.486   2.483  0.1384 -0.3917 -0.2631
 7265W        W27545  11.941   7.099  13.058  0.0912  0.0773 -0.0524
 7266W        W27546  10.047  17.378  13.464 -0.1384  0.0705 -0.1023
 7267W        W27547  15.803  10.034   4.491 -0.0741  0.2069  0.1101
 7268W        W27548   3.648  16.113   3.434 -0.0344  0.0400  0.0061
 7269W        W27549  17.453   2.865  12.719 -0.2070 -0.1490 -0.0459
 7270W        W27550   1.139   5.101  13.196 -0.1037 -0.0736 -0.2300
 7271W        W27551  15.208   5.415   0.584  0.0485 -0.0187 -0.0477
 7272W        W27552   5.244   5.748  14.058 -0.1936 -0.0664 -0.0927
 7273W        W27553   2.786  15.890   4.541 -0.3374  0.0301  0.1051
 7274W        W27554  16.943  13.699  16.727  0.1108  0.0634  0.0650
 7275W        W27555  16.256   5.162  12.648  0.2412 -0.0929  0.1468
 7276W        W27556  15.336  14.872  15.131  0.0873 -0.1956  0.2137
 7277W        W27557   1.948   9.440  13.770 -0.0334  0.0124  0.2875
 7278W        W27558  17.335   8.935  15.177 -0.2406 -0.0849 -0.2081
 7279W        W27559   3.834   9.939   3.314 -0.1659  0.1756 -0.0966
 7280W        W27560   2.949  11.645   1.866 -0.3320 -0.1460 -0.0291
 7281W        W27561  16.088  10.591  16.052 -0.2009 -0.3028 -0.1172
 7282W        W27562  16.349   5.939  16.852 -0.1862  0.0625 -0.1243
 7283W        W27563   8.994  11.322   0.581 -0.2675 -0.1435  0.0738
 7284W        W27564  11.630   8.171   1.496 -0.0332 -0.1608 -0.2931
 7285W        W27565  13.876  15.636  14.544 -0.0153  0.0943 -0.0899
 7286W        W27566  12.605   5.742   1.565 -0.1086  0.1289  0.2319
 7287W        W27567   8.919  16.362  14.427 -0.0919  0.0279 -0.0691
 7288W        W27568  13.462  11.298   0.430  0.4923  0.4224  0.0243
 7289W        W27569  11.452   2.679   4.802 -0.2161 -0.1877  0.1140
 7290W        W27570  11.458  15.944  14.611 -0.0476 -0.2255  0.1465
 7291W        W27571  11.270  11.392  15.909  0.1830 -0.0238 -0.4623
 7292W        W27572   8.029   8.913   4.731  0.0287 -0.2270 -0.1190
 7293W        W27573   4.694   9.428   2.238  0.0875  0.1186 -0.3015
 7294W        W27574  17.006  17.335  16.817 -0.3935 -0.1470 -0.0881
 7295W        W27575   7.011   1.953  14.341  0.1114 -0.0412 -0.0766
 7296W        W27576   6.931   3.299   3.883  0.0472 -0.1404  0.0643
 7297W        W27577   1.244   6.655   0.643 -0.0001 -0.2006  0.1563
 7298W        W27578   4.329   8.231  16.345 -0.1770  0.1836  0.0356
 7299W        W27579   1.912   8.935   3.347 -0.1847  0.0940  0.1209
 7300W        W27580  10.745  14.892  12.500 -0.3320 -0.0171  0.0714
 7301W        W27581   2.756  16.808  12.751 -0.0445  0.3077  0.2068
 7302W        W27582   1.191  10.770   4.925  0.1342 -0.1873  0.1910
 7303W        W27583  12.192   2.227   5.335  0.1655  0.0587  0.2253
 7304W        W27584   5.431  13.574   0.521 -0.0426  0.0491 -0.0402
 7305W        W27585   9.440   1.925   0.606  0.0136  0.1977 -0.1520
 7306W        W27586   8.968   9.369   2.311 -0.0952 -0.0656 -0.1923
 7307W        W27587   7.544   3.993   3.609  0.3095  0.2084 -0.0522
 7308W        W27588  13.471  13.373   4.140 -0.0518  0.1536 -0.1583
 7309W        W27589   2.611  10.421  16.818 -0.1339  0.1635  0.2413
 7310W        W27590   8.260  15.315  14.415  0.3115  0.3357 -0.1266
 7311W        W27591   8.085  15.803   5.019 -0.0603 -0.1995  0.0694
 7312W        W27592   3.748   3.031   2.833  0.0265 -0.0327 -0.0349
 7313W        W27593   2.767  14.532  12.493 -0.1512 -0.0657 -0.0919
 7314W        W27594  13.073   6.601   4.544 -0.3832 -0.0677 -0.0038
 7315W        W27595  15.468  16.212  12.617  0.1239 -0.0635  0.0658
 7316W        W27596  12.313   4.645   2.000 -0.1320 -0.3665  0.0396
 7317W        W27597   7.146   4.908   2.344  0.1088 -0.0625 -0.1240
 7318W        W27598   3.546   1.302  14.567 -0.2921  0.1293 -0.2119
 7319W        W27599   8.613   0.488  13.665 -0.0107 -0.1072 -0.1085
 7320W        W27600  13.880  16.724  16.089 -0.1275 -0.0509  0.0951
 7321W        W27601  13.289  16.544  12.660  0.2765 -0.3663  0.0373
 7322W        W27602   4.713  11.572   3.026 -0.3442 -0.0965 -0.0412
 7323W        W27603   1.038   4.983   3.540  0.2852 -0.0042  0.1299
 7324W        W27604   1.006   8.439   3.344  0.2365  0.0351 -0.4314
 7325W        W27605   0.582   7.590   2.202 -0.1749  0.1148  0.1938
 7326W        W27606  15.230  10.524  12.139 -0.0439 -0.0359  0.0400
 7327W        W27607  13.400   9.294   4.034  0.0240 -0.4104  0.2353
 7328W        W27608   8.727   4.069   3.136 -0.0531  0.0419 -0.1163
 7329W        W27609   7.052  15.684   0.833  0.0565  0.2507  0.0637
 7330W        W27610   7.993   0.868  13.454  0.0303  0.1828  0.1915
 7331W        W27611  13.876  15.827   3.315  0.1944 -0.2179  0.1118
 7332W        W27612   9.049  17.213  15.577 -0.2421  0.2114  0.0828
 7333W        W27613  14.776  11.708  15.487 -0.1488  0.0644  0.0853
 7334W        W27614  16.148  13.209  13.271  0.0933  0.0346  0.0242
 7335W        W27615  14.331   5.067   4.650 -0.0971  0.0607  0.2644
 7336W        W27616  16.610   3.512   2.293 -0.2403 -0.0206  0.1299
 7337W        W27617   0.175   8.734   2.948  0.1458 -0.0161  0.0123
 7338W        W27618   4.065  15.302   3.028 -0.2858  0.0733 -0.0742
 7339W        W27619   0.653   2.768  14.447 -0.0969 -0.0753 -0.2500
 7340W        W27620   7.192  17.595  12.905 -0.1665 -0.1482 -0.0742
 7341W        W27621  11.588   4.702  15.633 -0.1974 -0.0024 -0.1353
 7342W        W27622  12.758  11.558   2.329  0.1845  0.2072 -0.0802
 7343W        W27623  17.332  12.673  14.314  0.1231 -0.0299  0.1042
 7344W        W27624  13.214   2.528  13.492 -0.1509  0.0364  0.1946
 7345W        W27625  12.710   6.632  14.473 -0.0687  0.0128 -0.1627
 7346W        W27626  10.440   9.987  12.303  0.2861 -0.2938 -0.1372
 7347W        W27627  12.732  17.443   4.055 -0.3799  0.2577 -0.2482
 7348W        W27628  13.813   6.704   0.952 -0.1302  0.2024  0.0712
 7349W        W27629   8.208   1.735  13.354  0.0815  0.2622 -0.3699
 7350W        W27630   2.638  14.588   1.117  0.1578 -0.1630  0.3175
 7351W        W27631  15.102   4.391   4.717 -0.2622 -0.0367 -0.0500
 7352W        W27632  11.591  10.958  12.697  0.2263 -0.0419 -0.0855
 7353W        W27633  11.025   4.282   4.929  0.2532  0.0033 -0.0033
 7354W        W27634   8.219   1.991   3.883 -0.0756  0.1227  0.0285
 7355W        W27635   2.014   1.861  11.445  0.1601 -0.0618  0.2028
 7356W        W27636   1.750  17.627   1.171  0.0870 -0.0944 -0.0839
 7357W        W27637   2.324  12.934  16.037 -0.0646 -0.1290 -0.1010
 7358W        W27638   0.856   7.896   1.068 -0.1871  0.1016  0.0003
 7359W        W27639  10.860  12.477  12.458 -0.0013  0.0458  0.0826
 7360W        W27640   4.812  12.661   2.968  0.2061  0.3648 -0.0216
 7361W        W27641   2.433   9.176   0.922 -0.0575 -0.0834 -0.2305
 7362W        W27642   5.092  10.589  16.719 -0.0267  0.0464 -0.0761
 7363W        W27643   0.516   1.753  13.279 -0.0816  0.0575 -0.1666
 7364W        W27644  17.420   4.994   4.659  0.0092  0.0426 -0.0579
 7365W        W27645   3.663  13.046  15.853 -0.2071  0.0778  0.1348
 7366W        W27646   1.927  12.951   1.543  0.0144 -0.2024  0.0893
 7367W        W27647  14.484   9.549   4.525  0.1170 -0.1542 -0.0851
 7368W        W27648  11.751   8.672  12.765  0.2472 -0.2087 -0.1499
 7369W        W27649   6.339   3.977  16.733 -0.1918  0.1084 -0.0718
 7370W        W27650   9.964  14.887   0.756  0.3419 -0.0303  0.0647
 7371W        W27651   6.977   7.330  16.433  0.0243 -0.3068  0.1259
 7372W        W27652   0.391  10.120   1.321  0.0966 -0.1991 -0.2870
 7373W        W27653  11.876   2.680   0.551  0.2371  0.1322  0.0052
 7374W        W27654  10.486   0.561  14.321  0.0326 -0.0035 -0.0127
 7375W        W27655   3.830   3.197  13.177 -0.1842  0.0287  0.0461
 7376W        W27656   1.714  10.117  14.472  0.1106 -0.2757  0.0306
 7377W        W27657  17.246   8.124   1.086 -0.3019 -0.0396  0.1468
 7378W        W27658   9.359   0.295   6.219 -0.1854 -0.0090 -0.0643
 7379W        W27659   5.161   0.548   3.898 -0.0024  0.1981 -0.0067
 7380W        W27660   3.671   2.206  14.325  0.1430  0.0203  0.1679
 7381W        W27661   1.423  13.245   4.852 -0.3260  0.0829  0.1077
 7382W        W27662  16.452  15.491   4.003 -0.0862 -0.1973  0.2314
 7383W        W27663  10.996   0.696  13.371 -0.0967  0.1605  0.0981
 7384W        W27664   2.974   9.884  15.062 -0.0052 -0.0452  0.0463
 7385W        W27665  12.541  14.315   5.015  0.2184 -0.2740 -0.1293
 7386W        W27666   2.545   9.166  16.761  0.0404  0.0896  0.0965
 7387W        W27667   1.811   2.141  13.464 -0.1019  0.0271  0.0354
 7388W        W27668   8.618   4.675   2.424 -0.1277 -0.0687 -0.0383
 7389W        W27669  16.048  13.788  13.496 -0.2204  0.1951  0.3363
 7390W        W27670   4.982   2.700  14.352  0.1136 -0.0635 -0.1722
 7391W        W27671  10.791  15.147   0.287 -0.0929  0.0184 -0.0820
 7392W        W27672   8.841   1.834   4.100 -0.1260  0.0857  0.1750
 7393W        W27673  17.543   6.066  16.261 -0.0422 -0.1887  0.0530
 7394W        W27674  17.280  13.347   3.827 -0.2033 -0.4288 -0.1893
 7395W        W27675   2.730   3.427  14.167  0.0102  0.3591  0.3804
 7396W        W27676   7.761   8.506  16.667  0.0115 -0.1484  0.3923
 7397W        W27677   5.508  15.988   0.957 -0.2803  0.1493 -0.1135
 7398W        W27678  11.025   9.240   2.151  0.1094  0.1106  0.3834
 7399W        W27679  17.528   2.217   4.837  0.1415 -0.3061 -0.2296
 7400W        W27680  13.873   1.852   4.280 -0.2112 -0.2409  0.1031
 7401W        W27681   0.703   3.515   1.299 -0.2555  0.1847 -0.0255
 7402W        W27682  11.233   1.561  13.931 -0.1135 -0.0603 -0.2751
 7403W        W27683  13.790  12.698  14.093  0.1755  0.0630 -0.0786
 7404W        W27684   9.504  12.159  14.376 -0.4473  0.1298 -0.0967
 7405W        W27685   5.984  14.638  15.505 -0.0106  0.2312  0.0065
 7406W        W27686  15.613  14.151   3.774  0.0085  0.0492  0.0714
 7407W        W27687   5.009  17.351  15.428  0.1400 -0.1721  0.2018
 7408W        W27688   0.528   1.775  14.550  0.0903 -0.1931  0.1224
 7409W        W27689   7.979   4.861  12.901 -0.0768 -0.1768  0.1910
 7410W        W27690   0.684   8.786   0.580 -0.0034 -0.2116 -0.4211
 7411W        W27691   7.180  15.698   3.481 -0.4359  0.1983 -0.1735
 7412W        W27692  11.135   2.040   1.544  0.0697  0.1348  0.0807
 7413W        W27693   0.827  14.553   2.626 -0.0682  0.1266 -0.0158
 7414W        W27694  16.324  16.110   0.523 -0.0943 -0.1387  0.1552
 7415W        W27695   1.015   2.180  15.128  0.2266  0.1889  0.0007
 7416W        W27696   9.770  16.920   3.809 -0.0085 -0.0762  0.0340
 7417W        W27697   3.373  15.737  16.440  0.1268 -0.0342 -0.0431
 7418W        W27698   1.173  13.761   1.608  0.1501  0.1382 -0.1958
 7419W        W27699  10.575   2.114  13.896 -0.0085 -0.2130 -0.0989
 7420W        W27700   1.777   3.555  13.919  0.0400  0.1543 -0.2114
 7421W        W27701   9.564  16.206   2.080  0.1511  0.0228  0.0786
 7422W        W27702   7.117  14.016   0.837 -0.0942  0.1850  0.1480
 7423W        W27703   0.740   0.246   3.121  0.2677  0.0663 -0.0291
 7424W        W27704  11.556   5.139  15.578 -0.1060  0.0157 -0.0457
 7425W        W27705  14.926   7.316   1.488  0.0369  0.1055 -0.2366
 7426W        W27706  16.145  17.298   1.073  0.0376 -0.0927  0.1645
 7427W        W27707   0.458  17.167   2.273 -0.1277 -0.1537 -0.0752
 7428W        W27708  14.922   1.127  15.654  0.0892  0.0500  0.3050
 7429W        W27709  13.055  11.129  13.759  0.1221 -0.0227  0.4580
 7430W        W27710  11.861   2.086   1.111  0.0644 -0.2509 -0.1076
 7431W        W27711  11.627  12.775   1.692 -0.0494  0.0459 -0.0497
 7432W        W27712  14.647   8.498   2.274  0.2283 -0.0905 -0.0678
 7433W        W27713  13.701  16.752  12.973  0.1077 -0.0451 -0.1003
 7434W        W27714   4.125   4.396  15.856 -0.3190 -0.0124 -0.1227
 7435W        W27715  11.318   8.056  15.540  0.1147 -0.0054 -0.3620
 7436W        W27716  15.338  15.980   3.575 -0.0176 -0.0002  0.0040
 7437W        W27717   8.374   5.493  14.266 -0.0125  0.0434  0.2269
 7438W        W27718  10.393   0.553  15.634  0.3311  0.2662  0.0787
 7439W        W27719  14.747  14.521  16.884  0.1292 -0.1678 -0.0826
 7440W        W27720  16.590  11.908   0.851  0.1562  0.1140  0.4305
 7441W        W27721   8.578   5.012   3.565 -0.1354 -0.4506 -0.1306
 7442W        W27722  11.951  11.101   1.984  0.1895 -0.2379  0.0067
 7443W        W27723   4.238  15.406   0.857  0.0934  0.4178  0.0434
 7444W        W27724  17.078   8.959  13.128 -0.1597  0.0501 -0.1839
 7445W        W27725   1.260  12.373  12.681 -0.0193  0.0151  0.0630
 7446W        W27726   9.541   5.669   3.560 -0.2925  0.0444  0.1315
 7447W        W27727  11.748   9.913   3.791 -0.0395  0.2508 -0.0501
 7448W        W27728  11.369  14.630  15.377  0.2783 -0.2659 -0.2908
 7449W        W27729   5.514   7.326   2.680  0.0286 -0.1666 -0.2270
 7450W        W27730   4.105   8.397  14.024  0.0555 -0.0273 -0.0394
 7451W        W27731   2.921   8.105   4.756 -0.2025  0.1034  0.0301
 7452W        W27732   7.993   0.850  12.179  0.2174 -0.0044 -0.0394
 7453W        W27733   1.120  11.443   0.173 -0.3850 -0.1275  0.0959
 7454W        W27734   5.418  14.056  13.498  0.1930 -0.0495 -0.1213
 7455W        W27735   7.062   1.133  12.126  0.0122 -0.3329 -0.2424
 7456W        W27736  11.065   0.826  12.101 -0.2791  0.1479  0.1456
 7457W        W27737  14.269   9.934  16.817 -0.3679  0.1103  0.0871
 7458W        W27738  10.170   6.138  14.676 -0.1556 -0.1191  0.3123
 7459W        W27739   5.771  16.978  15.712 -0.1702  0.2248 -0.2626
 7460W        W27740  12.996   2.436   1.342  0.2304  0.1690 -0.0766
 7461W        W27741   3.528  14.417  16.616 -0.2774  0.0051 -0.0642
 7462W        W27742   8.973   8.946  14.484  0.1549  0.0306  0.6030
 7463W        W27743   5.096   4.745   1.009 -0.1370  0.3311 -0.2941
 7464W        W27744  11.570  17.376  15.622 -0.3489  0.0638 -0.1405
 7465W        W27745  14.523  16.974   2.676 -0.2062 -0.5395 -0.0765
 7466W        W27746  10.291  11.691  16.024 -0.0335  0.1237  0.1433
 7467W        W27747  11.510  15.603  16.199  0.5068 -0.1653 -0.1855
 7468W        W27748   4.652  11.555   1.598 -0.0513  0.1052 -0.1303
 7469W        W27749  14.567   3.881  16.052  0.3184  0.1582 -0.1320
 7470W        W27750  17.659  17.098   2.371  0.0469 -0.0512 -0.0709
 7471W        W27751   0.054  16.583  12.302  0.3034  0.0200 -0.1656
 7472W        W27752   7.116  12.776   4.954 -0.0426 -0.1354 -0.1138
 7473W        W27753   3.807   7.479   3.490  0.1427  0.3658  0.0580
 7474W        W27754  13.717   2.827  13.635 -0.0593 -0.0329  0.1865
 7475W        W27755   6.263  12.826   4.605  0.3455  0.1967  0.0615
 7476W        W27756  14.301   8.554   1.504 -0.0789 -0.0254 -0.1605
 7477W        W27757  10.404   1.642  13.749  0.0007  0.3835  0.0212
 7478W        W27758   9.837   2.742  13.895 -0.0243 -0.1159  0.3850
 7479W        W27759   8.296  10.561   3.779  0.2117 -0.2569  0.1931
 7480W        W27760  10.374   2.194   0.721  0.0687  0.1128  0.2908
 7481W        W27761   2.866   0.297   4.163 -0.1934  0.0669 -0.4812
 7482W        W27762  11.443   0.602  15.479 -0.0986  0.3419 -0.1767
 7483W        W27763   0.719   4.812   2.489 -0.0681 -0.0682  0.1229
 7484W        W27764  13.909   9.070  15.111  0.2668  0.1085 -0.0099
 7485W        W27765   2.811   2.668   3.136 -0.1659  0.1706 -0.3239
 7486W        W27766  10.074  14.600   3.307 -0.0710  0.1785 -0.3647
 7487W        W27767   1.537   0.481  14.640  0.0335 -0.0213  0.0161
 7488W        W27768  15.676   9.513  12.870 -0.1064 -0.2562 -0.0046
 7489W        W27769   0.401   5.488   3.306  0.0130  0.1205  0.1935
 7490W        W27770  15.918   3.354  15.914 -0.1205 -0.5134  0.0090
 7491W        W27771  11.834  13.306   1.722 -0.0746 -0.1683  0.0030
 7492W        W27772   3.956  11.709   2.339 -0.0078 -0.5271 -0.0087
 7493W        W27773   4.272  16.902  12.175 -0.1333  0.0420 -0.0900
 7494W        W27774   7.407   0.543   3.203  0.0287 -0.0144  0.1858
 7495W        W27775  14.935  14.664  13.434  0.3945  0.3403 -0.1644
 7496W        W27776   7.259  15.981   4.652  0.0095  0.0125 -0.0887
 7497W        W27777   1.554   2.625  15.449 -0.1982  0.0369  0.0256
 7498W        W27778  16.303   0.968  13.251  0.0312  0.2163 -0.1070
 7499W        W27779   1.118   3.612   4.295 -0.1194 -0.1809  0.1336
 7500W        W27780   9.519  10.545  14.205 -0.2710 -0.0236 -0.0806
 7501W        W27781   3.339  17.226  13.951 -0.2005  0.2708 -0.2281
 7502W        W27782   0.562   3.283  16.129 -0.2310 -0.1579 -0.1070
 7503W        W27783   4.857  13.130   2.458 -0.1664  0.2121 -0.4312
 7504W        W27784  10.961   7.960  16.397 -0.2308  0.3271  0.3392
 7505W        W27785  12.263  14.286   1.685 -0.0475 -0.2628 -0.1490
 7506W        W27786  12.925   6.335  13.476  0.0609  0.0249  0.0181
 7507W        W27787  10.465  17.227   2.102 -0.1943  0.0115 -0.0286
 7508W        W27788  13.877   3.709   0.033  0.1240 -0.0901 -0.0383
 7509W        W27789  17.508   2.721  12.204  0.1817 -0.0452  0.0475
 7510W        W27790  16.598  13.260   1.243 -0.2264  0.1030 -0.0489
 7511W        W27791   3.957   1.546  14.917 -0.2872  0.0410  0.1022
 7512W        W27792   4.731   3.532  12.678 -0.1940  0.0708 -0.0007
 7513W        W27793  14.977  16.909  15.288 -0.0230  0.0743  0.0689
 7514W        W27794   7.178  14.411   0.533 -0.4086 -0.0800  0.1273
 7515W        W27795  14.641   7.733  11.910  0.0685  0.1070 -0.1005
 7516W        W27796  10.187   3.164  15.190 -0.0393 -0.1367  0.2024
 7517W        W27797   3.492   8.019  12.701 -0.2615 -0.1004  0.1833
 7518W        W27798   5.438   0.985   4.709 -0.2338  0.0478  0.1206
 7519W        W27799   4.923   4.858   2.669 -0.2046  0.0026  0.1633
 7520W        W27800   4.640   1.196   3.249  0.0378 -0.1260  0.1834
 7521W        W27801  11.104   6.887  12.014 -0.3289  0.0861 -0.1022
 7522W        W27802  13.165  17.216   2.240 -0.3897  0.1454  0.2354
 7523W        W27803  16.582   1.127   3.186 -0.1635 -0.1086 -0.0570
 7524W        W27804   2.210   5.117  12.959  0.0638  0.2683  0.1432
 7525W        W27805   7.674   0.674   0.829  0.2286 -0.0717 -0.0073
 7526W        W27806  12.903   1.219  16.021 -0.1321  0.0008 -0.1720
 7527W        W27807   2.161  13.525   0.754  0.2316 -0.0657  0.1777
 7528W        W27808   8.701  11.247  16.278 -0.0875  0.4512  0.0127
 7529W        W27809   6.700  15.352   2.050 -0.0909  0.1827  0.2275
 7530W        W27810  14.429   0.879  16.543 -0.2708 -0.0822  0.0121
 7531W        W27811   0.631  13.009   4.839 -0.0370 -0.1480  0.0450
 7532W        W27812  11.362   5.493   3.370 -0.0038 -0.0654  0.1272
 7533W        W27813  15.419  11.467   1.556  0.2666 -0.2492 -0.0380
 7534W        W27814  13.166   7.445   4.253  0.0019  0.1705  0.0895
 7535W        W27815  14.672   3.029   1.925 -0.1019 -0.1947  0.2797
 7536W        W27816   4.765   2.595  16.526  0.2497 -0.0134 -0.0685
 7537W        W27817   9.214   7.174  12.097  0.0493  0.3040  0.2030
 7538W        W27818  13.287   1.910  14.068  0.1629  0.3822 -0.0660
 7539W        W27819  14.847  14.072   4.962  0.0864 -0.0906 -0.2405
 7540W        W27820  14.447   7.598  14.187  0.2098  0.1173 -0.0314
 7541W        W27821   8.034   9.399  12.647  0.0090 -0.2285  0.2595
 7542W        W27822   8.173   4.270   2.447 -0.1623  0.0548  0.1347
 7543W        W27823   1.665   8.075  15.000  0.0447 -0.2652  0.0848
 7544W        W27824   8.364   9.781  12.136 -0.0704  0.1513  0.3269
 7545W        W27825   0.327  11.744  13.429 -0.0122  0.2498  0.0057
 7546W        W27826  10.598   7.673  12.120  0.0594  0.1695 -0.1365
 7547W        W27827   0.823  15.585   1.684 -0.2688  0.2095  0.0828
 7548W        W27828  14.359   0.815  15.794 -0.3613 -0.0455  0.0294
 7549W        W27829   8.936  15.980  14.787  0.1727 -0.1132  0.0778
 7550W        W27830   0.940  13.109  15.528  0.0741  0.0782  0.0536
 7551W        W27831   7.900  12.947  12.189  0.0495  0.1833 -0.1325
 7552W        W27832   4.970  10.201  13.945 -0.0965 -0.1567  0.0631
 7553W        W27833  17.618  10.792  14.700  0.2168 -0.0825  0.0475
 7554W        W27834   9.301  15.686   4.347 -0.0851 -0.2715  0.2393
 7555W        W27835   8.952  12.954   1.974 -0.1719  0.0812  0.0593
 7556W        W27836  17.157  11.307  14.058 -0.2369 -0.0622 -0.1003
 7557W        W27837   3.637  14.640   3.428  0.0719  0.0874  0.3712
 7558W        W27838   5.183   9.013  14.754  0.0437 -0.0564  0.0245
 7559W        W27839   0.731   2.320   1.594 -0.0903 -0.1006  0.0845
 7560W        W27840  15.228  13.084   2.273  0.1150  0.0886  0.1732
 7561W        W27841   4.732   4.396  13.296  0.0584  0.0153 -0.1505
 7562W        W27842  16.006  10.040   2.548 -0.0670 -0.0388 -0.0595
 7563W        W27843   5.829   3.475   4.357  0.0752  0.2770 -0.4115
 7564W        W27844  12.389  13.904   3.114 -0.1545 -0.2411 -0.0251
 7565W        W27845   4.769  17.553   3.995 -0.1016 -0.4427 -0.3385
 7566W        W27846   5.631   5.147   1.235 -0.2487 -0.4051  0.0447
 7567W        W27847   9.933   3.972   3.666 -0.0357 -0.3394  0.0498
 7568W        W27848   3.259   4.397   2.690 -0.2467 -0.0068 -0.0367
 7569W        W27849   9.759  14.904  13.755 -0.1189 -0.0170 -0.1858
 7570W        W27850  11.548   5.472  13.545  0.1696 -0.0126 -0.1173
 7571W        W27851  11.000  17.131  13.203  0.0477 -0.0248  0.0015
 7572W        W27852   8.681  13.642   0.619 -0.2510 -0.2757 -0.1127
 7573W        W27853   5.489   6.036   3.923  0.3369  0.2171 -0.1422
 7574W        W27854  14.061  12.101   5.204  0.2263  0.1928  0.1685
 7575W        W27855  15.686   2.395   1.576 -0.2074 -0.2670 -0.1995
 7576W        W27856   3.881   6.662   3.831 -0.1669 -0.3156 -0.2501
 7577W        W27857  10.705  15.301  14.696 -0.0685  0.1744 -0.1211
 7578W        W27858  13.031   1.456   1.467  0.0133  0.0437  0.0833
 7579W        W27859   4.670   0.338   3.965  0.0317 -0.1382 -0.3512
 7580W        W27860  17.125   1.849   0.594  0.2606 -0.1030  0.0265
 7581W        W27861   7.403   9.624  13.913 -0.1569  0.1124 -0.0825
 7582W        W27862  14.874  11.768  14.073  0.0017  0.2513  0.1888
 7583W        W27863  10.896   9.392  13.458 -0.1169  0.3471 -0.1551
 7584W        W27864   0.216   7.277  12.082  0.1765  0.1849 -0.3269
 7585W        W27865   2.954   9.013   0.272  0.0096  0.3172 -0.4533
 7586W        W27866   7.684   1.996   3.947 -0.1658  0.0458 -0.0432
 7587W        W27867  14.993   0.066   4.352 -0.1328 -0.1185  0.1669
 7588W        W27868  14.228   2.188   4.533  0.1880  0.0755 -0.0427
 7589W        W27869  15.576  16.449   3.871  0.0107 -0.0079  0.0253
 7590W        W27870   9.844  11.574  16.191 -0.1343 -0.0175  0.0329
 7591W        W27871   4.531  11.456  15.588  0.0724  0.0770  0.0458
 7592W        W27872   7.227   8.469  16.530  0.0241  0.1096 -0.0194
 7593W        W27873  10.570  13.691   1.992  0.2829  0.3730 -0.1352
 7594W        W27874   1.839  12.545   1.959 -0.2706 -0.0893 -0.0144
 7595W        W27875  17.519  14.866   1.789  0.0371 -0.2968 -0.0480
 7596W        W27876  10.055  11.253  16.672  0.0886 -0.0835 -0.1567
 7597W        W27877  15.249   2.848  13.181 -0.3693  0.0269 -0.0905
 7598W        W27878   1.718   9.312  15.755 -0.1463 -0.1052 -0.0550
 7599W        W27879  10.849  12.791  16.072 -0.1231  0.2388 -0.0636
 7600W        W27880  10.459  12.059  12.379 -0.0556 -0.1004 -0.2124
 7601W        W27881   9.121  14.666  14.429  0.0727 -0.0253 -0.2094
 7602W        W27882   2.083   5.325  15.331 -0.0019 -0.2621  0.1379
 7603W        W27883  13.316  15.312   3.774  0.0824  0.1555 -0.0163
 7604W        W27884   2.185   8.298  12.789  0.1418 -0.0964 -0.2192
 7605W        W27885  14.559   9.958  12.404  0.4335  0.1429  0.0046
 7606W        W27886   8.792   7.928  16.136  0.1452 -0.0740  0.0004
 7607W        W27887   6.658  16.660   3.518 -0.1132  0.1281  0.0215
 7608W        W27888   1.517   3.519   3.907  0.3560  0.3168  0.2512
 7609W        W27889  16.933  12.838   1.185 -0.0882  0.2363  0.0113
 7610W        W27890  12.196   1.439  14.144  0.3333 -0.0655 -0.3475
 7611W        W27891  11.917   3.551  15.600 -0.2168  0.1321 -0.0340
 7612W        W27892   4.299  11.774  16.735 -0.1611 -0.1075 -0.0346
 7613W        W27893   6.112   4.233   0.245  0.4230  0.0808 -0.2835
 7614W        W27894  15.233  11.235  13.817 -0.2023 -0.0746  0.0988
 7615W        W27895  13.218  14.602  14.877  0.1395 -0.2017 -0.0587
 7616W        W27896  17.393   9.724   0.815  0.2481 -0.0275 -0.1889
 7617W        W27897   6.792   2.811  16.396 -0.0457 -0.2169  0.1546
 7618W        W27898   5.811  14.967  14.997  0.1843 -0.1440 -0.0967
 7619W        W27899  10.741  15.085   2.184  0.0333 -0.1012 -0.0058
 7620W        W27900   3.021   7.960   2.140 -0.1576 -0.0843 -0.2276
 7621W        W27901  17.179   6.987  16.427 -0.0222  0.0820 -0.3222
 7622W        W27902  10.134  10.706  15.683  0.0583  0.0380  0.0316
 7623W        W27903   0.821  10.495   4.152 -0.0241  0.4348  0.2062
 7624W        W27904  13.453  13.945   4.060 -0.1185  0.1918 -0.1087
 7625W        W27905  12.060  13.297   1.272 -0.0911 -0.0761 -0.1061
 7626W        W27906   0.220  13.882   4.765  0.1445  0.2602  0.0619
 7627W        W27907   8.875   1.371   4.141  0.0431 -0.0130  0.1349
 7628W        W27908  10.309   5.339   3.097 -0.1050  0.0131  0.2473
 7629W        W27909   5.417  11.927  13.879  0.2187 -0.1493  0.1755
 7630W        W27910   8.508   1.478   2.206  0.1558 -0.0771  0.0410
 7631W        W27911  11.283   7.617   4.403  0.0163  0.1609  0.2311
 7632W        W27912  14.037   9.604   0.983 -0.1893  0.0907 -0.0151
 7633W        W27913  12.215   8.794  14.225  0.1733  0.2410  0.0658
 7634W        W27914   6.656   1.247   0.039 -0.2641 -0.3330 -0.2721
 7635W        W27915   0.610   3.022  16.523 -0.0655 -0.2345 -0.0488
 7636W        W27916   2.989   2.675  15.438 -0.2359  0.1578 -0.0031
 7637W        W27917   0.048   5.263   2.265  0.0956  0.1375 -0.2469
 7638W        W27918   7.317   1.328  15.111 -0.2522 -0.0849  0.0711
 7639W        W27919   8.587  14.641   3.308 -0.1646  0.1114  0.2590
 7640W        W27920   7.385   0.816   4.007 -0.0298  0.0212 -0.0109
 7641W        W27921  11.188   7.462   1.832  0.2004  0.1665  0.1369
 7642W        W27922   9.358   0.752   3.677 -0.0847 -0.0413  0.3755
 7643W        W27923  14.665   9.719  11.953 -0.6218 -0.0490 -0.3146
 7644W        W27924   6.948  12.731   1.376 -0.0454 -0.1337 -0.0915
 7645W        W27925   2.579  12.176   3.086  0.1311  0.0598  0.2750
 7646W        W27926   8.638  14.177   3.105  0.2482  0.1984  0.1899
 7647W        W27927   1.691   6.544   4.172 -0.1015  0.1796  0.1058
 7648W        W27928  16.891   9.922  16.620 -0.4194 -0.2942 -0.1469
 7649W        W27929  14.250   5.251  12.161 -0.3066 -0.0463 -0.0004
 7650W        W27930   3.540  13.658   2.712 -0.1470  0.2223 -0.1872
 7651W        W27931   4.202   5.718   1.317  0.0526 -0.2774  0.1146
 7652W        W27932  13.753   6.107   4.627  0.2529 -0.1860 -0.1147
 7653W        W27933   6.240   2.953  14.879  0.1348  0.0131 -0.3136
 7654W        W27934  12.943  17.100   3.725 -0.0407 -0.1989  0.0121
 7655W        W27935  10.234   3.314   0.822  0.1361  0.0693  0.1357
 7656W        W27936  11.361   7.577  14.222 -0.0213 -0.1505 -0.1466
 7657W        W27937   9.821   7.307   1.744 -0.0213  0.1418  0.1185
 7658W        W27938  17.496   0.930  14.775  0.1244 -0.1688  0.0004
 7659W        W27939   5.285   2.323   1.471  0.0708  0.1462  0.0295
 7660W        W27940   5.359   9.216   1.593 -0.0396  0.2456  0.2736
 7661W        W27941   1.154   5.005  13.686  0.1637 -0.2494 -0.0040
 7662W        W27942  15.362  11.280  15.643 -0.0030 -0.0424 -0.1795
 7663W        W27943   1.097  16.607   3.250 -0.0702  0.0899  0.3194
 7664W        W27944   4.164   1.396   0.695 -0.3632 -0.2666  0.0312
 7665W        W27945  16.310  15.086   1.944  0.1447  0.4329  0.0471
 7666W        W27946  13.564  11.382   1.943  0.0771  0.2825 -0.0657
 7667W        W27947   9.261   8.162  16.543  0.0148 -0.1051 -0.1550
 7668W        W27948  11.212  17.270   2.919 -0.1215 -0.0316 -0.1880
 7669W        W27949  10.777   1.145   4.959  0.0296 -0.2870 -0.0318
 7670W        W27950  11.656   3.016  16.512  0.2939  0.0265  0.3015
 7671W        W27951   3.254   4.074  13.048  0.1433  0.0469 -0.0730
 7672W        W27952   4.596   0.202  14.891 -0.0386  0.0140  0.1396
 7673W        W27953   8.190   7.050   4.486  0.0895  0.0759  0.0974
 7674W        W27954  13.165  11.026   3.283 -0.0128 -0.0640 -0.0847
 7675W        W27955   4.952  14.795  14.995  0.1084 -0.1889 -0.1463
 7676W        W27956   2.966   3.772   4.616  0.0096  0.1022 -0.0615
 7677W        W27957  12.377   4.766   4.839 -0.2289  0.0948 -0.1909
 7678W        W27958   7.206  11.307  13.890  0.1242  0.0337  0.2428
 7679W        W27959   3.854  12.547   4.867  0.2658  0.2574  0.1422
 7680W        W27960  16.487  10.977   1.228  0.0231 -0.0273 -0.1102
 7681W        W27961   8.035  12.469   2.903 -0.3767  0.0054 -0.0791
 7682W        W27962   9.518  12.919  13.080  0.2285  0.0459  0.0544
 7683W        W27963  11.125  10.042   1.599  0.1524  0.1074 -0.0433
 7684W        W27964   4.988   3.164   1.718  0.2003 -0.1081  0.1284
 7685W        W27965  13.329  16.144  13.174 -0.0938  0.2665  0.2600
 7686W        W27966   9.874  12.013   2.276  0.0064 -0.2449  0.1179
 7687W        W27967  14.609   5.485  14.903 -0.2306 -0.0101 -0.2649
 7688W        W27968   3.522   1.759   3.885 -0.1318  0.2495  0.0693
 7689W        W27969  14.567  12.419   2.396 -0.0684 -0.1951 -0.2227
 7690W        W27970  16.154   8.521   2.377 -0.2397  0.0301 -0.2286
 7691W        W27971   0.627  17.180  16.219  0.1621  0.0175 -0.0417
 7692W        W27972  10.564  12.672   3.728  0.1418 -0.2005  0.0012
 7693W        W27973  16.105  10.063  15.388 -0.1570  0.0223 -0.1203
 7694W        W27974   2.662  15.489  16.564  0.0476  0.1757 -0.1562
 7695W        W27975  13.785   6.697   2.026  0.0695  0.0655  0.1144
 7696W        W27976  10.015   7.055  15.933  0.2287  0.0424 -0.2577
 7697W        W27977   7.524   4.330  15.948 -0.2479 -0.0433 -0.0748
 7698W        W27978   7.618   1.138  12.387 -0.2050 -0.2803  0.0544
 7699W        W27979   3.800   1.836   3.070 -0.0142 -0.1767  0.1891
 7700W        W27980  12.738  14.258   3.615  0.0468 -0.1615  0.0871
 7701W        W27981   9.706  12.044  15.379 -0.0021  0.1495 -0.4168
 7702W        W27982   0.790  16.311   0.970 -0.1826  0.2976 -0.0009
 7703W        W27983   6.068   1.311  12.385  0.1163  0.0101  0.0564
 7704W        W27984   9.351   1.851  16.579  0.1158 -0.0175  0.0423
 7705W        W27985   9.766  11.650   2.754 -0.0922 -0.1882  0.0553
 7706W        W27986  10.014  15.301   5.667 -0.0277  0.1790  0.1296
 7707W        W27987   8.938   8.117   4.040 -0.3495  0.0729  0.0006
 7708W        W27988  12.346  12.975   2.342  0.0380  0.2478  0.1230
 7709W        W27989  12.771   2.282   0.080  0.0839  0.2611  0.0012
 7710W        W27990  15.506  12.139  15.306 -0.1959 -0.1608 -0.1487
 7711W        W27991   4.250  10.746   3.095 -0.2373  0.2905 -0.3110
 7712W        W27992   4.442   4.867  16.713  0.2851  0.0830  0.2859
 7713W        W27993  11.760   8.957   0.022 -0.1310  0.1065 -0.2570
 7714W        W27994  12.726   2.355   4.752  0.0659 -0.0667 -0.1283
 7715W        W27995   4.632   9.597  14.452  0.1982 -0.0594 -0.0250
 7716W        W27996   8.282   7.732  12.350  0.0657  0.0580 -0.3687
 7717W        W27997  10.623  15.902  16.263  0.1504 -0.0255  0.2576
 7718W        W27998  10.184   7.433  15.071 -0.2779 -0.3402  0.0570
 7719W        W27999  12.047   4.051   5.290  0.0213  0.0204  0.1998
 7720W        W28000   7.286  14.127  13.378  0.3790 -0.1801  0.7632
 7721W        W28001  16.218   6.252   4.228  0.1308 -0.0873  0.1837
 7722W        W28002   5.805   0.348   3.371  0.0615  0.1551 -0.0983
 7723W        W28003  15.096   6.403   2.542 -0.2188  0.1388  0.0071
 7724W        W28004  15.456  17.447  12.592  0.0012  0.1006  0.0232
 7725W        W28005  16.016   9.228  15.352 -0.1963 -0.2228 -0.1849
 7726W        W28006  14.957  12.488   5.112  0.0700 -0.0957  0.1388
 7727W        W28007   4.749   1.753  16.181  0.0360  0.1131  0.1031
 7728W        W28008   8.499   6.789   0.992 -0.0759  0.2045 -0.2625
 7729W        W28009   7.203   0.729   0.702  0.2286 -0.0985  0.0893
 7730W        W28010   6.413  15.084  16.829  0.0782 -0.3187  0.0493
 7731W        W28011   3.721   7.001  16.157  0.1643  0.2123 -0.0659
 7732W        W28012  14.496  10.702   3.561  0.1357 -0.3120 -0.1420
 7733W        W28013  11.048  12.557  13.388 -0.3518  0.0187 -0.2031
 7734W        W28014  12.811  16.847   4.981  0.0786  0.1708 -0.2076
 7735W        W28015   3.541   7.930   3.647 -0.2131  0.0526 -0.1636
 7736W        W28016  17.022   9.797   4.427 -0.1150 -0.2394 -0.0946
 7737W        W28017   6.760  14.793  15.977 -0.2497 -0.1103  0.0989
 7738W        W28018   8.557   2.955  13.422  0.1494 -0.0720  0.2074
 7739W        W28019   0.163  15.358  15.714  0.0739 -0.2768  0.0288
 7740W        W28020   0.991   7.893   3.864 -0.3943 -0.2806 -0.3125
 7741W        W28021   9.258   7.922   3.220 -0.1887  0.0213 -0.2755
 7742W        W28022  12.229   1.955  13.941 -0.0999 -0.0029  0.0953
 7743W        W28023  10.172   4.048  14.858 -0.0115 -0.0837 -0.1328
 7744W        W28024   4.290   0.660   3.202 -0.1016 -0.1809 -0.1904
 7745W        W28025  16.999   4.462   4.944 -0.2462 -0.0658  0.3797
 7746W        W28026  14.693  11.110   0.313  0.2701 -0.2458  0.0352
 7747W        W28027   1.712   0.632  15.579 -0.0809  0.0929  0.3108
 7748W        W28028  10.584   7.025   4.534  0.1438 -0.1821  0.0160
 7749W        W28029  17.335  14.569  12.678 -0.0629 -0.0722  0.0321
 7750W        W28030  13.804   4.143  14.698  0.1102  0.0699 -0.1884
 7751W        W28031   7.469   2.562   4.068 -0.0850 -0.1479 -0.0922
 7752W        W28032  11.140  16.181   5.054 -0.2274 -0.0637 -0.1466
 7753W        W28033   6.595  15.278   2.781  0.1880 -0.2127  0.3998
 7754W        W28034  16.540   0.144   0.513 -0.1871 -0.0333  0.1412
 7755W        W28035   5.552   6.009  15.468  0.1715  0.3505  0.1112
 7756W        W28036   1.803  13.719   3.325  0.2086  0.1423  0.1244
 7757W        W28037   1.538  16.268   4.154  0.3617 -0.0177  0.3965
 7758W        W28038  15.774   5.625   4.714  0.0681 -0.1517 -0.1633
 7759W        W28039   3.065   6.398   0.322 -0.2219 -0.0599  0.0539
 7760W        W28040  17.367  12.071   0.293 -0.1740  0.1319 -0.0951
 7761W        W28041  10.349  10.613   5.487  0.1950 -0.0365 -0.2919
 7762W        W28042   3.484   5.286  13.375  0.0723 -0.0577  0.1838
 7763W        W28043   3.045  11.188   3.407  0.0015  0.1129  0.1568
 7764W        W28044   5.508   6.790  16.827 -0.0489 -0.2639  0.1112
 7765W        W28045   0.383   9.421  13.819 -0.1347 -0.1678 -0.0024
 7766W        W28046   8.446  15.944   3.963 -0.2847 -0.1568 -0.0333
 7767W        W28047  11.289  16.529  11.919 -0.0604 -0.4243 -0.0278
 7768W        W28048   3.067  11.067  16.510  0.2419  0.2269  0.0303
 7769W        W28049  14.576   8.862   1.157 -0.0040  0.1912  0.2354
 7770W        W28050  13.017  16.373  13.514  0.1101 -0.0187  0.2463
 7771W        W28051  14.830  11.625   5.400 -0.0176 -0.1999 -0.4936
 7772W        W28052   5.337   3.278   4.530 -0.0755 -0.1814  0.0840
 7773W        W28053   1.885  16.254  16.132  0.3082 -0.2299  0.2475
 7774W        W28054  12.464   7.568  16.392 -0.0051  0.0816 -0.1846
 7775W        W28055  13.845  16.096   1.354  0.2295 -0.1786  0.3730
 7776W        W28056  14.060  12.760  14.516 -0.1938 -0.1038 -0.1257
 7777W        W28057  15.638  16.905   2.914 -0.1555 -0.1165 -0.0842
 7778W        W28058   1.961   2.673  16.201  0.0278 -0.1601  0.0704
 7779W        W28059   8.421   4.551   1.183 -0.2130 -0.1023  0.0188
 7780W        W28060   9.090  13.883   0.053  0.2570 -0.2368 -0.2743
 7781W        W28061   4.590  17.741  16.015  0.0624  0.4343 -0.1347
 7782W        W28062   5.063   3.013  13.934 -0.4235 -0.2105 -0.2419
 7783W        W28063  17.503  17.579   4.035  0.0908  0.0036 -0.1319
 7784W        W28064   6.608   5.945   2.720  0.3376 -0.0646 -0.1389
 7785W        W28065  11.586   8.139  13.877 -0.1818 -0.1441 -0.1804
 7786W        W28066  15.109   9.197   4.646  0.1469 -0.0468  0.1957
 7787W        W28067   6.350   1.676  15.230 -0.2461 -0.0305  0.1038
 7788W        W28068   4.698   0.349  12.559  0.0935  0.1492  0.0298
 7789W        W28069  12.643   0.668   4.850  0.0828  0.2239 -0.1060
 7790W        W28070   8.999   2.801   0.865 -0.1461  0.1977 -0.2043
 7791W        W28071  11.263   9.471  12.275  0.1957  0.1875 -0.1070
 7792W        W28072  12.334   7.018   4.554  0.0300  0.0624 -0.0473
 7793W        W28073   3.040   3.050  15.054 -0.2695 -0.1308 -0.2110
 7794W        W28074   0.997   5.338  16.786 -0.2155  0.2181 -0.2891
 7795W        W28075   3.759  16.629   0.408 -0.1199  0.0976  0.0537
 7796W        W28076  14.432  17.078   4.662 -0.0835  0.1711 -0.0462
 7797W        W28077   8.618   8.068   2.514 -0.3990  0.0475  0.2736
 7798W        W28078  10.393   4.717   3.289  0.2512  0.3113  0.0505
 7799W        W28079   6.903   0.406  14.734  0.5564  0.4403  0.0325
 7800W        W28080  16.423  16.685  16.703  0.2156  0.0620  0.0943
 7801W        W28081  11.568   0.901  15.096  0.3485 -0.2397 -0.0160
 7802W        W28082  17.463  17.292  15.697  0.0619  0.0691 -0.2100
 7803W        W28083  13.646  10.183   0.519 -0.1212 -0.1858  0.3164
 7804W        W28084  10.460  10.362  15.471  0.1506  0.0541  0.4905
 7805W        W28085  13.314   8.948  15.074 -0.1123 -0.1763  0.1889
 7806W        W28086  11.328   1.570  16.642  0.1952 -0.0995 -0.0239
 7807W        W28087   8.569  12.526  12.190  0.1231  0.0289  0.3747
 7808W        W28088  10.416   3.541  12.052 -0.0048  0.2136  0.2196
 7809W        W28089   8.353  10.349  15.598  0.3363 -0.2358  0.0212
 7810W        W28090  16.002   4.945   0.029  0.1194  0.4059 -0.0218
 7811W        W28091  10.613  17.673  14.401  0.2619  0.0681 -0.1150
 7812W        W28092   0.233  11.179  13.957  0.1594 -0.0083  0.1600
 7813W        W28093  11.003   5.218   0.148 -0.0627 -0.1316  0.0895
 7814W        W28094   3.986   8.502  13.350  0.0335 -0.3111  0.1399
 7815W        W28095  15.548   4.171  16.742 -0.0235 -0.0711 -0.1053
 7816W        W28096   0.447   9.140  12.994 -0.0766  0.0324 -0.0646
 7817W        W28097  10.334   3.734   1.995 -0.2466 -0.0893  0.0638
 7818W        W28098   7.665   9.183  12.859  0.0439 -0.2753 -0.1179
 7819W        W28099  13.929   1.464   0.665  0.2707  0.0671 -0.1903
 7820W        W28100   8.247   6.607  14.469 -0.0206  0.1222  0.1728
 7821W        W28101   7.589   6.715  13.698  0.2824 -0.2437  0.2543
 7822W        W28102  16.883   9.787  16.140  0.1317  0.1128  0.4396
 7823W        W28103  10.421  14.941   1.491  0.2428 -0.0829 -0.0997
 7824W        W28104   9.702  16.377   4.634  0.2402 -0.0699  0.0196
 7825W        W28105  17.341   2.675  16.849 -0.0803 -0.0154  0.1162
 7826W        W28106   8.548  12.002   0.501  0.1291 -0.2999 -0.1164
 7827W        W28107  11.065  16.758  12.784  0.2930 -0.0273 -0.1645
 7828W        W28108   8.653   2.083   1.402 -0.3969 -0.3842  0.2074
 7829W        W28109   3.322   7.370   4.295  0.6153 -0.0249  0.0357
 7830W        W28110  12.745   0.388  16.711 -0.0016 -0.1897 -0.2301
 7831W        W28111  17.220   4.096   0.743 -0.0524 -0.3404  0.0470
 7832W        W28112   8.688   8.437  12.116  0.0530  0.0364 -0.1481
 7833W        W28113   6.003  15.617   2.003  0.0356 -0.0981 -0.0998
 7834W        W28114  13.792   2.172  12.334  0.0171  0.0862 -0.1881
 7835W        W28115   2.938   6.366   2.623 -0.2786  0.2088  0.1532
 7836W        W28116  17.498   8.609  12.421 -0.1581  0.1348  0.2150
 7837W        W28117  13.436   5.557  12.773 -0.2714  0.0077  0.1429
 7838W        W28118   5.684  13.379  12.911 -0.0480  0.1209 -0.1735
 7839W        W28119   7.562   8.836  15.024  0.3746  0.2440 -0.1998
 7840W        W28120   2.735   9.250  16.265 -0.1450 -0.1886 -0.0101
 7841W        W28121   6.431   4.260  16.365 -0.0499 -0.2669 -0.3076
 7842W        W28122   9.951   4.259  15.681  0.2134 -0.2147  0.3686
 7843W        W28123  10.536  10.913   2.034  0.0255  0.2904 -0.2667
 7844W        W28124  12.379  13.448   3.848 -0.1908  0.1396 -0.1569
 7845W        W28125   1.595   2.410  15.925  0.1021 -0.2714  0.0119
 7846W        W28126  13.157  11.708  12.905 -0.0121  0.2726  0.0501
 7847W        W28127   2.261   9.790   3.675 -0.1186 -0.2771  0.1630
 7848W        W28128   2.707  17.024   2.059  0.0765 -0.2665  0.1188
 7849W        W28129  11.595   2.392   0.215  0.0828 -0.0637  0.3723
 7850W        W28130   0.193   1.582  13.652  0.2088  0.3241 -0.1120
 7851W        W28131   7.373   1.814   1.592 -0.0545 -0.2226 -0.1255
 7852W        W28132  15.900   5.792  16.637 -0.1766 -0.0722 -0.1306
 7853W        W28133   0.279   8.534   0.594  0.0126  0.1051  0.1759
 7854W        W28134  11.393   9.637  15.050  0.0335 -0.2231 -0.0119
 7855W        W28135  15.449  17.483   4.343  0.2118  0.3617  0.0226
 7856W        W28136  15.547   3.773   0.205  0.0236  0.0462 -0.0287
 7857W        W28137   9.268  12.361  15.508  0.1781 -0.2662  0.0002
 7858W        W28138   7.776   9.225   3.507 -0.0809 -0.1356  0.0004
 7859W        W28139  10.253   2.855   4.572  0.1571  0.0559 -0.2026
 7860W        W28140   8.294  10.932  16.444  0.3838 -0.3613  0.1263
 7861W        W28141   5.628  14.423   4.698  0.0825 -0.0848  0.0229
 7862W        W28142  11.690   4.108   2.197 -0.0357  0.2716 -0.1808
 7863W        W28143   0.277   2.178   4.322  0.0997  0.1760  0.3248
 7864W        W28144   2.806   9.876  12.715 -0.0672  0.0272 -0.3112
 7865W        W28145  11.710   0.814   4.912  0.1461  0.2219  0.2453
 7866W        W28146  11.376  12.665   2.673 -0.1740  0.0970 -0.1571
 7867W        W28147   5.240   6.549   2.464  0.2097 -0.2183  0.1828
 7868W        W28148   4.195  10.887   4.641 -0.0693 -0.2400 -0.0401
 7869W        W28149   4.956  10.583  14.328 -0.1140  0.1724  0.0112
 7870W        W28150   9.307   9.075  16.094 -0.0248 -0.1351 -0.1127
 7871W        W28151   9.751  15.492  16.434  0.0033  0.1992  0.0210
 7872W        W28152  17.081  11.940   2.980  0.0152 -0.0136  0.2760
 7873W        W28153   7.404   0.598   0.187  0.1956  0.0229 -0.1515
 7874W        W28154  12.828   5.455  14.489  0.3619  0.1965 -0.3382
 7875W        W28155  14.671   4.288  13.949 -0.1521 -0.0256 -0.0631
 7876W        W28156  12.093  14.544  14.133  0.1107 -0.0184 -0.0553
 7877W        W28157   3.060   6.986   4.073  0.0336  0.1018 -0.2570
 7878W        W28158   0.199   7.678   4.475  0.0700 -0.0844  0.1716
 7879W        W28159   1.341   7.371  13.257  0.1714 -0.1389  0.2431
 7880W        W28160  10.015   3.628  13.522 -0.1399  0.0066  0.3017
 7881W        W28161   4.750  10.847   2.966 -0.0668 -0.1503  0.0172
 7882W        W28162   4.258   7.700  15.030 -0.0417  0.1119 -0.0538
 7883W        W28163   1.981  11.627   1.727  0.2887 -0.1494  0.5765
 7884W        W28164   3.508   1.631   0.759 -0.2658  0.1475  0.2803
 7885W        W28165  13.746   5.240   1.197 -0.3113 -0.0396 -0.1615
 7886W        W28166  11.618   5.189  15.045  0.2609  0.3476 -0.0258
 7887W        W28167   9.560   4.453   0.795 -0.0128  0.2375  0.3356
 7888W        W28168  14.475  14.690   3.737 -0.0688 -0.3377  0.0246
 7889W        W28169  11.012  13.573   0.475  0.2012 -0.0995  0.1449
 7890W        W28170   1.078   5.078   4.574 -0.2262 -0.0067  0.2888
 7891W        W28171  12.098   8.671  13.135 -0.2189 -0.1111 -0.1568
 7892W        W28172   4.000  16.365  13.724  0.0091 -0.0810 -0.1546
 7893W        W28173  15.813   8.041  11.972 -0.1700 -0.2917  0.1798
 7894W        W28174  12.928   5.759   5.018  0.2980  0.3094  0.1424
 7895W        W28175   7.188   6.134  11.860  0.0844  0.1170  0.2588
 7896W        W28176  12.137  16.854   0.753  0.2101  0.3348  0.1447
 7897W        W28177  13.904  13.494   1.214  0.2637 -0.0802  0.1159
 7898W        W28178  17.676  14.685   4.577  0.3086  0.2690 -0.2554
 7899W        W28179  10.459   1.655   2.467  0.2328  0.3450 -0.0544
 7900W        W28180   8.471   6.854   1.862 -0.0703  0.0646  0.0432
 7901W        W28181  15.338   7.104   1.411  0.4035  0.0684 -0.1824
 7902W        W28182  13.509   2.257   4.447 -0.0051 -0.2067 -0.2355
 7903W        W28183   1.189   9.203   0.128 -0.1889  0.2533 -0.1757
 7904W        W28184   9.361  14.615  12.098 -0.1019  0.0761  0.1160
 7905W        W28185   7.305   0.290  15.148 -0.0024 -0.0768 -0.2963
 7906W        W28186  10.275   3.469   3.762  0.1804 -0.0527  0.0089
 7907W        W28187   8.029   2.094   3.380 -0.0015  0.2991 -0.2442
 7908W        W28188   5.429   5.297   4.565  0.2112  0.0371 -0.1886
 7909W        W28189  15.017   1.870   4.058 -0.1038  0.2333 -0.2302
 7910W        W28190  10.276  15.791  13.231  0.0328 -0.0595 -0.0756
 7911W        W28191   8.033   5.999  15.892  0.1394  0.3123 -0.1256
 7912W        W28192   4.918   0.877  16.017 -0.0158 -0.0173 -0.0631
 7913W        W28193   3.719  16.285   2.936 -0.1465 -0.0634  0.0385
 7914W        W28194   8.585  11.286   4.072 -0.0470 -0.3088  0.0962
 7915W        W28195   1.915   6.247  14.470  0.1348 -0.2655  0.1876
 7916W        W28196   5.624  15.103  12.994 -0.0169 -0.0814 -0.0737
 7917W        W28197  13.047  14.327  16.064 -0.0575  0.0603  0.0624
 7918W        W28198  14.425  11.624   4.610 -0.0969 -0.1948 -0.3407
 7919W        W28199   7.414  16.032   2.057 -0.0981  0.0976 -0.0997
 7920W        W28200   0.509   6.945  11.846 -0.2890  0.2451  0.0884
 7921W        W28201  12.165   6.392   0.812 -0.0176 -0.2560 -0.2721
 7922W        W28202   4.526   5.276   1.395 -0.3616  0.0218  0.1405
 7923W        W28203   6.436   1.669   0.413  0.2277  0.0447  0.0336
 7924W        W28204   9.466  12.677  14.507 -0.0058  0.0903  0.0498
 7925W        W28205  13.418   6.434  12.573 -0.0203  0.1898  0.0232
 7926W        W28206   3.525  11.118   3.578 -0.4291  0.1184 -0.0435
 7927W        W28207   3.103   2.815  16.726 -0.1028 -0.0796  0.0871
 7928W        W28208   6.629  12.549  12.589  0.1782 -0.1320 -0.0170
 7929W        W28209  14.265   4.291  16.620 -0.0618 -0.3847 -0.0066
 7930W        W28210   5.483   2.758   1.789 -0.3904 -0.1579  0.3465
 7931W        W28211   7.219  16.378   0.303 -0.0264  0.1034 -0.1201
 7932W        W28212  17.262  10.481  13.810  0.0896 -0.1113  0.0382
 7933W        W28213   6.691  11.559  12.751  0.2151  0.4060  0.2782
 7934W        W28214   5.113   2.871  14.817 -0.0868  0.0337  0.0618
 7935W        W28215   1.773  10.791   3.564  0.0955  0.1543  0.2745
 7936W        W28216  15.168  14.347   2.998 -0.0522 -0.1424  0.0152
 7937W        W28217   7.503   4.647  12.117  0.0079 -0.2763  0.2952
 7938W        W28218   0.014  13.771   3.845  0.1236  0.0457 -0.0909
 7939W        W28219   8.614  14.546   0.416 -0.0191  0.2899  0.0986
 7940W        W28220   9.320   1.620  15.249  0.0383 -0.2077  0.2284
 7941W        W28221   4.845  12.033   1.576  0.1785 -0.1055  0.0795
 7942W        W28222   4.722   9.459   1.028  0.3360 -0.1763  0.2123
 7943W        W28223   6.075   0.801   3.435 -0.3235 -0.1206  0.2791
 7944W        W28224   6.787  16.565   1.665  0.0649 -0.0326 -0.0521
 7945W        W28225   8.657   7.477  12.275  0.0018 -0.0109 -0.1323
 7946W        W28226   3.180   2.035  14.390 -0.2527 -0.1815 -0.0916
 7947W        W28227   0.813   3.853  15.719 -0.0697  0.2593  0.3186
 7948W        W28228  14.577  12.833   5.081  0.0146 -0.1644  0.0350
 7949W        W28229   9.023   9.667   3.555 -0.0298  0.0423  0.0604
 7950W        W28230  16.529   4.915  13.982  0.2688  0.2185 -0.0198
 7951W        W28231  14.063   5.736   1.249  0.2386  0.1343  0.2610
 7952W        W28232   7.241  10.697  16.102 -0.0826 -0.1178  0.3948
 7953W        W28233   9.756   7.936   3.993  0.1258  0.1697  0.0729
 7954W        W28234   5.688   7.005  13.582 -0.1420  0.0202  0.2337
 7955W        W28235   5.214   2.662  15.585  0.0115  0.0030  0.2334
 7956W        W28236   8.752   4.987   4.678 -0.1412  0.1020  0.1208
 7957W        W28237   4.656   7.079  14.218 -0.0470 -0.0811  0.0433
 7958W        W28238   8.081   2.430   4.666  0.0436  0.1699 -0.0017
 7959W        W28239  15.109   2.996   1.678 -0.1235  0.3010  0.2283
 7960W        W28240  14.648  10.412   1.553  0.0597  0.0148 -0.1541
 7961W        W28241  11.584   3.627  14.007 -0.1076  0.1458  0.0937
 7962W        W28242  16.764  15.520   0.756  0.0472 -0.0976  0.1186
 7963W        W28243   1.608   4.983  14.770  0.2396 -0.2624 -0.3812
 7964W        W28244  10.635  11.590  15.513 -0.1764 -0.1442 -0.0392
 7965W        W28245   8.364   6.756  12.563 -0.2136 -0.2212  0.2296
 7966W        W28246  16.786   9.230  12.842  0.0175 -0.2105 -0.0541
 7967W        W28247   0.751   3.521  12.063 -0.2188 -0.0358  0.0265
 7968W        W28248   8.092   8.803  14.868 -0.1483 -0.0849  0.2696
 7969W        W28249   0.688   8.992   2.051  0.0410 -0.2556 -0.1324
 7970W        W28250   5.577   1.526   4.762  0.2597  0.1633 -0.1447
 7971W        W28251  13.596  16.260  16.191 -0.1017 -0.2691 -0.2106
 7972W        W28252   9.046  15.784   3.824  0.0691 -0.1014  0.2201
 7973W        W28253  14.241  14.044  12.600 -0.2706  0.1201 -0.0930
 7974W        W28254  16.759   3.882  15.907 -0.2646 -0.0938  0.1238
 7975W        W28255  16.661   6.140   2.466  0.0321  0.2820  0.0957
 7976W        W28256   3.324   7.990  16.182 -0.0314 -0.1391  0.1914
 7977W        W28257  15.073   7.536   0.578  0.3444 -0.0731  0.0799
 7978W        W28258  17.253   9.734   2.816  0.0136  0.2738  0.1520
 7979W        W28259  15.878  11.972  12.527 -0.1137  0.1963  0.0823
 7980W        W28260  14.599   1.831  13.354  0.1339 -0.1260 -0.1544
 7981W        W28261  12.365  14.380   0.335 -0.2112  0.2327 -0.1432
 7982W        W28262  12.495   5.506  15.467  0.2875  0.0694  0.0301
 7983W        W28263   0.296  16.337   0.522  0.3675  0.1644  0.1786
 7984W        W28264   5.088   5.092   2.232  0.0273  0.1738  0.2188
 7985W        W28265  15.220  15.904  15.992  0.0501  0.2577  0.0448
 7986W        W28266   2.953  17.655  13.752  0.0085  0.3070 -0.3505
 7987W        W28267   4.315   3.115  13.276 -0.1953 -0.3303 -0.1111
 7988W        W28268  17.362  15.610   4.445  0.1448 -0.0221 -0.4236
 7989W        W28269   4.237  11.309  12.314  0.1549  0.0502 -0.0112
 7990W        W28270   7.352  10.672   2.919  0.3209  0.2868  0.0026
 7991W        W28271  15.524  12.303  12.996 -0.0558 -0.0101 -0.0968
 7992W        W28272   4.799   7.513   4.344  0.2778  0.0332 -0.1037
 7993W        W28273   6.546  10.276   3.225  0.0602  0.0343 -0.0207
 7994W        W28274   4.202   2.953  14.367  0.0111  0.0255 -0.2855
 7995W        W28275   4.638   5.140   3.933 -0.1938 -0.0056 -0.3140
 7996W        W28276   2.993   8.091  14.122 -0.2111 -0.0388 -0.0324
 7997W        W28277   4.660  11.998   4.637 -0.1357 -0.0139  0.0726
 7998W        W28278   7.606   1.297   4.623 -0.2735 -0.1569  0.0271
 7999W        W28279  16.127  13.995  14.377 -0.1085 -0.0930 -0.1000
 8000W        W28280   7.352  15.898  12.332  0.0836  0.3334  0.0555
 8001W        W28281  12.947   7.019   1.895 -0.1676 -0.0689 -0.1047
 8002W        W28282   4.505   5.468  15.694 -0.3261  0.2810  0.2968
 8003W        W28283  13.195   9.328  16.805  0.4633  0.1068 -0.0803
 8004W        W28284  16.809  16.350   4.699  0.1257  0.0217 -0.1767
 8005W        W28285   8.444   1.315   4.369  0.2470  0.2005 -0.3500
 8006W        W28286  13.758  10.836   4.729 -0.1962 -0.1571 -0.2027
 8007W        W28287  12.820   7.135  14.342  0.0206  0.1474 -0.0457
 8008W        W28288  11.536   6.743  13.641  0.0718  0.0036 -0.2741
 8009W        W28289  14.526   8.460  16.671  0.1143 -0.0743  0.0776
 8010W        W28290   5.056   6.034  16.719 -0.2607 -0.0781  0.0253
 8011W        W28291   7.351   1.078   3.197  0.0492  0.0098  0.1376
 8012W        W28292   6.767  16.236   4.337  0.0068  0.1681 -0.2216
 8013W        W28293  16.373   6.469  15.456  0.0013  0.1516 -0.1580
 8014W        W28294  17.546  15.573   2.423  0.3325  0.0177  0.2346
 8015W        W28295  13.816  12.348  14.461  0.0119  0.2757  0.2526
 8016W        W28296  11.205  10.998   0.882 -0.1092 -0.2732  0.0292
 8017W        W28297   1.740  13.632   2.257  0.0640 -0.1967  0.0248
 8018W        W28298   5.180   0.076   4.659  0.3799 -0.0572 -0.0637
 8019W        W28299   9.416  14.371  12.944 -0.0696 -0.1987  0.1950
 8020W        W28300   3.752   8.003  16.849 -0.1021  0.0321  0.1218
 8021W        W28301  15.167   2.065  16.651 -0.2095 -0.1203  0.0899
 8022W        W28302   7.402  12.209  14.430 -0.1350 -0.2404  0.0023
 8023W        W28303  12.423  13.351   0.399 -0.0886 -0.1410 -0.4028
 8024W        W28304   6.216   7.630  15.108 -0.0475  0.1574  0.1211
 8025W        W28305  12.548  17.196  16.813  0.0327 -0.0855 -0.1453
 8026W        W28306  12.650  11.924   2.669  0.3484  0.1117  0.1454
 8027W        W28307   3.484   3.590  14.103  0.1921  0.0462  0.0024
 8028W        W28308   4.745   7.692   3.843  0.0045 -0.4641  0.0700
 8029W        W28309  16.402  13.341   0.480 -0.0063 -0.0784  0.0049
 8030W        W28310  13.945   6.151   1.998 -0.0947  0.0141 -0.1041
 8031W        W28311   6.114  12.930   0.593 -0.1356 -0.3659 -0.1606
 8032W        W28312   6.744   2.158   1.673 -0.4299 -0.2248  0.1411
 8033W        W28313  11.403   0.861   1.026 -0.2206  0.2163 -0.2201
 8034W        W28314   3.303   9.311   4.011 -0.1903  0.1547  0.0753
 8035W        W28315   9.518  13.075   1.219  0.1283  0.2586 -0.2870
 8036W        W28316   4.470   3.956  12.378  0.2349 -0.0778  0.1057
 8037W        W28317   5.045   6.122  15.710 -0.0361  0.0664 -0.1145
 8038W        W28318   8.125   7.400   3.469  0.0513 -0.1254  0.2698
 8039W        W28319  16.177  11.725   5.302  0.0973 -0.0162  0.0719
 8040W        W28320   8.981   1.740   1.605  0.0387 -0.2575  0.0140
 8041W        W28321  14.327  16.664  16.694 -0.1122 -0.2003  0.0345
 8042W        W28322  16.219  10.145  13.950  0.1106 -0.2083 -0.0652
 8043W        W28323  13.192   3.303   4.535 -0.2621  0.1056 -0.1655
 8044W        W28324  12.153  10.064   0.748 -0.1280 -0.0042  0.2854
 8045W        W28325   6.515   2.186  14.433 -0.1079 -0.0825  0.0631
 8046W        W28326  15.504  16.761   2.487 -0.2503  0.0229  0.2343
 8047W        W28327   5.348  14.834   3.083  0.0618  0.0742 -0.0282
 8048W        W28328   7.478  14.993  12.266  0.0579  0.2028 -0.1336
 8049W        W28329  13.723   6.092   1.131 -0.0048  0.0891 -0.2943
 8050W        W28330   8.362  14.101   0.513 -0.0267 -0.0082  0.1063
 8051W        W28331   4.711  10.869   0.090  0.0372  0.0985 -0.1861
 8052W        W28332   2.879  16.253  15.878 -0.1661 -0.1309 -0.1362
 8053W        W28333   5.045   1.528   3.459 -0.1710 -0.0520  0.2652
 8054W        W28334   2.133  16.876  13.878  0.3556  0.2981  0.0125
 8055W        W28335  16.397   8.812   0.968  0.0620  0.1292  0.0843
 8056W        W28336   6.067  14.626  16.449  0.0201  0.0219  0.0478
 8057W        W28337  10.841  11.552   0.086 -0.0498 -0.0165  0.1948
 8058W        W28338  14.172  15.448   3.033  0.2302 -0.0088  0.1967
 8059W        W28339   3.342   0.068   0.630 -0.0349  0.0589  0.1211
 8060W        W28340  11.572  15.766  12.850  0.2760  0.0904  0.3210
 8061W        W28341   4.580  15.435   3.320  0.3458  0.2157  0.2588
 8062W        W28342  15.290  11.838   0.355  0.0277  0.2410 -0.0317
 8063W        W28343  16.543   9.720  14.056  0.1475  0.0298  0.2997
 8064W        W28344  11.769  11.245  15.779  0.2399  0.0034 -0.1091
 8065W        W28345  12.079  11.913   2.611  0.1504 -0.0977  0.1520
 8066W        W28346  16.665  13.559   0.845 -0.1182  0.0914 -0.0988
 8067W        W28347  17.011   1.159   2.851 -0.1862  0.3726 -0.0683
 8068W        W28348   1.118   6.167   3.473  0.1281  0.3888 -0.1151
 8069W        W28349  13.070  12.745   3.074  0.2643  0.0777  0.0235
 8070W        W28350   0.600   6.908   2.988 -0.2149 -0.1214 -0.0562
 8071W        W28351   1.522  13.437  15.823  0.1893 -0.3529  0.0281
 8072W        W28352   7.551   5.894   3.911 -0.1716  0.0835 -0.1339
 8073W        W28353  10.777   3.235  14.164  0.1324 -0.3341 -0.3944
 8074W        W28354  10.420  16.087   1.450 -0.1996  0.0908 -0.1759
 8075W        W28355  13.521   4.025  12.246  0.0270 -0.3715 -0.0192
 8076W        W28356   8.167   6.574   4.346 -0.0007  0.0393  0.1398
 8077W        W28357   6.838  10.045  14.882 -0.1642 -0.0997  0.2194
 8078W        W28358   6.459   8.088   0.556  0.2084  0.1025 -0.0779
 8079W        W28359   3.916  13.886   2.972  0.0909 -0.0194  0.2416
 8080W        W28360   9.635   4.124  13.339 -0.0722 -0.3321 -0.1625
 8081W        W28361   8.038   6.351  14.089 -0.0182  0.0469 -0.1200
 8082W        W28362  15.240   2.489   2.846 -0.3424  0.5668  0.0199
 8083W        W28363   2.010   2.178  16.047  0.1753  0.0739  0.2458
 8084W        W28364  12.299   0.029  14.230  0.0150 -0.1405 -0.0681
 8085W        W28365  12.729  10.990  16.726 -0.2416 -0.1333 -0.2557
 8086W        W28366  15.365  11.552   4.629 -0.0919  0.0502  0.1299
 8087W        W28367   9.032  15.208   4.630  0.2057  0.0558  0.0657
 8088W        W28368  13.898   1.485   1.523  0.5433  0.3069  0.0176
 8089W        W28369  16.199   2.875  15.664  0.0933  0.1727  0.0178
 8090W        W28370  11.975   5.442  13.351  0.4566  0.0182  0.2560
 8091W        W28371   5.941   0.980   4.725  0.3822 -0.1425  0.1359
 8092W        W28372   8.388   5.620   2.737 -0.3732  0.2651 -0.1750
 8093W        W28373   4.753   6.117  16.218 -0.0377 -0.1066 -0.0393
 8094W        W28374  13.309   5.750  14.246  0.3165 -0.2312  0.0734
 8095W        W28375   9.689   2.262  16.398  0.0096 -0.0257  0.1480
 8096W        W28376   4.815   8.342   4.019  0.2153 -0.1923 -0.1925
 8097W        W28377  13.803   5.896   1.622 -0.0710 -0.0104  0.2083
 8098W        W28378   1.341  14.380  13.838  0.0951 -0.0779  0.2325
 8099W        W28379   1.997  12.089  15.835 -0.3131  0.2459  0.2675
 8100W        W28380   9.620   7.338  14.384  0.2379  0.0844  0.3426
 8101W        W28381  11.595  11.820   2.645 -0.2352 -0.0299  0.0420
 8102W        W28382  13.116   3.842  15.958 -0.0579  0.3095  0.0726
 8103W        W28383   0.958  10.322  12.047  0.2141 -0.2174  0.1085
 8104W        W28384  16.824  11.074   4.027  0.0310  0.0191  0.2156
 8105W        W28385  13.274  15.657  13.050  0.1699 -0.0220 -0.0855
 8106W        W28386  16.904   0.938   1.006  0.1382 -0.2490  0.0810
 8107W        W28387   4.871   4.567   3.071 -0.0325  0.0054  0.0135
 8108W        W28388   7.897  14.791  11.974 -0.2707  0.1692  0.0152
 8109W        W28389  10.816  16.999   2.936 -0.1356 -0.0488 -0.3190
 8110W        W28390   1.240  13.581   4.482  0.0495 -0.3022  0.1742
 8111W        W28391  14.653  14.239   3.900 -0.3092 -0.2147  0.0432
 8112W        W28392   2.487  14.214   0.374 -0.1359 -0.3245 -0.0705
 8113W        W28393   8.997   6.659   2.825 -0.1946  0.2381  0.0676
 8114W        W28394   5.996  10.129   2.368 -0.0717 -0.2652 -0.2830
 8115W        W28395  15.817  14.316  16.659  0.0685  0.0270  0.0815
 8116W        W28396   0.429   9.437  16.434  0.1630 -0.0130  0.1445
 8117W        W28397  13.957   2.896   2.432  0.0943 -0.1039 -0.0570
 8118W        W28398   9.471  15.227  13.376 -0.3539 -0.0042 -0.2946
 8119W        W28399  15.724  10.752  15.613 -0.3231 -0.2220  0.3590
 8120W        W28400  13.992   1.208  13.804  0.3109 -0.2314 -0.1738
 8121W        W28401   9.523   2.062   2.833  0.0319 -0.0558  0.0013
 8122W        W28402   8.703   0.654  12.853 -0.2327  0.1406 -0.1882
 8123W        W28403   8.641  16.928  15.703  0.0933  0.0134  0.0658
 8124W        W28404   1.751   1.279  16.517  0.1882 -0.0247  0.2491
 8125W        W28405  16.048   9.535   3.423 -0.1312  0.0649  0.0295
 8126W        W28406  17.453   9.637   4.869  0.0260 -0.0352 -0.0924
 8127W        W28407  17.199  15.527  12.817  0.0959  0.2595  0.0960
 8128W        W28408   7.806  13.267  15.476  0.3021  0.0001 -0.2640
 8129W        W28409  16.349   4.807  16.082 -0.0883 -0.1640  0.1269
 8130W        W28410  16.638   5.795   1.161  0.1460  0.0902 -0.0910
 8131W        W28411   8.321  17.083   4.779  0.0537  0.1304 -0.1496
 8132W        W28412  15.217   6.558   4.778 -0.1668 -0.0733 -0.1441
 8133W        W28413   5.149  13.138   0.577  0.0284 -0.0262 -0.2810
 8134W        W28414   9.863  15.586   4.426  0.2374  0.1738 -0.0493
 8135W        W28415  10.034  10.142   1.557  0.2266 -0.0476  0.1453
 8136W        W28416  10.270   9.679  11.951  0.0806  0.1746  0.0839
 8137W        W28417   1.354  14.467  13.202 -0.0112 -0.4144  0.1184
 8138W        W28418   5.197  13.222   2.032 -0.0456  0.0252 -0.0144
 8139W        W28419  14.841  17.666   3.458 -0.2003  0.1305  0.0518
 8140W        W28420   8.136   9.340   0.021 -0.1333  0.1746  0.2054
 8141W        W28421  10.115  15.149   3.240  0.1045  0.2119 -0.1297
 8142W        W28422   3.609  14.116   2.528 -0.0373 -0.2035 -0.2358
 8143W        W28423   6.769   9.645  13.004 -0.0734  0.2398  0.2396
 8144W        W28424   5.668   1.386   1.502 -0.2782 -0.0311  0.0033
 8145W        W28425   3.113  16.705   1.892  0.2937 -0.0332  0.1454
 8146W        W28426   6.429   7.829  14.100  0.1250 -0.4052 -0.1166
 8147W        W28427   9.660   6.271  14.867 -0.1659 -0.0097  0.2943
 8148W        W28428  13.436  15.301  14.495  0.2023 -0.0462 -0.0757
 8149W        W28429   1.977  11.921  12.421 -0.0147  0.0283  0.0336
 8150W        W28430   3.327  15.636   2.524  0.0342 -0.2051  0.1429
 8151W        W28431  11.591   4.265   4.154 -0.1467 -0.1336 -0.2130
 8152W        W28432  10.951   9.950  15.065  0.2385  0.1346 -0.2733
 8153W        W28433  15.472  15.070  14.111  0.0605  0.0086  0.0151
 8154W        W28434  12.290   7.177  12.691 -0.0084  0.0511  0.0078
 8155W        W28435  12.701  16.722  15.234  0.0757 -0.4562 -0.0792
 8156W        W28436   4.449   8.850  14.612 -0.2704  0.0586  0.0481
 8157W        W28437   5.846   4.721   3.358 -0.1578 -0.1262  0.2887
 8158W        W28438  15.887  12.971  12.464 -0.0729  0.0783 -0.0659
 8159W        W28439   5.168   4.988  15.007 -0.0442  0.0163  0.0700
 8160W        W28440  11.320  17.468   3.375 -0.2790 -0.1301 -0.4215
 8161W        W28441  14.500  14.586  16.423 -0.0886  0.1888  0.1978
 8162W        W28442  14.339   6.492   0.170  0.1093 -0.0969 -0.0183
 8163W        W28443  16.829  12.558  13.291  0.1009 -0.1311 -0.2915
 8164W        W28444  15.452  16.223   4.852 -0.0690 -0.4057  0.1733
 8165W        W28445   3.719  12.318  15.092 -0.1797  0.0428  0.1063
 8166W        W28446  16.826  16.009   4.117  0.0704 -0.3225  0.1774
 8167W        W28447   2.149   8.825  12.657 -0.1319  0.2895 -0.2566
 8168W        W28448  17.327  15.976  15.282 -0.3536  0.0905  0.0186
 8169W        W28449   3.834  16.442  14.262  0.1824 -0.1068  0.1271
 8170W        W28450  17.636  14.037   1.835 -0.2599  0.3391  0.2248
 8171W        W28451  11.122  14.856   2.583  0.1971  0.4023  0.2345
 8172W        W28452   3.244  10.566  16.758  0.1568  0.1002  0.0563
 8173W        W28453  10.134   3.822   4.424 -0.0113  0.1098 -0.1502
 8174W        W28454   2.031  13.359   4.931 -0.3686  0.0041 -0.2342
 8175W        W28455  14.416   4.089   3.285  0.0703 -0.1674  0.0518
 8176W        W28456   6.696   1.312  14.437 -0.1387  0.0935 -0.0189
 8177W        W28457   3.450   2.528  16.340  0.0605 -0.2661 -0.2580
 8178W        W28458  17.452  10.983  13.731  0.3243  0.0611 -0.0597
 8179W        W28459   1.340  13.527  14.134 -0.1362  0.1040  0.1302
 8180W        W28460   2.137   1.707   4.931 -0.0329  0.1208 -0.2866
 8181W        W28461   8.448  13.297  13.375 -0.0042 -0.0687  0.1447
 8182W        W28462   8.524  15.445   1.894 -0.0815  0.1146  0.2866
 8183W        W28463  16.453   5.556  15.367 -0.1725 -0.2026  0.1140
 8184W        W28464  14.432   6.320  12.140 -0.0252 -0.1597  0.0088
 8185W        W28465  17.662  14.732   3.756 -0.0750  0.0582 -0.1624
 8186W        W28466   2.362  10.017  16.654 -0.0282  0.0181 -0.1619
 8187W        W28467   5.912   5.646  16.201 -0.4390  0.1260 -0.1024
 8188W        W28468   3.338   9.746  13.627 -0.0937  0.0084  0.1513
 8189W        W28469   9.286  11.849   0.997 -0.0653  0.1041  0.3332
 8190W        W28470   8.674  11.697   4.374  0.0897  0.0371 -0.0816
 8191W        W28471   6.425   5.443  16.245  0.1171 -0.2096  0.2087
 8192W        W28472  16.364  11.946   3.613  0.0050  0.0955 -0.1844
 8193W        W28473   8.349  14.804   2.894 -0.2521 -0.1186 -0.1105
 8194W        W28474   3.292   6.489  16.128 -0.1949  0.3265  0.0990
 8195W        W28475   3.600   9.627  16.014  0.0710  0.0907 -0.2848
 8196W        W28476   8.527   1.344   0.286 -0.2726  0.1170 -0.0093
 8197W        W28477  17.194  11.570  16.131  0.6479  0.1884  0.2230
 8198W        W28478   8.748   9.596  15.723 -0.1806  0.0508  0.2357
 8199W        W28479  14.572   7.625   4.898  0.1425 -0.1200  0.0449
 8200W        W28480   4.091  10.405  13.692 -0.0672  0.0216  0.0299
 8201W        W28481   0.458   9.548  15.456  0.1445  0.2339  0.0926
 8202W        W28482   1.426  15.032   2.210  0.0111  0.0161 -0.1263
 8203W        W28483  16.775   4.368   3.487  0.1246  0.1204  0.1419
 8204W        W28484  11.656  17.200   1.793  0.1532 -0.0647  0.0485
 8205W        W28485   6.029  11.704   3.877 -0.0493  0.1572 -0.0238
 8206W        W28486  10.076  11.572   2.302 -0.0492 -0.1439 -0.0369
 8207W        W28487   8.880   6.078   4.828  0.0919 -0.3498 -0.1466
 8208W        W28488  13.498   1.840   0.786 -0.1158 -0.0103 -0.2442
 8209W        W28489   9.967   7.801   1.104 -0.0471 -0.0800 -0.1140
 8210W        W28490  10.114   5.656  14.168 -0.0130 -0.0835 -0.1165
 8211W        W28491  13.512   6.585   1.390 -0.1270 -0.0046 -0.0026
 8212W        W28492  11.192   4.999  12.893 -0.0520 -0.1929  0.0128
 8213W        W28493   2.253   0.847  15.364 -0.1531 -0.0256  0.2169
 8214W        W28494  14.061   3.129   0.760 -0.2725  0.1779 -0.4250
 8215W        W28495   4.069   9.476  15.672 -0.0330  0.1991  0.1101
 8216W        W28496   4.397  11.359   2.040  0.0959  0.1386 -0.1802
 8217W        W28497   0.012   8.941   3.362 -0.0934 -0.0645  0.0907
 8218W        W28498  12.828   9.138   4.564 -0.2543  0.1051 -0.2074
 8219W        W28499  14.744  12.968   2.474  0.0525  0.1516  0.2597
 8220W        W28500  14.671   2.973   4.518  0.0926 -0.1088 -0.1075
 8221W        W28501  13.932   2.423   0.277  0.0550  0.0614 -0.0949
 8222W        W28502   1.197   8.519   0.633 -0.2158 -0.0916  0.1156
 8223W        W28503  17.551   9.758  13.264 -0.2598  0.0364  0.0728
 8224W        W28504   3.347   5.011   3.776 -0.0945  0.0729  0.1275
 8225W        W28505   4.907   4.674  15.501 -0.1606 -0.1523 -0.3346
 8226W        W28506  15.196   5.492   1.832  0.1692  0.0712  0.2676
 8227W        W28507  17.143  11.669   1.971  0.2530 -0.1853  0.1921
 8228W        W28508   9.809   3.924  15.184 -0.0478 -0.0618  0.0211
 8229W        W28509  15.438   1.994   3.097 -0.1549  0.1951  0.0912
 8230W        W28510  14.076  14.420   4.025 -0.0871 -0.2788 -0.2831
 8231W        W28511   8.143   0.081   0.331  0.0491  0.0763 -0.3227
 8232W        W28512  13.630   8.347  12.607 -0.1519 -0.2116 -0.1452
 8233W        W28513   4.254  13.014   2.530  0.0184 -0.2700  0.0336
 8234W        W28514   9.221   4.105  16.258  0.2620 -0.0172 -0.0247
 8235W        W28515  14.798   9.066   0.549 -0.1246  0.0701  0.1168
 8236W        W28516  17.366  14.314  15.692  0.0894 -0.0211  0.0943
 8237W        W28517   5.775  14.978  16.090  0.0796 -0.2189 -0.1136
 8238W        W28518  11.482   9.754   4.779  0.6695 -0.0286  0.1882
 8239W        W28519   1.162   5.502  13.825 -0.2337 -0.3067 -0.0399
 8240W        W28520  14.446  11.303  13.436  0.0971 -0.0691 -0.2765
 8241W        W28521  15.826  15.695  15.323  0.1385  0.2235  0.0099
 8242W        W28522  15.988  10.221   3.005 -0.1454 -0.1331  0.2723
 8243W        W28523  14.428   4.183  15.715 -0.0888  0.1824 -0.1231
 8244W        W28524  14.617  10.646  16.354  0.0255 -0.1108  0.0858
 8245W        W28525  14.766  11.157   0.847 -0.1232 -0.4343  0.0441
 8246W        W28526   9.971  14.379   2.115 -0.3930  0.0350 -0.0609
 8247W        W28527   5.591   2.557   0.181 -0.0278 -0.4131 -0.0329
 8248W        W28528   8.967   1.717   2.086 -0.2323 -0.2894 -0.3367
 8249W        W28529   0.064  16.455  16.077 -0.1768  0.1354 -0.2028
 8250W        W28530   2.980  11.309  13.470  0.0090  0.1468  0.0843
 8251W        W28531   4.776   6.944   4.274 -0.0954  0.1881  0.2031
 8252W        W28532   7.200   1.389  13.537  0.0261 -0.2907  0.1175
 8253W        W28533  11.265   5.901  13.627  0.1667  0.1291 -0.1570
 8254W        W28534  12.345  10.770   1.793  0.3968  0.2382 -0.1893
 8255W        W28535   6.997  12.072  12.436  0.0756 -0.0277 -0.1479
 8256W        W28536  17.081   3.064  12.209 -0.0021  0.1198  0.0348
 8257W        W28537  14.469   8.709   5.009 -0.0533 -0.2033  0.0560
 8258W        W28538   8.103  14.366   3.146 -0.2383 -0.1701 -0.3718
 8259W        W28539   9.294  15.148   3.194  0.0398 -0.0443  0.1213
 8260W        W28540   7.434  12.931  15.496 -0.1241  0.2484 -0.2538
 8261W        W28541  12.283   9.764   1.465 -0.0125  0.3058 -0.1071
 8262W        W28542  10.325  14.495   2.406 -0.1134 -0.0440 -0.1698
 8263W        W28543  14.112   3.216  13.602  0.3507  0.1320 -0.0794
 8264W        W28544   7.415  11.138  14.789 -0.0735  0.1091  0.0035
 8265W        W28545   5.138  11.946  16.244 -0.1470  0.1733  0.0490
 8266W        W28546  13.000  14.997   3.374 -0.1470 -0.1210 -0.1301
 8267W        W28547  13.654   4.495   1.660  0.1892  0.0492 -0.1441
 8268W        W28548   4.274  15.338  12.721 -0.2094 -0.1042  0.0568
 8269W        W28549  17.472  10.776  12.214  0.1760 -0.0173  0.1050
 8270W        W28550   4.139  11.537   1.617  0.0526  0.0624 -0.1302
 8271W        W28551   2.023  15.884  15.843 -0.0030 -0.0247  0.0654
 8272W        W28552  10.842   4.841   0.492 -0.0831  0.1806  0.1361
 8273W        W28553  10.469  12.196   3.490 -0.1935 -0.0195  0.1038
 8274W        W28554   8.372  13.356  16.757 -0.0418 -0.0763  0.0701
 8275W        W28555  16.790   9.916   3.428 -0.0970  0.0479 -0.1902
 8276W        W28556  12.730   8.998   0.038  0.0999  0.3750 -0.0231
 8277W        W28557  12.773   6.126   2.940  0.0193  0.0552  0.1141
 8278W        W28558   1.719   8.529   4.917  0.3292  0.2588  0.1036
 8279W        W28559   4.846   4.809  12.549 -0.1509 -0.1366 -0.0047
 8280W        W28560   3.661   1.662   0.003  0.1263 -0.3239  0.0871
 8281W        W28561  16.575   4.878  16.555 -0.1235 -0.0121  0.1605
 8282W        W28562   6.801   2.439   2.516  0.2408 -0.1876  0.4080
 8283W        W28563   9.376   7.364   3.672 -0.2201  0.4863  0.1844
 8284W        W28564  12.868  14.546  13.610  0.0506  0.1543 -0.0145
 8285W        W28565   5.969  12.888   0.055  0.0435 -0.1805  0.0435
 8286W        W28566   7.394   8.641   4.049 -0.0856  0.0342  0.2332
 8287W        W28567  13.562   9.526  13.842  0.1239 -0.3623 -0.4993
 8288W        W28568  16.422   7.055  16.700 -0.0454 -0.1957  0.1261
 8289W        W28569  17.577   6.386   3.090  0.2040  0.1193 -0.0011
 8290W        W28570   1.251  16.421  14.923 -0.0097 -0.0498 -0.2661
 8291W        W28571  15.034  12.406  13.303 -0.1139  0.2816  0.0508
 8292W        W28572  10.085  16.099   2.968  0.1061  0.2267  0.2616
 8293W        W28573  14.174   2.060  13.282 -0.0574  0.0356 -0.1265
 8294W        W28574  14.385   5.847   0.791 -0.1723 -0.0477  0.1807
 8295W        W28575   0.170  12.074   2.792  0.1920 -0.0431 -0.0341
 8296W        W28576  14.857  16.673  15.730 -0.0117 -0.1300 -0.0310
 8297W        W28577  15.739   0.629   4.666  0.2301  0.2688  0.1370
 8298W        W28578  11.896   0.312   1.528  0.0290 -0.1120  0.3804
 8299W        W28579   8.974   0.435   3.888  0.0882  0.0348  0.5122
 8300W        W28580  16.651   5.393  12.378  0.0763  0.0407 -0.2624
 8301W        W28581   4.432   5.361  16.552 -0.2647 -0.0870 -0.1011
 8302W        W28582   2.536   1.894   4.407 -0.0651  0.2337 -0.0899
 8303W        W28583  16.017   2.425   3.991  0.0922 -0.1257  0.0021
 8304W        W28584  12.222   3.030   4.612  0.0957 -0.0745  0.2785
 8305W        W28585   3.123   1.379   3.737  0.1622  0.0166  0.0446
 8306W        W28586  10.380   8.797   3.588 -0.1736  0.1057 -0.1800
 8307W        W28587   8.875   2.754  13.847 -0.2718  0.0030 -0.1309
 8308W        W28588  11.827  13.898  12.888  0.0959  0.1267 -0.0012
 8309W        W28589   1.022  12.840   2.133 -0.4534  0.0729 -0.0717
 8310W        W28590   1.931  10.149   4.943 -0.2203 -0.2816 -0.1512
 8311W        W28591  17.478   3.277  15.823 -0.0116 -0.2944 -0.0584
 8312W        W28592  14.057  17.011  12.661 -0.1882 -0.3170 -0.0316
 8313W        W28593   4.371   5.374  13.676  0.2783 -0.0611 -0.2023
 8314W        W28594  15.323  14.580  14.297 -0.1418 -0.0375 -0.1063
 8315W        W28595  10.873   8.345  13.823 -0.2678  0.4223 -0.3099
 8316W        W28596   9.780   4.204  16.661  0.1349  0.2439  0.0372
 8317W        W28597  12.862   8.907   3.000  0.2688 -0.0249  0.4466
 8318W        W28598   6.458   4.481  12.970  0.0117  0.1298  0.0120
 8319W        W28599  10.030   0.633  14.526  0.1495  0.1161  0.2263
 8320W        W28600  16.675  14.630   3.662 -0.0335 -0.1277 -0.1771
 8321W        W28601   8.042  12.326   0.484  0.0666  0.3388 -0.1269
 8322W        W28602  17.607  14.965  13.831  0.0881 -0.3028 -0.3141
 8323W        W28603   6.943  10.535  13.714  0.1231 -0.0851 -0.3725
 8324W        W28604  17.277  16.321  13.856  0.2864 -0.1953  0.4747
 8325W        W28605   8.866  10.290  14.454 -0.3292 -0.2017 -0.0036
 8326W        W28606  16.357  13.501  14.782  0.2299 -0.1865  0.1798
 8327W        W28607   8.346  11.833  14.207 -0.1250 -0.2003 -0.1089
 8328W        W28608   3.239  14.667   2.167 -0.0475  0.0874 -0.1059
 8329W        W28609  13.384  15.541   0.525 -0.1225  0.3003  0.2952
 8330W        W28610  10.646   7.032   2.047  0.2813  0.0165 -0.3539
 8331W        W28611  13.211  11.434   0.842  0.0340  0.1454  0.1992
 8332W        W28612  13.526   9.678  14.746  0.0624 -0.0969  0.1728
 8333W        W28613   9.643  12.137  13.315 -0.0701  0.1517  0.2207
 8334W        W28614   4.413   4.122   1.678  0.1289  0.1547  0.1360
 8335W        W28615  10.313   1.751   3.247  0.1039  0.0796  0.0015
 8336W        W28616  11.002   9.118  12.070 -0.0159 -0.2271 -0.1089
 8337W        W28617   3.879   3.795   4.362 -0.0730  0.0277  0.1181
 8338W        W28618  15.980  16.100   5.055  0.0735  0.2260 -0.2760
 8339W        W28619  16.779  11.143  14.373 -0.1177  0.0416  0.2782
 8340W        W28620  13.575   2.881   0.630 -0.2480 -0.0946  0.0248
 8341W        W28621   8.202  13.066   4.243 -0.1672  0.1855 -0.0339
 8342W        W28622   3.525  16.614  13.929  0.3124 -0.1891  0.0201
 8343W        W28623  10.454   1.549  15.659 -0.1729  0.2917  0.0119
 8344W        W28624  15.131   2.462   0.364 -0.1313 -0.3629 -0.2900
 8345W        W28625   1.226   0.921   0.233 -0.2126 -0.1649 -0.1077
 8346W        W28626  10.898   7.705  11.745  0.0785  0.0395  0.1961
 8347W        W28627   8.258   9.879  12.780  0.0445  0.2774 -0.0867
 8348W        W28628  17.632   3.046   2.885  0.0355 -0.5301  0.0720
 8349W        W28629   1.545  11.133   3.208 -0.0586 -0.1286  0.0319
 8350W        W28630   1.452   6.946   3.887  0.0941  0.0512 -0.4533
 8351W        W28631   4.424   1.799   0.835  0.0185 -0.2312  0.0489
 8352W        W28632  10.289  12.653   3.289  0.2068  0.2478  0.0874
 8353W        W28633  14.993  16.658  16.225 -0.1196  0.0463 -0.4203
 8354W        W28634  13.151   8.123  14.642  0.0360  0.0732  0.0088
 8355W        W28635  15.358  15.376  15.069  0.1308  0.3945  0.0242
 8356W        W28636   8.487   1.017   3.988  0.3770 -0.0285  0.0931
 8357W        W28637   1.686   4.719  15.746  0.1548 -0.1528 -0.2827
 8358W        W28638  15.156  12.367  15.034  0.0276 -0.0819  0.0360
 8359W        W28639  15.042   7.582  16.106 -0.1080  0.0698  0.0633
 8360W        W28640   5.241   3.423  13.025 -0.0410 -0.1970 -0.1129
 8361W        W28641  13.806   1.492   3.385  0.0964  0.1099 -0.4497
 8362W        W28642  15.908  16.820  15.493  0.1029 -0.0479  0.1255
 8363W        W28643  12.853  11.570   1.272  0.1499  0.0684  0.1787
 8364W        W28644   7.274  16.497   1.852 -0.0794 -0.2321 -0.2966
 8365W        W28645   8.715   8.933  11.812 -0.2421 -0.1184  0.0171
 8366W        W28646  17.125   3.045   0.279  0.1572 -0.0716 -0.0528
 8367W        W28647  10.003  14.244  15.065  0.1073  0.2376  0.0559
 8368W        W28648  10.312   8.395   3.939 -0.2420 -0.0081  0.0098
 8369W        W28649   3.987   1.511  14.440 -0.1130  0.0048  0.0190
 8370W        W28650   6.098   2.453  15.845  0.0346 -0.0157 -0.0523
 8371W        W28651  17.349  12.612  15.361 -0.0002  0.3257 -0.1508
 8372W        W28652  17.036  10.871  16.303 -0.0900 -0.1414 -0.3034
 8373W        W28653  13.534   5.732   1.989  0.0577  0.0776  0.1471
 8374W        W28654  17.613   4.449   3.929  0.0724  0.1425 -0.3498
 8375W        W28655  15.415  13.374   0.605  0.1240  0.1638  0.2762
 8376W        W28656  14.270   7.148  12.454 -0.0727  0.0279 -0.0569
 8377W        W28657  10.971  13.998   4.226  0.2409  0.0230  0.0244
 8378W        W28658  13.090   4.235  15.235 -0.2744 -0.1915  0.1330
 8379W        W28659  12.476   2.551   0.420  0.0075 -0.2174  0.0603
 8380W        W28660   3.719  10.223   0.104  0.2125  0.0083 -0.0532
 8381W        W28661   3.464  16.342  15.101 -0.1799  0.0950  0.0041
 8382W        W28662   9.580  17.293  15.101  0.2752 -0.2624 -0.1019
 8383W        W28663   3.714   1.054  13.301  0.0231 -0.4883 -0.2869
 8384W        W28664   0.965   7.441   2.897  0.0493 -0.0260  0.1482
 8385W        W28665   6.397  12.011   3.527 -0.3035  0.1259  0.0707
 8386W        W28666   2.403  12.574   1.773 -0.2076  0.0838  0.0913
 8387W        W28667   6.305  13.053   2.853  0.1546  0.1235  0.0445
 8388W        W28668  15.746   4.068  15.011 -0.0914 -0.1856 -0.3324
 8389W        W28669   5.401   8.061  15.678  0.0867 -0.2154  0.1881
 8390W        W28670   1.615   9.494   0.120 -0.0892  0.0821  0.5918
 8391W        W28671   2.671   2.210   3.918 -0.0425  0.0370  0.2578
 8392W        W28672   5.088   2.786   3.286  0.1715  0.1738  0.2096
 8393W        W28673   4.439   1.536  14.894 -0.3339  0.0125  0.3445
 8394W        W28674   3.472  10.110  16.498  0.3021  0.0366  0.0976
 8395W        W28675   7.375   9.179   3.241  0.2753 -0.1815  0.0680
 8396W        W28676   4.370  16.767  15.804 -0.2210  0.1430  0.1743
 8397W        W28677  16.403  11.300  12.113 -0.1839  0.0487  0.0544
 8398W        W28678   6.607  13.325   5.014  0.1566  0.0397 -0.1230
 8399W        W28679   3.995   0.735   3.922  0.0364 -0.0665  0.1304
 8400W        W28680  17.647   3.020  16.175 -0.0720 -0.0389 -0.0210
 8401W        W28681  15.221  17.132   1.149  0.1614  0.0804 -0.1967
 8402W        W28682  13.271   8.711  12.494  0.0033  0.3224 -0.0852
 8403W        W28683   9.624  10.930  13.009 -0.1769 -0.1338 -0.0980
 8404W        W28684   5.395   4.722   2.506 -0.0736 -0.0845 -0.0410
 8405W        W28685  16.639   1.616  15.779  0.1554 -0.0650 -0.0899
 8406W        W28686   5.648   5.462  11.301  0.0158  0.1614  0.0751
 8407W        W28687  14.153   9.673   1.527  0.1909  0.1406 -0.0167
 8408W        W28688   3.072   6.799  16.695 -0.0256  0.1081  0.1970
 8409W        W28689  15.329   9.410   5.028  0.0732  0.0536 -0.1927
 8410W        W28690   1.715  16.168   1.355  0.0045  0.3375  0.0709
 8411W        W28691   5.641   7.856  16.871  0.1093 -0.0815 -0.1156
 8412W        W28692  14.634  16.791  14.367  0.2828 -0.0214 -0.0382
 8413W        W28693   4.160   1.187   1.325  0.2022 -0.2287  0.2538
 8414W        W28694  11.122   0.395   4.871 -0.0383  0.1481  0.0743
 8415W        W28695   1.404  12.104   0.707  0.3695 -0.1616 -0.1384
 8416W        W28696  17.212  12.102  15.184  0.1092  0.1137  0.0415
 8417W        W28697   1.643  17.252   2.706  0.1724 -0.1499 -0.1525
 8418W        W28698  10.085  13.925   2.012 -0.0424  0.2841 -0.0099
 8419W        W28699  16.083  16.075   2.955  0.1369 -0.1681 -0.0405
 8420W        W28700   2.580  17.077   3.997  0.0140 -0.0535 -0.1096
 8421W        W28701  11.192   1.340   1.094 -0.0446 -0.1703 -0.1116
 8422W        W28702  13.255  13.108   2.302  0.0619 -0.0179  0.3856
 8423W        W28703  12.309  12.177   4.018 -0.1683  0.2390  0.2428
 8424W        W28704   9.453   7.513   4.146  0.2129  0.2514  0.3697
 8425W        W28705  13.768   8.504  15.335  0.1093 -0.0256  0.2673
 8426W        W28706  11.529  14.768  16.183  0.0914 -0.0290  0.0786
 8427W        W28707  12.446   7.595  12.890 -0.0342 -0.0228 -0.2519
 8428W        W28708   3.644   7.191  13.734  0.1276 -0.1335 -0.2667
 8429W        W28709   6.702   7.872  15.134  0.2089 -0.0363 -0.1935
 8430W        W28710   1.287   8.310   2.379 -0.1075  0.1285  0.0223
 8431W        W28711   4.135   8.706   5.440 -0.4000 -0.0922  0.1218
 8432W        W28712  16.998   1.016   4.161  0.0221 -0.1730 -0.0929
 8433W        W28713   2.445  16.672  14.264  0.0962  0.0300 -0.1612
 8434W        W28714  14.459   6.468   2.472 -0.1150 -0.0091  0.0038
 8435W        W28715   2.662   1.174   1.605 -0.2864  0.3498 -0.2403
 8436W        W28716  14.000   3.750  14.937 -0.2259 -0.0706  0.0321
 8437W        W28717   4.757   9.068  13.808 -0.1697 -0.0896  0.0662
 8438W        W28718   5.100  10.111   1.711  0.3067  0.0786  0.1488
 8439W        W28719   2.705   5.723   1.037  0.1779 -0.1532 -0.0498
 8440W        W28720   8.135  12.859  14.634  0.1100 -0.0543 -0.2252
 8441W        W28721  10.193   2.578   4.094  0.0856  0.2998 -0.0649
 8442W        W28722   1.573   6.380   2.187  0.3168 -0.3634  0.2580
 8443W        W28723  11.875   3.199   0.919 -0.1502 -0.0984 -0.2020
 8444W        W28724   9.642   1.141  15.554 -0.1261 -0.2936 -0.1283
 8445W        W28725   7.502   5.817   3.379  0.1594  0.0002 -0.0494
 8446W        W28726   8.817   2.046   4.992  0.0318 -0.0068  0.0516
 8447W        W28727   0.143   8.391  12.207 -0.0372  0.2130  0.1434
 8448W        W28728   3.352   2.597   1.658 -0.0438  0.0132 -0.0200
 8449W        W28729   1.618  13.528  13.254  0.0930  0.2320  0.0092
 8450W        W28730   4.995  16.374   0.133  0.0120 -0.0953  0.1601
 8451W        W28731   3.148   8.454   1.117 -0.0775  0.1276 -0.1558
 8452W        W28732   0.337  12.165   2.117  0.1681 -0.1906  0.0578
 8453W        W28733  17.156  13.096  14.628 -0.1305 -0.1045  0.1266
 8454W        W28734  13.426  12.884  15.764  0.0153  0.0551  0.1074
 8455W        W28735   7.348   6.754   0.123 -0.0291  0.2487  0.1842
 8456W        W28736  16.890  11.980   3.474  0.0375 -0.1884  0.1968
 8457W        W28737   3.662  15.806   4.936  0.0703  0.0857 -0.1851
 8458W        W28738   7.837  10.225   1.761  0.2687  0.0227 -0.1603
 8459W        W28739  14.263   3.268   3.712  0.0964 -0.0141  0.2704
 8460W        W28740   8.999  10.565   0.842 -0.0618  0.2320 -0.1116
 8461W        W28741   9.702   8.951   0.483  0.1056 -0.3142  0.1486
 8462W        W28742  17.522   7.407  15.102 -0.0413 -0.2256  0.1702
 8463W        W28743   5.164  15.908   4.411  0.0999 -0.1511  0.1610
 8464W        W28744  16.460  17.304  14.895  0.1410 -0.0828  0.0467
 8465W        W28745  13.939   9.552  15.093  0.1969 -0.0201  0.3161
 8466W        W28746  15.526   1.664  13.783  0.2674  0.0511 -0.4203
 8467W        W28747  12.869   8.345  14.319 -0.1523  0.1852  0.0902
 8468W        W28748   0.466   6.316  12.245 -0.0906  0.1855  0.1584
 8469W        W28749  14.608   5.678  12.361 -0.1184 -0.0715 -0.0297
 8470W        W28750  16.069  12.523  16.863 -0.0957  0.0604 -0.1948
 8471W        W28751  10.036  16.668   4.460 -0.0170  0.2860 -0.0989
 8472W        W28752   2.190   4.828  15.630 -0.0701 -0.0804  0.0509
 8473W        W28753  11.753  16.286   1.568 -0.0612 -0.0964  0.1534
 8474W        W28754   4.749   3.949   2.555 -0.0126  0.2761  0.0121
 8475W        W28755  11.060  11.653   4.693  0.0126 -0.3650 -0.0482
 8476W        W28756  10.653   0.219  14.812  0.0830  0.1468 -0.0523
 8477W        W28757   7.758  16.323   3.340 -0.0140 -0.2793 -0.1960
 8478W        W28758  10.598  13.858  14.486  0.1206  0.1245 -0.0413
 8479W        W28759  12.335  16.402   1.278 -0.1587 -0.0223 -0.2270
 8480W        W28760   5.253   0.416   1.022 -0.1260 -0.0926  0.0991
 8481W        W28761   2.468   9.438  14.565  0.0693 -0.1918  0.0756
 8482W        W28762   6.617   9.302  12.534  0.0735  0.0402  0.0207
 8483W        W28763   6.159  11.988  15.345  0.1697  0.2060 -0.2303
 8484W        W28764   6.851  16.541  15.307  0.2310  0.2361  0.0576
 8485W        W28765   8.686   3.830  14.564  0.1011  0.1623 -0.0382
 8486W        W28766   7.755  10.680   4.131 -0.0358  0.0055  0.1467
 8487W        W28767  11.592   9.142  12.190  0.1496 -0.3553 -0.0731
 8488W        W28768   2.637   9.129  12.079 -0.0103  0.1485 -0.0711
 8489W        W28769   9.569   4.598  15.591  0.0853 -0.2434 -0.3445
 8490W        W28770   5.806   4.586   2.137 -0.0565 -0.0959 -0.0382
 8491W        W28771   0.764  11.456  12.675  0.1191  0.0409  0.1156
 8492W        W28772   5.924  15.143   4.256 -0.1706  0.0600  0.1558
 8493W        W28773  17.682  10.284   2.187  0.0884  0.1098  0.1137
 8494W        W28774   9.972   5.019  13.146 -0.1023  0.0368  0.0188
 8495W        W28775   4.518   2.537   0.925  0.1186  0.4385 -0.0213
 8496W        W28776   1.911  11.691   2.386  0.0714  0.1815 -0.3369
 8497W        W28777   1.544  13.361   3.083 -0.0787 -0.1974 -0.0631
 8498W        W28778   5.320   6.954   1.802  0.0557  0.0752 -0.0488
 8499W        W28779  15.788  13.069  16.781  0.4718  0.1391 -0.2940
 8500W        W28780  11.976  12.719  12.329  0.0215  0.1015 -0.3170
 8501W        W28781   8.391  13.781  12.536 -0.1077  0.0273  0.0559
 8502W        W28782  16.368  16.517   4.918  0.1903 -0.0131  0.2995
 8503W        W28783  13.977   4.598  13.842  0.1665 -0.0989 -0.0359
 8504W        W28784  14.932   1.657  15.521  0.4028 -0.2393  0.2701
 8505W        W28785  13.134   4.634   0.556 -0.0836  0.0721 -0.1030
 8506W        W28786  14.489  13.154  16.518 -0.1761 -0.3017  0.1658
 8507W        W28787  14.005   4.420  12.747  0.3787 -0.0704 -0.4586
 8508W        W28788   2.326  11.160  15.695 -0.0913 -0.3250 -0.0818
 8509W        W28789   2.831  14.035  14.164  0.2939  0.1080  0.0054
 8510W        W28790   8.536   1.774  15.457  0.0334  0.4424  0.0017
 8511W        W28791  12.583  16.540   2.586  0.3046  0.0563 -0.1884
 8512W        W28792   7.535   7.268  13.980  0.0431  0.1981 -0.0937
 8513W        W28793   2.436  15.931  16.614  0.0584 -0.1471 -0.0006
 8514W        W28794  12.153   2.887  15.850  0.1002 -0.1906 -0.0581
 8515W        W28795   3.287  16.240  12.573  0.2330 -0.0958  0.0398
 8516W        W28796   8.660   3.947  16.140 -0.1482  0.1485 -0.1008
 8517W        W28797  12.457   7.286   4.056 -0.3021 -0.1418 -0.0453
 8518W        W28798   7.421   5.618  13.349 -0.2652 -0.0360 -0.0358
 8519W        W28799  14.905  13.003  15.026  0.0120  0.1799 -0.2266
 8520W        W28800  16.134  15.103  16.489  0.1026  0.0182  0.2723
 8521W        W28801  10.355  16.029   1.933 -0.2203  0.0335  0.0290
 8522W        W28802   2.678   8.422   3.289 -0.0614  0.0118 -0.1627
 8523W        W28803  10.846   3.510  12.311 -0.1423  0.1063 -0.0710
 8524W        W28804   5.220   6.090   1.678 -0.2028  0.1215 -0.0533
 8525W        W28805   3.832   1.031   1.779  0.0083 -0.2209  0.1707
 8526W        W28806   9.023  11.131   2.571 -0.1119 -0.4258  0.0018
 8527W        W28807  17.536  12.322   4.257 -0.2150 -0.1335 -0.2817
 8528W        W28808  11.742   1.877   0.257  0.1136  0.2389  0.0298
 8529W        W28809   7.259   0.712   2.217  0.2692  0.0994 -0.1282
 8530W        W28810   3.839   8.981  16.859 -0.1165  0.1977  0.1816
 8531W        W28811  17.510   5.221  12.532 -0.1300 -0.0303  0.0111
 8532W        W28812  10.267  13.518   3.234 -0.2558  0.2153  0.1998
 8533W        W28813   9.560   3.667  13.083 -0.0247  0.1724 -0.1019
 8534W        W28814  11.011  11.601  14.721  0.0616 -0.2142  0.1136
 8535W        W28815   4.218  14.368   0.132  0.0003  0.3647 -0.0452
 8536W        W28816   6.430  14.628   0.137 -0.2986 -0.0072 -0.4318
 8537W        W28817  12.457  10.207   4.127 -0.0007 -0.0084 -0.3044
 8538W        W28818  16.804  14.492   3.147 -0.1599 -0.2017  0.1466
 8539W        W28819  10.921  10.910  14.362  0.1305  0.1636 -0.1039
 8540W        W28820   8.395  10.185  14.362 -0.0319 -0.1738 -0.1887
 8541W        W28821  14.238   9.145   2.868 -0.1121  0.0455 -0.1168
 8542W        W28822   1.683  10.651  15.303 -0.1564  0.2743 -0.0843
 8543W        W28823   0.906  10.499  15.688  0.0619  0.0514 -0.0327
 8544W        W28824   0.616  15.384  16.633 -0.0339 -0.2213  0.2542
 8545W        W28825   1.178   8.855  16.660 -0.1039 -0.2062  0.1257
 8546W        W28826   1.455  10.508  15.736 -0.2205 -0.2016 -0.0370
 8547W        W28827  11.583   1.312   1.433  0.0490  0.1414  0.0224
 8548W        W28828   5.758   2.990   0.416 -0.0483  0.0465 -0.1597
 8549W        W28829  13.440  12.553   3.330  0.2643  0.2942  0.1636
 8550W        W28830   2.662  16.475  11.966  0.1558 -0.1216 -0.2548
 8551W        W28831  13.640   0.505  12.760  0.0817  0.0875 -0.2684
 8552W        W28832  12.172   4.483  13.855  0.1000 -0.0676 -0.0165
 8553W        W28833  14.460   0.222   4.302  0.2145  0.1439  0.1058
 8554W        W28834  13.316   5.915   0.844 -0.1350 -0.1980  0.2374
 8555W        W28835   0.377  12.640  12.384  0.2154  0.1415  0.2080
 8556W        W28836  15.508   9.774   4.147  0.2002 -0.2655  0.0886
 8557W        W28837   6.889   6.830  12.696  0.0362  0.0697  0.2463
 8558W        W28838   3.267  16.359   3.155 -0.1971 -0.0530  0.0169
 8559W        W28839   7.488  13.599   0.757  0.3922  0.1685  0.2388
 8560W        W28840  17.422   6.727  16.819 -0.2130 -0.0332 -0.3412
 8561W        W28841   9.259   2.559  15.232  0.4164 -0.1853  0.1239
 8562W        W28842  12.249   6.373  15.106  0.0730 -0.0129 -0.1197
 8563W        W28843   9.382   8.302  11.968 -0.0670 -0.0834  0.1166
 8564W        W28844   1.054  11.874  12.525 -0.1437  0.1865  0.1118
 8565W        W28845   6.409  10.946  14.449  0.2611  0.0542  0.1331
 8566W        W28846  14.255   5.298   1.163 -0.1478 -0.1855 -0.2859
 8567W        W28847   9.977  10.912   0.220 -0.0655 -0.2469  0.3621
 8568W        W28848   6.255   6.423  16.336 -0.2281  0.0256  0.0067
 8569W        W28849  16.456   5.693  15.932  0.2122  0.1800 -0.0869
 8570W        W28850   6.000  10.600  16.744  0.0761  0.0058 -0.2414
 8571W        W28851  14.403  10.624   4.152  0.1593 -0.2691  0.0598
 8572W        W28852  15.134   5.852   2.232 -0.0426  0.3538 -0.2790
 8573W        W28853  12.695   6.506   2.146  0.1561  0.2439 -0.0968
 8574W        W28854   5.681  14.022   0.402 -0.1913  0.0081  0.2519
 8575W        W28855  15.047  13.263  16.299 -0.0993  0.0347 -0.2535
 8576W        W28856  11.351  15.019  13.842  0.0051  0.1026 -0.1086
 8577W        W28857   6.374   5.271   4.240  0.0218 -0.4817  0.0401
 8578W        W28858  16.503  15.876   1.072  0.0551  0.1530 -0.1233
 8579W        W28859  15.582  11.034   1.762  0.0892  0.1065 -0.0341
 8580W        W28860   5.748   0.516   2.076 -0.0231 -0.0630 -0.1531
 8581W        W28861   6.758  16.898  13.455 -0.1103 -0.0602 -0.1105
 8582W        W28862  12.165   7.148  16.608  0.0916 -0.0649 -0.3493
 8583W        W28863   1.751  10.801   2.023 -0.2059 -0.0131 -0.1379
 8584W        W28864   9.924   6.661  14.683 -0.1462  0.0829 -0.0250
 8585W        W28865  14.621  16.103   4.887 -0.2473 -0.1453 -0.1155
 8586W        W28866  12.841   9.447   0.299 -0.0942  0.0943  0.0395
 8587W        W28867   5.048   3.701   0.969  0.1730 -0.4625 -0.1781
 8588W        W28868   8.512   8.340   1.060 -0.3865  0.1384 -0.2382
 8589W        W28869  16.217  15.975  15.057 -0.1238  0.0853  0.0594
 8590W        W28870  11.623  15.312   0.472 -0.1674 -0.0736  0.0617
 8591W        W28871   0.758   2.210  15.988 -0.0828 -0.0300 -0.1501
 8592W        W28872   4.934   7.140  14.707 -0.1359  0.0789  0.0235
 8593W        W28873  16.239  17.650   3.459 -0.1602  0.1029 -0.3437
 8594W        W28874   4.648   2.269  16.867  0.0661 -0.1634  0.0633
 8595W        W28875   3.763  15.540   0.711 -0.0387  0.1064 -0.2137
 8596W        W28876   6.748   7.113   3.318 -0.0412  0.1451  0.0452
 8597W        W28877   5.885  10.400  15.472  0.4035 -0.2074 -0.1761
 8598W        W28878   3.217  13.254   3.044 -0.1119 -0.2912 -0.0676
 8599W        W28879   1.993  15.075   2.291  0.2261 -0.0344 -0.0478
 8600W        W28880   9.765   9.514  13.681 -0.3440 -0.2630  0.0993
 8601W        W28881  13.413  12.408  13.944 -0.1567 -0.1028 -0.4686
 8602W        W28882   6.385   5.932  14.952 -0.0297 -0.1157 -0.1232
 8603W        W28883   2.867  11.261  14.546  0.1179  0.0366 -0.1443
 8604W        W28884   0.266  15.970   2.324 -0.0295 -0.2311 -0.2241
 8605W        W28885   6.739   0.125   1.204 -0.1072  0.0979 -0.1979
 8606W        W28886   1.859  12.730   2.490  0.1678 -0.1026 -0.0165
 8607W        W28887   6.850  14.880  12.919 -0.3510 -0.0822  0.1198
 8608W        W28888  15.034   4.638   1.087 -0.0797 -0.3798 -0.1610
 8609W        W28889  11.281   0.757  16.678  0.0390 -0.1007 -0.0847
 8610W        W28890  10.073  11.387  13.776  0.0248  0.0895 -0.1468
 8611W        W28891   8.580   7.639  14.090  0.1747 -0.2467  0.1904
 8612W        W28892   0.474   8.092   4.671  0.0273 -0.2357  0.1310
 8613W        W28893   9.017   2.583   0.207 -0.4018 -0.0435  0.0085
 8614W        W28894   5.091  12.468   4.564  0.2462  0.1261 -0.0648
 8615W        W28895  12.809  14.748  14.107  0.0444  0.0746  0.3288
 8616W        W28896   6.398  16.857   1.884 -0.0693  0.2132 -0.0250
 8617W        W28897   8.413   8.352  12.931  0.1183 -0.0485  0.0651
 8618W        W28898   8.458  13.525   4.210  0.0809  0.1216 -0.2311
 8619W        W28899   7.977   5.731  13.490 -0.0197  0.1163 -0.0075
 8620W        W28900  10.623  13.035   3.391  0.0047 -0.1830 -0.1557
 8621W        W28901  11.991  16.781   3.247 -0.1852 -0.1068 -0.0317
 8622W        W28902   6.234   8.402  12.434  0.0509 -0.1586 -0.1444
 8623W        W28903   7.783   8.854   2.991  0.0243  0.0812 -0.2654
 8624W        W28904   8.638   0.627   1.978 -0.0542  0.0522 -0.1273
 8625W        W28905   8.858   6.049  15.076  0.1286  0.2377 -0.1818
 8626W        W28906   9.695  17.344   0.411 -0.1958 -0.0089  0.1280
 8627W        W28907  13.541  13.234  13.373 -0.1388  0.0386  0.5273
 8628W        W28908   2.898  12.169  12.409  0.0462  0.1677  0.0952
 8629W        W28909   1.313  12.413   1.916 -0.1569 -0.2853 -0.1315
 8630W        W28910   8.259   5.150   3.940 -0.0936 -0.0768 -0.0888
 8631W        W28911   7.750  14.046  14.848 -0.1014  0.3294  0.2127
 8632W        W28912  17.576  11.698  16.456 -0.2408 -0.2413  0.0086
 8633W        W28913   0.032   4.196   0.117 -0.0756 -0.2688 -0.0562
 8634W        W28914   9.222  14.385  16.836 -0.1618 -0.2213 -0.1020
 8635W        W28915  10.472  17.554  12.880 -0.2575 -0.1004 -0.0103
 8636W        W28916   2.186   0.111   1.500  0.0927  0.0347 -0.1287
 8637W        W28917   9.106  10.031  15.852  0.0230  0.0850  0.1473
 8638W        W28918   8.455  16.806  12.582  0.1017 -0.0111 -0.0646
 8639W        W28919   6.378   7.347  15.959 -0.1597  0.5615 -0.1168
 8640W        W28920  13.007   6.803  13.175  0.1539 -0.2735 -0.1693
 8641W        W28921   5.971   6.999  16.568  0.3398 -0.1650 -0.0146
 8642W        W28922   9.767   4.708  16.324  0.1386  0.1259  0.0885
 8643W        W28923  16.100  17.270   4.236  0.1102 -0.2125  0.0151
 8644W        W28924   3.656   3.357   1.187 -0.0045 -0.0174 -0.1384
 8645W        W28925  10.159   7.823   0.539 -0.0910 -0.0154  0.1496
 8646W        W28926  14.929  11.811   4.441  0.0419 -0.1979  0.0389
 8647W        W28927   0.686  13.173   2.826 -0.2370 -0.2681 -0.3061
 8648W        W28928  15.599   0.306   2.071 -0.2622 -0.0414  0.2376
 8649W        W28929   6.581   8.249  13.537 -0.1481 -0.0617 -0.0152
 8650W        W28930  14.097   6.815  16.133  0.1158  0.0866  0.0791
 8651W        W28931   0.130   0.231  14.375  0.0151  0.2048  0.2697
 8652W        W28932  10.698   5.088  11.858  0.0365 -0.4162 -0.3269
 8653W        W28933  13.095   4.044  13.451 -0.4092 -0.2614  0.0082
 8654W        W28934   7.072   2.349  12.516 -0.1970  0.1750  0.0812
 8655W        W28935  11.431   4.027   0.457  0.0441  0.2648  0.0903
 8656W        W28936  14.197   5.405  16.716  0.0176  0.2192  0.0633
 8657W        W28937   3.904  16.720  16.038  0.0728 -0.2403 -0.0800
 8658W        W28938  11.895  15.443  12.919 -0.1195 -0.0662  0.0010
 8659W        W28939  10.615   4.128   1.964 -0.1591 -0.0133  0.2763
 8660W        W28940  13.208  14.337   3.788  0.1342 -0.4244  0.2809
 8661W        W28941  16.460   7.211   3.380  0.3248 -0.1809 -0.1291
 8662W        W28942   4.333   8.524   4.035 -0.1663  0.0314 -0.0460
 8663W        W28943   5.097   2.379   1.964  0.0799 -0.1123  0.4659
 8664W        W28944   3.278   4.495   0.685  0.0762  0.2370  0.0344
 8665W        W28945   9.933  13.212  15.910 -0.0733  0.1567 -0.0037
 8666W        W28946  10.459   8.040  16.661  0.0441  0.1199  0.0002
 8667W        W28947  16.874  16.829  13.442 -0.0402 -0.1948  0.2617
 8668W        W28948  12.610   2.328   2.226 -0.0813 -0.0871  0.0478
 8669W        W28949  15.272  11.871   6.337  0.0694  0.0953  0.0538
 8670W        W28950   6.528   9.186  12.031  0.4912  0.1106 -0.0700
 8671W        W28951   6.217   7.691   1.410  0.0755 -0.0150 -0.0711
 8672W        W28952  14.343  14.582   1.848 -0.1162 -0.1963  0.0732
 8673W        W28953   2.440  11.298  14.252 -0.0576 -0.4452  0.3295
 8674W        W28954   4.825   9.567  16.383 -0.0464  0.2385  0.0765
 8675W        W28955   4.751  15.512  12.530 -0.1134  0.0537  0.2036
 8676W        W28956   5.825  14.248  13.169 -0.1667  0.0080  0.0542
 8677W        W28957   7.096   0.292   2.049  0.1028 -0.0035  0.1986
 8678W        W28958  13.826  15.360  14.950  0.0063 -0.0910  0.2764
 8679W        W28959  14.216  15.112   1.614  0.0786 -0.1224 -0.0854
 8680W        W28960  16.990  15.140   4.568  0.2179  0.0220 -0.2211
 8681W        W28961  14.082   9.854  14.008  0.2579  0.2523 -0.2674
 8682W        W28962  16.775  10.346   1.824  0.0145  0.0732 -0.1201
 8683W        W28963  15.425   7.498  15.182  0.1136 -0.0245  0.2943
 8684W        W28964   7.754   1.376   2.944  0.0876 -0.0115  0.1679
 8685W        W28965   4.973  11.250  15.978 -0.1440  0.0097 -0.3021
 8686W        W28966   5.922  16.965   2.071  0.2190  0.1421 -0.0569
 8687W        W28967  13.589  12.397  12.888  0.0964 -0.0044 -0.1451
 8688W        W28968  13.967   3.663   2.275  0.2362 -0.3039  0.3404
 8689W        W28969   0.498  10.172  12.085  0.0724 -0.1867 -0.0778
 8690W        W28970  13.779  14.469  14.041  0.0625  0.1299 -0.1499
 8691W        W28971   4.203   4.279   2.457  0.0079 -0.0220 -0.2764
 8692W        W28972   1.411   5.761   5.786  0.1077  0.0366  0.1686
 8693W        W28973   9.269   2.742  12.799  0.1291 -0.1033 -0.2406
 8694W        W28974   2.115   8.019  14.778  0.2322 -0.3139  0.3712
 8695W        W28975   7.536  10.411  14.224  0.1867  0.0666 -0.2257
 8696W        W28976   0.974  10.064   0.094  0.1955 -0.1816  0.0842
 8697W        W28977   6.683   4.025  15.015  0.1308 -0.0955 -0.0248
 8698W        W28978   7.625   5.816  14.386 -0.2151  0.1292 -0.1589
 8699W        W28979   3.473  15.582  16.008  0.0446 -0.0552 -0.1494
 8700W        W28980  16.773   0.498   2.358  0.4203 -0.0407  0.2392
 8701W        W28981  12.209   2.541   2.769  0.0668 -0.0313  0.2398
 8702W        W28982   2.491   1.333  14.408  0.2944  0.0401  0.0527
 8703W        W28983  13.540  15.780   0.941  0.2144 -0.2027  0.1071
 8704W        W28984   2.381  11.474   4.852 -0.3245 -0.0387 -0.1229
 8705W        W28985   0.218   1.203   1.594 -0.0625  0.0036  0.4835
 8706W        W28986   0.372  16.701   0.844  0.2271  0.1722  0.2009
 8707W        W28987   1.368  16.823  11.341 -0.2388 -0.2323 -0.0057
 8708W        W28988   0.965   5.755   3.645 -0.0085  0.0297  0.0117
 8709W        W28989  11.533   2.931  12.539  0.1373  0.1933 -0.1287
 8710W        W28990  16.373  11.862   4.638 -0.1100  0.1155  0.1474
 8711W        W28991  12.698   1.386  16.427 -0.4908  0.2160  0.0586
 8712W        W28992  17.582   2.958  15.176  0.1905 -0.3048  0.1721
 8713W        W28993   4.314  17.233  14.095  0.1894  0.3091 -0.0839
 8714W        W28994   3.238   2.804  13.665  0.1053 -0.1894  0.3026
 8715W        W28995  15.645   5.159  14.856 -0.1734  0.1705  0.1097
 8716W        W28996  17.675  12.862  15.664 -0.0586  0.3117  0.1773
 8717W        W28997   0.970   9.274  13.367 -0.0933 -0.0328 -0.2283
 8718W        W28998  16.845  14.564   4.575  0.2171  0.0786 -0.3273
 8719W        W28999   5.418  12.532   3.395  0.2007 -0.1221 -0.0991
 8720W        W29000  16.707   7.538  13.887  0.1275 -0.1273  0.0639
 8721W        W29001  13.944   4.594  14.770  0.2309 -0.1796 -0.0441
 8722W        W29002   6.274   3.108  13.585  0.4619 -0.4190 -0.0056
 8723W        W29003  11.492   6.333  13.352  0.1089  0.2223 -0.2934
 8724W        W29004  13.063  16.584  14.608  0.2755 -0.0336  0.2423
 8725W        W29005  10.390  14.210  15.534 -0.0531 -0.2367  0.2107
 8726W        W29006  12.973   6.008  14.562  0.0420  0.3997 -0.1677
 8727W        W29007   2.043   5.231   4.269 -0.0232 -0.1725 -0.0585
 8728W        W29008   6.583  15.449  15.936 -0.1908  0.1560  0.2668
 8729W        W29009  17.163   3.967  13.397  0.1921 -0.0163 -0.1833
 8730W        W29010   1.947   8.932   2.332 -0.2269  0.1817  0.1076
 8731W        W29011   0.262   4.899   1.160  0.0462  0.2024 -0.1295
 8732W        W29012   6.387  10.116  16.053 -0.0165 -0.3225 -0.1082
 8733W        W29013  17.339   7.759  12.090  0.3941  0.1618 -0.1655
 8734W        W29014  12.359   2.517   5.765  0.1110  0.3434 -0.2614
 8735W        W29015   1.196   2.557   3.509 -0.3412  0.0812 -0.2939
 8736W        W29016  14.994   3.862  14.053 -0.1566  0.0077 -0.1014
 8737W        W29017   5.227   6.620  16.177 -0.0906  0.0585  0.1334
 8738W        W29018   7.801  12.346   1.172 -0.0499 -0.4100 -0.0124
 8739W        W29019   9.422  11.217  12.575  0.0743 -0.0138 -0.1045
 8740W        W29020   2.853   0.266  12.709 -0.2193 -0.1044 -0.1877
 8741W        W29021   1.088   9.109   0.656  0.1210 -0.0653  0.0606
 8742W        W29022  17.139   3.336  13.922  0.3172  0.0506  0.1279
 8743W        W29023  10.737  14.527   0.903 -0.0773  0.2534  0.3774
 8744W        W29024   4.493  15.700   3.940 -0.0433 -0.0482  0.0506
 8745W        W29025   2.952  11.865   2.344 -0.0747 -0.0917  0.1506
 8746W        W29026  17.667  17.216   3.557 -0.1056 -0.1049 -0.0810
 8747W        W29027   5.987  15.253   1.517 -0.2465 -0.1114 -0.0173
 8748W        W29028   4.437  17.160  13.004  0.0640 -0.1900  0.0839
 8749W        W29029  12.222   9.731  12.887 -0.1574  0.1015  0.0105
 8750W        W29030  10.542  13.118   4.604  0.2234  0.1282  0.1524
 8751W        W29031  12.074   2.324  14.357  0.0228 -0.0090 -0.0929
 8752W        W29032  16.727  14.659  14.117  0.1056 -0.0086  0.2464
 8753W        W29033  11.307   2.246   1.062  0.0211 -0.0742 -0.0498
 8754W        W29034  13.411   5.704   1.265  0.1954  0.0461 -0.0185
 8755W        W29035  12.216  14.541   2.235 -0.2309 -0.0159  0.3358
 8756W        W29036   3.857   6.634   4.492  0.2024  0.1468  0.0247
 8757W        W29037   0.747  13.176   1.300  0.0577 -0.0733 -0.0333
 8758W        W29038   4.024  15.407   4.037 -0.2026 -0.1133 -0.0347
 8759W        W29039   2.215  10.689  16.466 -0.2037  0.0403  0.0275
 8760W        W29040   4.036   5.687  16.602 -0.2202 -0.1261  0.1904
 8761W        W29041   9.046   9.974   2.985  0.2835 -0.0321 -0.3993
 8762W        W29042  15.518  17.454   1.443  0.0012 -0.1813 -0.2463
 8763W        W29043   0.508  12.417   0.890 -0.1484  0.3855  0.0150
 8764W        W29044   8.933   5.430   0.197  0.0140  0.1723  0.0929
 8765W        W29045  14.592  13.021   3.813  0.0635 -0.3975 -0.1801
 8766W        W29046  10.187  13.891  14.811 -0.0314 -0.1602 -0.0276
 8767W        W29047   3.815   6.770  12.923  0.2053  0.2268  0.0938
 8768W        W29048   4.132   9.893  13.642 -0.1451  0.0833  0.0925
 8769W        W29049   1.761  12.355  12.700  0.2065  0.1503 -0.0910
 8770W        W29050   5.277   3.935   3.613  0.0542 -0.1777  0.0774
 8771W        W29051   0.385  16.438  14.234 -0.1433  0.1769  0.1580
 8772W        W29052   5.280   2.517  11.976  0.1109 -0.1876  0.0574
 8773W        W29053  12.879  13.547  14.385 -0.1872  0.0411  0.0664
 8774W        W29054   3.326  10.311   2.271 -0.4388 -0.2274  0.1546
 8775W        W29055  12.242   1.925   6.464  0.1866  0.0364 -0.0840
 8776W        W29056   2.348  10.498  13.410  0.3262 -0.0633  0.0755
 8777W        W29057  17.146   0.747   2.593 -0.1913 -0.1950 -0.0943
 8778W        W29058   8.172  15.360   0.356  0.2111  0.0553 -0.0530
 8779W        W29059   3.699   9.889  13.980  0.3379  0.3012  0.0584
 8780W        W29060   9.123   2.320  13.373 -0.0784 -0.0884  0.0805
 8781W        W29061  15.187   1.267  14.744 -0.1332 -0.3151 -0.1646
 8782W        W29062  12.208  15.906  12.248 -0.2147 -0.1362 -0.1723
 8783W        W29063   3.805   7.041   4.264  0.1080 -0.2731  0.1026
 8784W        W29064  12.163  12.966  14.484 -0.0185 -0.1372  0.1354
 8785W        W29065   6.072   0.503   2.922 -0.0340  0.1259  0.0202
 8786W        W29066   2.081   9.430   2.601 -0.0997  0.1768  0.1551
 8787W        W29067   3.588   7.582  12.862  0.1276  0.0167  0.1487
 8788W        W29068  11.798  10.269   1.126  0.0107 -0.0336 -0.0671
 8789W        W29069   8.865   3.358   1.587  0.0237 -0.1036  0.2079
 8790W        W29070  16.475   6.666  13.268  0.1497  0.1430 -0.1080
 8791W        W29071   2.984   5.423   3.658 -0.3258 -0.0001  0.1816
 8792W        W29072   8.280   1.976  16.786  0.1247 -0.0124 -0.2776
 8793W        W29073  12.952  17.359  14.644  0.1650 -0.3967 -0.3253
 8794W        W29074   4.676   6.499  15.950  0.0970  0.1023 -0.1202
 8795W        W29075  17.266   7.380  15.566 -0.0640 -0.0222  0.0908
 8796W        W29076  13.622   1.337   1.023 -0.1618  0.3533  0.0064
 8797W        W29077   0.853   3.300  15.271  0.1907 -0.1689  0.3734
 8798W        W29078  11.588   3.541   4.925  0.1707 -0.1688 -0.1784
 8799W        W29079  13.683  11.384  16.862  0.2675 -0.2306  0.2195
 8800W        W29080   0.093  13.704   0.318  0.0434  0.6321 -0.1624
 8801W        W29081  14.000  11.886   4.475 -0.6061 -0.0227 -0.1928
 8802W        W29082  14.283   5.389  12.651 -0.1312  0.2798 -0.2231
 8803W        W29083  11.657   1.682  12.439  0.0959 -0.1394  0.0956
 8804W        W29084   2.052   6.868   2.953  0.0730  0.3837 -0.0971
 8805W        W29085  15.465   3.567   3.557  0.0276 -0.1079 -0.1656
 8806W        W29086   8.895   3.503   0.445  0.1811  0.1507 -0.3106
 8807W        W29087   4.318   8.784   0.554  0.2422 -0.2170  0.2112
 8808W        W29088  11.617   5.710  13.970 -0.0527  0.0550  0.2438
 8809W        W29089   3.760  15.736  15.044 -0.0187 -0.2413 -0.0081
 8810W        W29090   0.677   3.293  13.684  0.0370 -0.0149  0.1977
 8811W        W29091  11.214   5.963  13.067  0.0784  0.1606  0.3350
 8812W        W29092  16.343   7.685  16.850 -0.2609  0.2368  0.2656
 8813W        W29093   4.031  13.155  14.565  0.0042  0.0810  0.0632
 8814W        W29094  17.549  11.108   1.893  0.4023 -0.0237  0.2176
 8815W        W29095   8.473  13.142   1.200  0.2250 -0.0236  0.1813
 8816W        W29096   6.258   9.990  15.583  0.1392 -0.0860  0.1283
 8817W        W29097   0.411   4.514   0.108  0.2504  0.0059  0.0880
 8818W        W29098  16.436  15.250   0.479  0.2369  0.0937  0.0971
 8819W        W29099   7.311  13.884   4.785  0.2663 -0.1428 -0.1391
 8820W        W29100   0.252   4.282  13.822  0.3510  0.2754 -0.2880
 8821W        W29101   8.695  15.884   3.412  0.0728 -0.0327 -0.0359
 8822W        W29102   3.774   1.874   1.511 -0.2543  0.1801 -0.0368
 8823W        W29103  10.384  14.816  12.950 -0.0278  0.0388  0.1873
 8824W        W29104  12.038   6.705  10.715 -0.0226  0.0956  0.1958
 8825W        W29105   3.966   5.034  16.474 -0.1715  0.1979  0.3333
 8826W        W29106  14.799   9.571  13.949 -0.1467 -0.0248 -0.2122
 8827W        W29107  12.425  11.264  16.418  0.1554  0.1745  0.3795
 8828W        W29108  10.593  17.632  13.621 -0.0046 -0.2609 -0.1158
 8829W        W29109   9.822  12.632  15.489 -0.2752  0.1965 -0.1590
 8830W        W29110   7.102  11.275   1.612 -0.0622  0.0052 -0.4000
 8831W        W29111   1.140  17.681  15.870  0.1069 -0.1887 -0.0609
 8832W        W29112  17.457   5.383   3.880 -0.2931  0.1650 -0.1305
 8833W        W29113   9.540   6.538   3.072  0.2310  0.3829 -0.3743
 8834W        W29114   0.929   6.491   3.131 -0.2253  0.2252 -0.1982
 8835W        W29115  13.306   2.313   5.366 -0.2305  0.0905  0.4464
 8836W        W29116   5.227  16.059   3.436  0.1527  0.1459  0.1163
 8837W        W29117  16.347  16.839   4.026  0.1814  0.1300 -0.2755
 8838W        W29118  13.122   5.557   1.672 -0.2366 -0.1953  0.1609
 8839W        W29119   4.472   7.702  11.706 -0.2412  0.2201  0.0803
 8840W        W29120   6.678   1.598   3.244  0.1358  0.5105 -0.0326
 8841W        W29121   8.010   9.257   2.611 -0.0455 -0.3658  0.2159
 8842W        W29122   9.097   9.491  13.067 -0.1852 -0.1354  0.0519
 8843W        W29123  14.981   3.478   1.844 -0.0048  0.0998 -0.0762
 8844W        W29124   6.089  12.128   1.496  0.1975  0.2501  0.1377
 8845W        W29125  16.372  14.916  15.940 -0.0329 -0.0698 -0.1310
 8846W        W29126  12.667  11.733  12.027  0.2389 -0.0166  0.1756
 8847W        W29127  13.156   0.451  12.857  0.0567 -0.0992  0.1494
 8848W        W29128   5.133   9.074   0.292  0.0864  0.0506  0.2963
 8849W        W29129  15.342   7.770  13.167  0.1924 -0.0287  0.0958
 8850W        W29130  15.965   5.615   2.596 -0.2288  0.0154 -0.0957
 8851W        W29131  12.153  12.447   2.916  0.0905  0.1015  0.1223
 8852W        W29132   6.109  15.381   2.902 -0.3044 -0.0409  0.0040
 8853W        W29133   1.249   7.183  13.930 -0.2442 -0.1598 -0.0467
 8854W        W29134   4.010  17.262  12.716  0.2846 -0.0133  0.1968
 8855W        W29135  14.354   7.701   0.530 -0.1277  0.0195 -0.3087
 8856W        W29136  14.541  13.357   0.465 -0.1057 -0.0858 -0.1791
 8857W        W29137  13.405  14.838   3.651 -0.2048  0.0962 -0.0911
 8858W        W29138  17.742  10.073  16.344  0.2405  0.0313 -0.2252
 8859W        W29139   9.903   2.680   0.739  0.0921  0.2632 -0.0454
 8860W        W29140  10.625   3.878  15.542  0.0257  0.4584  0.1160
 8861W        W29141  14.828   1.588   1.919  0.0831 -0.0713 -0.0744
 8862W        W29142   9.572  13.401  16.593  0.0531 -0.1722 -0.1583
 8863W        W29143  17.085  11.870  15.654  0.0740  0.0403  0.1626
 8864W        W29144   9.851  16.660  14.290 -0.1064 -0.3159  0.3233
 8865W        W29145  15.910  12.274  10.644 -0.0731  0.0394 -0.0075
 8866W        W29146   6.528  11.631   0.384  0.0274  0.0217  0.1820
 8867W        W29147  17.527   3.381   0.259 -0.0769  0.1537  0.2959
 8868W        W29148  11.870   6.324   4.470  0.1956  0.0603  0.2159
 8869W        W29149  17.355  17.121   2.758  0.1210 -0.0233  0.0796
 8870W        W29150  11.353   0.618   4.504 -0.1942  0.0222  0.2038
 8871W        W29151  16.688   3.343   1.160 -0.0736  0.2587  0.0700
 8872W        W29152   2.369   9.663   0.198  0.1536 -0.2500  0.4447
 8873W        W29153  10.178   8.957   5.044  0.0803  0.1383  0.0971
 8874W        W29154   6.810   4.410  13.395  0.0651  0.0434 -0.1512
 8875W        W29155   6.190  16.221  12.569 -0.0078  0.1215 -0.0614
 8876W        W29156  13.152  12.074  15.276  0.2139 -0.1703 -0.1748
 8877W        W29157  12.498  12.559   0.107 -0.2100  0.0214  0.1249
 8878W        W29158   6.988   7.689  15.575  0.1497  0.1245 -0.0193
 8879W        W29159   0.112   8.458   2.197  0.1791 -0.0902 -0.1537
 8880W        W29160  14.756   8.081   4.396 -0.0406 -0.3455  0.0555
 8881W        W29161  13.039   6.830   2.640 -0.0976 -0.1673 -0.0499
 8882W        W29162   0.525   4.286   2.202  0.1553 -0.1330  0.1340
 8883W        W29163   1.568  15.390   2.509 -0.0926 -0.1104 -0.1102
 8884W        W29164   0.056  12.017  14.176 -0.0665  0.2019 -0.2316
 8885W        W29165   0.605   2.428   2.572 -0.0606 -0.0516 -0.4608
 8886W        W29166  16.793  17.316  16.101  0.0735  0.1801  0.0613
 8887W        W29167  14.889  11.518   4.838 -0.0676 -0.3123 -0.0835
 8888W        W29168   7.593   1.496   0.424  0.1288  0.0136  0.2511
 8889W        W29169   0.815   4.188   3.715  0.2215  0.0992  0.0803
 8890W        W29170  15.020  15.171  15.455  0.0729  0.0260  0.0067
 8891W        W29171   2.271   8.282   4.175  0.2045  0.0712 -0.1715
 8892W        W29172  17.597  11.659   1.676  0.1082  0.2493  0.0317
 8893W        W29173  11.476   8.458   1.025 -0.2077 -0.1988  0.2418
 8894W        W29174  12.580  12.682  14.676 -0.1794 -0.0557  0.1407
 8895W        W29175   1.821   1.462  14.885  0.3062  0.1844  0.1621
 8896W        W29176  16.910   6.435   2.090 -0.2288 -0.0292 -0.3577
 8897W        W29177   8.919   8.583  14.019 -0.0976 -0.0977  0.1900
 8898W        W29178  12.158   4.240   3.294 -0.1231 -0.0515 -0.0422
 8899W        W29179  14.687  14.290   1.701  0.1324 -0.0831  0.1375
 8900W        W29180   2.041  10.906  14.328 -0.1735 -0.1991 -0.0070
 8901W        W29181   4.737   2.119   1.215 -0.1007 -0.0681 -0.0785
 8902W        W29182   3.296  11.990   1.764  0.2139 -0.1537 -0.3224
 8903W        W29183  14.358   1.728   1.375  0.2808  0.1425  0.0696
 8904W        W29184  17.138   3.282  12.646  0.1373  0.0555  0.0244
 8905W        W29185  11.193   2.101  13.826 -0.1419  0.0532  0.0448
 8906W        W29186  11.637   5.585  15.403  0.1231 -0.1779 -0.2343
 8907W        W29187   5.627   7.097   1.313 -0.1020 -0.1840  0.1747
 8908W        W29188   4.749  15.888   0.797  0.0688  0.1545  0.0625
 8909W        W29189   0.258   9.515   3.424 -0.1815 -0.0400 -0.3534
 8910W        W29190   7.159   2.335   1.411 -0.0330 -0.0646 -0.0907
 8911W        W29191   5.882  16.692   1.163  0.1539  0.2018 -0.1225
 8912W        W29192   5.705  14.762   3.976 -0.1054  0.0358  0.3060
 8913W        W29193   6.042  15.168   5.055 -0.2472  0.0120 -0.1022
 8914W        W29194   0.809   6.384  15.325  0.0912 -0.0877  0.1130
 8915W        W29195   3.374   4.637  12.169  0.1596 -0.2152 -0.0407
 8916W        W29196   0.613  12.434  14.515  0.2992  0.3011  0.2925
 8917W        W29197   1.376   0.519  12.980 -0.0057  0.0825 -0.0235
 8918W        W29198   7.897   5.155   0.333 -0.0077  0.1535  0.0137
 8919W        W29199  11.417   1.171  16.294  0.1890 -0.1934 -0.1559
 8920W        W29200  13.087  15.393  12.566 -0.0997 -0.2965  0.0714
 8921W        W29201   7.873   9.089  12.295 -0.0561  0.0962 -0.3365
 8922W        W29202  17.667  11.752  15.341  0.0017  0.0421 -0.0795
 8923W        W29203   1.369   7.024  16.245 -0.1369 -0.2018  0.1479
 8924W        W29204  15.155   6.716  16.198  0.0135 -0.2180  0.0505
 8925W        W29205  11.361  13.935   4.584  0.1015 -0.1920 -0.3878
 8926W        W29206   5.932  16.633  16.536 -0.1380  0.0207  0.0672
 8927W        W29207  16.179   8.379  12.117  0.1671 -0.1814 -0.2247
 8928W        W29208   6.329   4.463   2.259  0.1162 -0.1253 -0.0996
 8929W        W29209  13.909  17.134   4.532 -0.1343  0.0418 -0.1449
 8930W        W29210  15.442  11.389  14.993  0.2394 -0.2373  0.0277
 8931W        W29211   7.762   5.138  14.895  0.0875 -0.1523 -0.0610
 8932W        W29212   4.100   3.069   1.148 -0.1050  0.1834  0.1008
 8933W        W29213   0.816  10.554  13.596  0.0214 -0.0369 -0.0319
 8934W        W29214  11.144   5.405  13.224 -0.3234  0.1942 -0.1815
 8935W        W29215  13.192   6.880  16.241 -0.0686  0.2358  0.1824
 8936W        W29216  11.848   5.998   0.866 -0.3461  0.3520 -0.0419
 8937W        W29217  10.280   0.512  14.959 -0.1917  0.4075  0.1169
 8938W        W29218   3.402  13.374   4.589 -0.0232 -0.1975  0.1459
 8939W        W29219  13.191  10.865   4.846  0.2254 -0.0761 -0.1060
 8940W        W29220   9.206  12.694   1.344  0.0874 -0.0655 -0.2898
 8941W        W29221  15.539   3.871  15.929 -0.0525  0.1028  0.0368
 8942W        W29222   0.765  15.692   3.055 -0.0214 -0.0469  0.1884
 8943W        W29223  11.951   7.724  16.422 -0.1497 -0.1065  0.0419
 8944W        W29224   6.455   0.767  15.587 -0.0242  0.0627 -0.2064
 8945W        W29225   7.308  16.482   3.564  0.3137  0.1075 -0.0514
 8946W        W29226   4.223   2.431  12.435 -0.0632  0.1231  0.0269
 8947W        W29227   3.817  15.600  14.001  0.1610 -0.1432 -0.0134
 8948W        W29228  12.515  17.073  13.489 -0.0162 -0.5233  0.0554
 8949W        W29229   4.765  11.121   4.381  0.3150  0.1418  0.0635
 8950W        W29230   9.022   9.532  12.488  0.3712 -0.0053  0.1823
 8951W        W29231  10.801   7.775   5.876  0.0161 -0.1966 -0.1158
 8952W        W29232   9.696   2.975  15.037  0.2932 -0.2092 -0.2946
 8953W        W29233   9.003  13.033   4.540 -0.2649 -0.3852  0.1855
 8954W        W29234  13.078   1.297   0.072  0.1291 -0.3577  0.2829
 8955W        W29235   7.737   6.438   4.155  0.0381  0.4551  0.0965
 8956W        W29236  11.217   4.055  14.979 -0.0689  0.1623 -0.2212
 8957W        W29237   3.947   0.235  12.117 -0.3477 -0.0863 -0.4433
 8958W        W29238   5.007  16.036  13.712 -0.0507 -0.3165 -0.1436
 8959W        W29239  13.556  16.210   1.757  0.1930 -0.1002  0.2055
 8960W        W29240  10.799  16.542   1.458  0.2056  0.1605 -0.1020
 8961W        W29241  11.036   3.357   0.661 -0.1070  0.1284  0.2335
 8962W        W29242   5.721   1.131   3.366 -0.2138  0.1112  0.0833
 8963W        W29243   8.941   4.829  11.460  0.1569  0.1770  0.2317
 8964W        W29244   1.226  11.683  14.959 -0.2846 -0.1193  0.0073
 8965W        W29245   4.721  12.751   1.597  0.2140  0.2179  0.0076
 8966W        W29246  12.965  13.218  16.323 -0.0462 -0.1198  0.0264
 8967W        W29247   3.095   5.457  12.940  0.0085 -0.0422  0.0365
 8968W        W29248  14.795   4.773  14.282 -0.1410  0.1012 -0.2127
 8969W        W29249  17.508   1.520  13.931 -0.0512  0.1647 -0.1479
 8970W        W29250  12.722   2.205   4.234  0.1271  0.2223  0.1852
 8971W        W29251  10.669  17.592  16.094 -0.0191 -0.0775  0.0680
 8972W        W29252  10.081   9.949  16.098  0.1772  0.1061 -0.1635
 8973W        W29253   3.632   3.277  15.068  0.0126  0.1979  0.1119
 8974W        W29254  14.972  13.681   5.690 -0.2801  0.1202  0.0092
 8975W        W29255   9.052  10.068   1.029  0.3389 -0.0777 -0.0858
 8976W        W29256  15.494  10.483  13.210 -0.1934 -0.3665 -0.2060
 8977W        W29257   7.935  16.926  16.222  0.0873 -0.2873 -0.0611
 8978W        W29258   4.072   9.209   3.895 -0.0530  0.1858  0.2009
 8979W        W29259  10.657   6.892  12.956 -0.3283  0.0897  0.0923
 8980W        W29260  15.138  10.411   2.805  0.0761  0.3591  0.1843
 8981W        W29261   8.402  10.767   1.300 -0.1535 -0.2349  0.0373
 8982W        W29262  13.159   8.652  16.182  0.1628  0.0591 -0.0270
 8983W        W29263   5.139  15.579   1.963  0.1879  0.4692 -0.1530
 8984W        W29264   5.132   9.912  12.813 -0.1122  0.2715  0.0821
 8985W        W29265   6.021   4.616   2.649 -0.2228 -0.0653  0.1450
 8986W        W29266   4.910   5.113  16.699 -0.1069 -0.2954 -0.1001
 8987W        W29267   6.869   1.488   3.661  0.3651 -0.0896  0.0520
 8988W        W29268   4.949  12.434  13.389  0.0973  0.0730 -0.0110
 8989W        W29269   3.019   2.098   5.266 -0.0295 -0.0803  0.2412
 8990W        W29270  16.114   4.333  16.077 -0.0731  0.0467 -0.1678
 8991W        W29271   1.685  12.721  14.296 -0.2596  0.0046 -0.1277
 8992W        W29272   1.312   0.770  13.661 -0.1954  0.0860 -0.5256
 8993W        W29273  14.181   8.610   2.411  0.2265  0.0494  0.1936
 8994W        W29274   8.029   0.318  15.832  0.0596 -0.1703  0.2800
 8995W        W29275  17.063  16.681   1.167  0.1984  0.0918  0.1152
 8996W        W29276  13.806  12.443   3.888 -0.1892  0.4254  0.1169
 8997W        W29277  12.668   0.840  12.198 -0.2367  0.1401 -0.2732
 8998W        W29278  11.414   7.196  13.001  0.3067  0.0508 -0.4744
 8999W        W29279   5.475   7.644   3.828  0.0994 -0.0982 -0.0328
 9000W        W29280   2.257   6.951  16.434 -0.2004 -0.1376  0.1351
 9001W        W29281  14.723  12.557  15.778  0.1260  0.1113 -0.0883
 9002W        W29282   8.281   7.332  15.067  0.2339  0.0484  0.0579
 9003W        W29283   7.972  11.041   2.024 -0.0904 -0.0544  0.0418
 9004W        W29284   6.701   3.930   1.528 -0.0491  0.0890 -0.3282
 9005W        W29285   4.205  12.509  15.079 -0.0923 -0.0636 -0.1195
 9006W        W29286   0.705   7.183  12.890  0.2477 -0.3087  0.0605
 9007W        W29287   6.496   4.708   0.988 -0.3641 -0.0386  0.0942
 9008W        W29288  10.571  16.727   4.341  0.0731  0.2999 -0.0778
 9009W        W29289   7.811   3.959   2.358 -0.0828 -0.1428  0.0945
 9010W        W29290  12.754   2.565  13.584 -0.0813  0.1090 -0.0381
 9011W        W29291  12.387  16.115  15.434  0.3140  0.3412 -0.1160
 9012W        W29292  16.348  12.646  13.441  0.1666 -0.0501  0.0221
 9013W        W29293  16.744   3.981  14.156  0.0271 -0.1427  0.0543
 9014W        W29294  13.641   5.186  16.051 -0.0582 -0.2780 -0.0675
 9015W        W29295   1.733   8.186  15.518 -0.1816 -0.0619  0.0061
 9016W        W29296  15.081   6.268   3.928 -0.1442  0.0395 -0.2696
 9017W        W29297   4.423   5.915  13.645 -0.2853 -0.1942  0.3917
 9018W        W29298   6.606   4.155   0.889 -0.3912  0.0967  0.1027
 9019W        W29299  13.892   1.397  15.233  0.2210  0.2152  0.1818
 9020W        W29300   1.761   0.152  16.447  0.1414  0.1680 -0.1960
 9021W        W29301   2.833  11.943   0.490 -0.2556  0.3410  0.0872
 9022W        W29302  16.899  10.518   2.818  0.1415 -0.0103  0.0478
 9023W        W29303   3.200   9.588   1.064 -0.1433  0.1770 -0.0466
 9024W        W29304  17.073   2.437   2.165 -0.0193  0.2865  0.0346
 9025W        W29305   5.855   3.342  14.708  0.0606 -0.0983  0.0409
 9026W        W29306   4.669  17.717  15.439 -0.1866 -0.1518  0.2084
 9027W        W29307  17.491   5.955  16.749 -0.4032 -0.0035  0.1973
 9028W        W29308  16.326   8.611  12.545  0.1915  0.0693  0.1893
 9029W        W29309  17.024   3.388   4.070 -0.1631  0.1672  0.1544
 9030W        W29310   0.469  12.216  13.320  0.0272  0.0404  0.1018
 9031W        W29311   7.854  11.527  13.243 -0.3225 -0.0568  0.2636
 9032W        W29312   2.649   0.185  15.723 -0.2597  0.1179  0.0411
 9033W        W29313   0.925  11.101  13.154  0.0536 -0.1230  0.0896
 9034W        W29314   0.467   4.768  13.655  0.0048  0.1538  0.0148
 9035W        W29315  11.891  15.086   1.539 -0.1224  0.1173 -0.2451
 9036W        W29316   9.081  17.292   1.347  0.0277  0.1153 -0.0265
 9037W        W29317   3.658   8.597  13.801  0.3753  0.3000 -0.1997
 9038W        W29318   8.332   0.081  16.785  0.1283 -0.0782  0.1323
 9039W        W29319  16.840  14.104   4.825 -0.1259  0.0277  0.1264
 9040W        W29320  12.928   9.733  16.259  0.0979  0.2979  0.2249
 9041W        W29321   0.828  16.473  13.698  0.0044  0.0217  0.0126
 9042W        W29322  14.878   7.627   4.031  0.4103 -0.1961  0.2376
 9043W        W29323  16.651  15.381  13.099  0.0766 -0.1974  0.3952
 9044W        W29324  17.600  13.548  13.835 -0.0674  0.1197 -0.1530
 9045W        W29325   7.184  12.810  15.937  0.2424  0.0087  0.1862
 9046W        W29326  15.572   2.073   4.861  0.0101  0.0684  0.2220
 9047W        W29327   7.997   0.178   2.980 -0.0120 -0.2076 -0.2273
 9048W        W29328   7.692  14.564   0.620  0.2219  0.4137  0.4350
 9049W        W29329   8.072  15.990  14.995  0.1100  0.1692  0.2367
 9050W        W29330  10.371  12.462  12.688 -0.0838  0.3095  0.2678
 9051W        W29331   6.519  10.575   0.604  0.1158 -0.1675 -0.2058
 9052W        W29332   0.352   6.142   1.893  0.0435 -0.1135  0.1891
 9053W        W29333  13.972  15.378   2.019  0.1625 -0.0421 -0.1054
 9054W        W29334  16.484   9.366  15.394  0.0293 -0.0232  0.1946
 9055W        W29335   8.902   6.529  12.239  0.1533 -0.2640 -0.1303
 9056W        W29336  15.142  12.867  16.007  0.3021  0.3006  0.0993
 9057W        W29337   2.029   8.506  16.216 -0.0445 -0.1227 -0.1839
 9058W        W29338   8.760  11.707  16.626 -0.0610  0.1218  0.0974
 9059W        W29339  14.427  17.709  14.864 -0.3029  0.2567 -0.1620
 9060W        W29340   6.238  13.538   5.390 -0.0055 -0.0886 -0.1860
 9061W        W29341   3.309  15.218   3.525 -0.0324 -0.0830 -0.0356
 9062W        W29342   8.400  12.072  15.180  0.0330 -0.0347  0.2420
 9063W        W29343   7.435   1.021  15.446 -0.1412  0.0085 -0.2479
 9064W        W29344  11.123   1.102  13.745  0.2647  0.1296  0.1146
 9065W        W29345   3.540   7.989   2.234  0.0363 -0.2553 -0.2022
 9066W        W29346  13.022  14.901  12.482  0.0150 -0.2867 -0.0176
 9067W        W29347   8.817  15.601   1.032  0.3034 -0.1570  0.2001
 9068W        W29348   1.933  14.576   1.598  0.0401  0.2327  0.1324
 9069W        W29349   5.496   0.354   0.473 -0.1189 -0.0396  0.1162
 9070W        W29350   1.975  15.733  15.283 -0.0425 -0.0622  0.2126
 9071W        W29351   4.928   0.923   4.182 -0.1595  0.0187 -0.2881
 9072W        W29352   4.552   5.312   3.426 -0.3227  0.2558  0.1533
 9073W        W29353  10.872   2.075  14.682 -0.1763 -0.0708  0.2121
 9074W        W29354  11.837   4.065  13.854  0.1406  0.1051 -0.2626
 9075W        W29355   6.700   2.975   2.304 -0.2447 -0.0242  0.2209
 9076W        W29356   1.958   2.860   3.074  0.5123  0.1291  0.3866
 9077W        W29357   0.854   5.106   2.057  0.1503  0.1048 -0.3262
 9078W        W29358   3.017   0.516  13.138  0.1888  0.1699 -0.1540
 9079W        W29359   8.844   9.041   0.605 -0.1138 -0.0739  0.1351
 9080W        W29360   4.450   5.847   3.458 -0.2330 -0.0168 -0.3054
 9081W        W29361  11.358   8.119  16.873  0.1295  0.1117  0.0802
 9082W        W29362  15.467   6.095  16.608  0.2742 -0.2733  0.2569
 9083W        W29363  15.730   5.477   1.019  0.1751  0.1389 -0.3237
 9084W        W29364   3.376   3.804   4.176  0.2781  0.0159  0.1689
 9085W        W29365   2.142   7.588   3.566 -0.0113 -0.1141  0.0376
 9086W        W29366  15.770   6.471   4.223  0.1212  0.2126  0.0697
 9087W        W29367   4.435   9.872  16.287  0.0396 -0.2117  0.2221
 9088W        W29368   5.451  10.226   0.693 -0.0501  0.0208 -0.0918
 9089W        W29369   4.770  15.054  12.793 -0.2429 -0.3110  0.0290
 9090W        W29370   9.970   5.441   1.516 -0.2562 -0.0401 -0.2189
 9091W        W29371  13.736  10.071  13.040  0.1039  0.3623  0.1990
 9092W        W29372  13.850  14.829   0.650  0.2428 -0.2047 -0.0302
 9093W        W29373   6.582   9.268   2.916 -0.1287  0.0638 -0.0208
 9094W        W29374   9.653  16.666  16.566  0.0692 -0.1720  0.0376
 9095W        W29375  14.012   6.198  15.444  0.1905  0.0132 -0.2263
 9096W        W29376   2.086  17.572   5.009  0.0266  0.2486 -0.0414
 9097W        W29377  11.275   9.890  15.555 -0.1883  0.1298 -0.0561
 9098W        W29378   7.545  10.361   4.473 -0.0051 -0.1426 -0.0530
 9099W        W29379  11.886   4.528  13.407 -0.1114 -0.1124  0.1062
 9100W        W29380   6.924   0.267  12.698 -0.2876  0.1834 -0.1156
 9101W        W29381   4.586   2.751  14.799  0.3355  0.1604  0.0692
 9102W        W29382   5.936  10.596  14.992 -0.3244 -0.2986 -0.1462
 9103W        W29383  11.155  17.308   0.329  0.1236 -0.1886 -0.1012
 9104W        W29384   4.935   9.668   4.434 -0.1483 -0.2847  0.2557
 9105W        W29385  11.322   7.816   2.161  0.1690  0.2827 -0.0943
 9106W        W29386   7.626   9.726  16.624 -0.1872 -0.0270 -0.1432
 9107W        W29387   7.341   2.615   1.769  0.0598 -0.2008  0.2076
 9108W        W29388   3.342   7.488   3.779 -0.0703  0.1187 -0.1923
 9109W        W29389  11.636   3.514  16.449 -0.1731 -0.2030  0.0984
 9110W        W29390  10.670  10.401  15.017 -0.0132 -0.3133 -0.2324
 9111W        W29391   0.889   1.747   1.837 -0.1442  0.1471 -0.0914
 9112W        W29392  15.208   8.143  12.866  0.0668 -0.0472 -0.0468
 9113W        W29393   5.268  16.467  13.927 -0.0666 -0.0583 -0.3835
 9114W        W29394   4.726  15.768  16.237  0.1274  0.1751 -0.4743
 9115W        W29395   5.975   8.116   0.479  0.2085  0.0190  0.0159
 9116W        W29396  10.618  13.911   2.920 -0.0741 -0.0208  0.1401
 9117W        W29397  16.596  15.270  15.055  0.0739 -0.0269  0.0283
 9118W        W29398  15.361  13.175  14.275  0.1166  0.1320  0.2731
 9119W        W29399   6.646  10.905  13.341  0.1635 -0.0902  0.1863
 9120W        W29400  15.324   4.345  15.884  0.0387 -0.2333  0.0844
 9121W        W29401  16.097  15.043   0.161 -0.3702 -0.0483  0.0615
 9122W        W29402  15.659   1.131  14.662 -0.2915 -0.2248 -0.0544
 9123W        W29403  12.586  10.119  14.396  0.0736 -0.0256 -0.1952
 9124W        W29404   1.057   8.967   4.907 -0.1816 -0.0392 -0.0787
 9125W        W29405  13.403   4.484  16.542 -0.0839  0.1031 -0.0688
 9126W        W29406  16.330   4.199  11.667 -0.0347  0.1204 -0.1285
 9127W        W29407   5.921   6.068  12.755 -0.0187 -0.0082 -0.1064
 9128W        W29408   5.472  12.832   4.410 -0.0814 -0.0247  0.1089
 9129W        W29409  15.037   7.282  13.236 -0.1344  0.2701  0.1299
 9130W        W29410  10.388   6.435  15.103 -0.2483 -0.0970  0.0335
 9131W        W29411   8.139  12.885  12.636  0.0677 -0.0691  0.2471
 9132W        W29412  16.882   2.417  16.431 -0.2294 -0.0352  0.0603
 9133W        W29413  13.362   2.707   6.644  0.2118 -0.0568  0.5655
 9134W        W29414  13.942  11.113   2.769  0.2941 -0.1949 -0.2422
 9135W        W29415   6.338  11.221  15.114 -0.1490  0.3669  0.0656
 9136W        W29416   1.910   1.229  13.645 -0.0689 -0.0756 -0.1248
 9137W        W29417  15.537  13.278   4.957  0.3196 -0.2972 -0.2996
 9138W        W29418   3.277  17.386   4.365 -0.3561 -0.1103 -0.0857
 9139W        W29419   5.091   4.279  11.162  0.1393  0.0557 -0.1068
 9140W        W29420   9.903   8.573  15.771  0.1146 -0.0406  0.0659
 9141W        W29421   1.981   0.916   2.810 -0.1358  0.2065  0.1721
 9142W        W29422   7.260   6.311   0.289 -0.1457 -0.2776 -0.2640
 9143W        W29423   9.398  15.477  15.410  0.1661 -0.0017  0.0283
 9144W        W29424   9.049  14.513   5.357  0.1354  0.0725 -0.1978
 9145W        W29425  13.212  17.486  11.402 -0.0424 -0.3490 -0.0585
 9146W        W29426   4.330  11.873   2.893  0.0430 -0.1528 -0.3090
 9147W        W29427   4.577  10.230  13.560 -0.0588  0.0617  0.0278
 9148W        W29428  12.524  15.459   0.251  0.1177  0.0534  0.0302
 9149W        W29429  16.435  15.948   4.796 -0.1795 -0.1855 -0.1657
 9150W        W29430   4.206   5.270  16.062  0.3138 -0.2227  0.0145
 9151W        W29431   5.397   0.604  13.972  0.0686 -0.2357 -0.0237
 9152W        W29432   1.530   2.927   3.351 -0.2018 -0.1944 -0.0902
 9153W        W29433   6.741  17.299   0.574  0.2978  0.0729 -0.0076
 9154W        W29434   1.054   9.748   4.752  0.0447 -0.2545 -0.3258
 9155W        W29435   7.010  13.484   1.673  0.0495  0.2586  0.0144
 9156W        W29436  14.021  15.369  15.914 -0.0813 -0.0134 -0.1156
 9157W        W29437  14.967  16.499   2.143  0.0431 -0.0386 -0.1547
 9158W        W29438  14.681  14.799  15.657 -0.0525  0.0075 -0.1371
 9159W        W29439   6.946  15.338   4.148 -0.5082 -0.4116 -0.0105
 9160W        W29440   8.007   3.656  13.645  0.1640  0.3242 -0.1286
 9161W        W29441   4.026   1.288  13.040 -0.0043 -0.0781 -0.0515
 9162W        W29442  17.594   8.769   0.412 -0.0621 -0.0790  0.0861
 9163W        W29443  12.945  10.399  15.760 -0.0254  0.1371  0.0034
 9164W        W29444  13.746  10.970  14.546 -0.0697 -0.1449  0.0225
 9165W        W29445  12.277   1.428   3.853  0.2487 -0.2360 -0.2913
 9166W        W29446  10.658  10.741   4.355  0.1137  0.3504 -0.0149
 9167W        W29447   5.806  12.391  11.778  0.4277 -0.0936  0.0406
 9168W        W29448  14.528  16.332   4.396  0.2127  0.0245  0.1236
 9169W        W29449  13.979   2.910  16.576  0.3343 -0.1308  0.1184
 9170W        W29450  12.561  12.829   3.191  0.0483 -0.0401  0.0046
 9171W        W29451   2.959   8.759  15.036 -0.1947  0.2015 -0.1753
 9172W        W29452   6.940  14.829   0.330  0.1348  0.2525 -0.0730
 9173W        W29453   4.382  12.838   4.366  0.4806 -0.1788  0.0529
 9174W        W29454   8.266   3.109  13.029 -0.3971 -0.1488 -0.0841
 9175W        W29455   3.015  16.607  15.025 -0.0092  0.3067  0.0637
 9176W        W29456   3.789   2.019   0.935  0.2300 -0.0777 -0.1925
 9177W        W29457  13.449  12.737   1.782  0.0270 -0.1066  0.2280
 9178W        W29458   2.297   0.974  12.673 -0.0580 -0.0749  0.2159
 9179W        W29459  13.863   6.718  13.512 -0.0352 -0.0100  0.0167
 9180W        W29460  15.864   8.029   1.966 -0.1790 -0.3448 -0.1534
 9181W        W29461  13.368  17.579  16.593  0.0041 -0.1083  0.1041
 9182W        W29462  11.866   8.449   0.699 -0.2897  0.1784 -0.0988
 9183W        W29463  16.895  16.999  14.492  0.3999  0.0979 -0.0966
 9184W        W29464   5.495  10.090  13.169  0.1865 -0.1191 -0.0479
 9185W        W29465  10.061   3.336  14.673 -0.0417  0.0249  0.0574
 9186W        W29466  10.761   3.324   2.660 -0.2476  0.4831 -0.1883
 9187W        W29467  11.548  13.893  15.824  0.0664 -0.1055  0.1075
 9188W        W29468   6.161   1.794   2.344  0.3241 -0.1143  0.4396
 9189W        W29469   5.424   4.409   3.954  0.2928 -0.1485 -0.2995
 9190W        W29470  12.941  13.959   4.069  0.0985 -0.0475  0.0851
 9191W        W29471   2.744   7.501   1.210  0.0834 -0.0565  0.0649
 9192W        W29472   6.187   2.167   1.359  0.0472 -0.0808  0.2085
 9193W        W29473  16.894   6.740   0.800 -0.0288 -0.1060 -0.0856
 9194W        W29474   6.527   5.543  13.990  0.0649  0.2083  0.3343
 9195W        W29475  10.019   3.752   1.189  0.3643 -0.2647 -0.0210
 9196W        W29476   6.467   0.057   0.700 -0.0552  0.0091 -0.1615
 9197W        W29477  12.859   9.833  12.897 -0.1795 -0.0607  0.0295
 9198W        W29478   2.382   4.310   4.021  0.0117  0.0456 -0.1966
 9199W        W29479   1.666  14.338  16.251  0.0078 -0.2212 -0.1652
 9200W        W29480   0.064  14.023  14.158  0.0430 -0.3367 -0.0937
 9201W        W29481   4.999  16.116  14.947 -0.3193 -0.0675 -0.2243
 9202W        W29482   2.990  10.077  12.256 -0.0983 -0.0169 -0.3140
 9203W        W29483  16.656  16.996   1.025 -0.0842 -0.1515 -0.2715
 9204W        W29484   3.612  15.048   0.209 -0.1443 -0.0375  0.1903
 9205W        W29485   9.842  14.859  14.909  0.0226  0.0931 -0.2912
 9206W        W29486  16.228   9.084  15.753  0.1733 -0.2137 -0.2298
 9207W        W29487   3.894   1.013  14.658  0.2484  0.1056 -0.0224
 9208W        W29488  15.396   1.113   1.569 -0.1691 -0.2545  0.3786
 9209W        W29489   6.559   2.675  14.020 -0.1148 -0.0043  0.3250
 9210W        W29490   1.023   7.728   3.322  0.0439 -0.2119 -0.0983
 9211W        W29491  13.869   6.598  14.275 -0.1279 -0.1528  0.1235
 9212W        W29492   2.256  17.565  13.376  0.0812  0.4455  0.1565
 9213W        W29493   9.923  17.685   3.215  0.1001  0.0153 -0.1790
 9214W        W29494  12.012   5.459  13.869  0.0540  0.0921 -0.0685
 9215W        W29495   1.803   0.522   2.140  0.3386 -0.0133 -0.0707
 9216W        W29496   6.931  10.633  12.974 -0.0247  0.1330  0.0679
 9217W        W29497  16.986  15.247  15.518 -0.3223 -0.1510  0.2962
 9218W        W29498  16.363  11.923  15.017 -0.2689 -0.1193 -0.1842
 9219W        W29499   8.837   3.969  12.037  0.2233  0.0370 -0.2491
 9220W        W29500  17.643  11.573  14.017  0.3162 -0.1093 -0.1777
 9221W        W29501   4.687   6.367  15.450  0.1141  0.0913 -0.0882
 9222W        W29502   3.366   4.609  14.434  0.0570 -0.0512  0.2069
 9223W        W29503   9.244   6.400   0.507 -0.1223  0.1346  0.2437
 9224W        W29504   7.745   6.758   4.587  0.0039 -0.1080 -0.0209
 9225W        W29505   6.409   0.932  13.159  0.0779 -0.4109 -0.0420
 9226W        W29506  13.753  15.964  16.799 -0.2547 -0.1921  0.0092
 9227W        W29507  17.510   8.661   1.773  0.0732  0.0794 -0.0308
 9228W        W29508   9.243   5.420   3.095 -0.2423  0.3491 -0.2810
 9229W        W29509  10.750  16.382   2.375 -0.1254  0.1254 -0.3215
 9230W        W29510  10.238   9.527  12.424  0.0181  0.3442  0.1649
 9231W        W29511   6.560   8.390   3.473 -0.0577  0.1759  0.2382
 9232W        W29512   8.118   7.355  14.053  0.0307  0.1384  0.1444
 9233W        W29513  12.921   2.519   3.260 -0.1801  0.1725 -0.1893
 9234W        W29514  10.329  15.614   1.553  0.1211  0.2316  0.0056
 9235W        W29515  10.464   9.141  12.746  0.2071  0.1895  0.0883
 9236W        W29516   5.741   7.550   0.692  0.2256 -0.1628  0.3413
 9237W        W29517   1.701   1.249   0.223 -0.1807  0.1231  0.0029
 9238W        W29518   0.662   2.287  14.222  0.1903  0.2164 -0.1574
 9239W        W29519   3.464  14.130   1.974  0.3880 -0.3783 -0.0405
 9240W        W29520   1.893  11.810   0.644 -0.0937 -0.0367  0.1541
 9241W        W29521  10.443   2.520  16.785 -0.1795  0.5272  0.1754
 9242W        W29522   5.085  11.052   3.820  0.2478  0.3134  0.1668
 9243W        W29523  12.236  12.257   1.760  0.0460 -0.0036 -0.0957
 9244W        W29524  15.014   6.872  16.658  0.1962 -0.1154 -0.3725
 9245W        W29525   4.508  15.206  13.582  0.0699 -0.2501 -0.0532
 9246W        W29526  10.958   3.131  13.169 -0.1520  0.0238  0.1414
 9247W        W29527  11.562   7.666  13.764  0.1141  0.0168  0.0741
 9248W        W29528  17.588  16.318  15.625  0.3601  0.0444  0.3034
 9249W        W29529   4.778  15.261  16.323 -0.0809  0.0731  0.0197
 9250W        W29530  16.056   1.754   2.155  0.3028 -0.0932 -0.0641
 9251W        W29531  14.484   6.862  15.811 -0.1877  0.2317 -0.2156
 9252W        W29532   0.965  16.171   3.092  0.2387 -0.0333  0.2154
 9253W        W29533   5.539   2.098  16.831  0.0711  0.3177 -0.0753
 9254W        W29534  11.791   0.624   4.232  0.2743  0.1475 -0.0880
 9255W        W29535  14.739   4.434  14.671  0.1559  0.0081 -0.0295
 9256W        W29536  13.503   4.168  16.058 -0.0049 -0.1276 -0.1224
 9257W        W29537  15.862   7.326   0.819  0.2370  0.2265  0.0030
 9258W        W29538   5.707   7.678  15.836 -0.0809  0.0285 -0.0728
 9259W        W29539   1.260  15.796  13.448  0.0274 -0.0608 -0.0702
 9260W        W29540   5.517   5.719  16.486  0.0431  0.1260  0.3147
 9261W        W29541   5.441  14.418   4.253 -0.0581  0.1686 -0.1596
 9262W        W29542  10.800   1.792  15.076  0.0843 -0.1778  0.0219
 9263W        W29543   7.384   0.132   2.894 -0.0123 -0.0081 -0.0216
 9264W        W29544   3.370   0.762  15.749  0.2242 -0.1647 -0.0804
 9265W        W29545  15.446   8.204   1.019  0.1546 -0.1355  0.1102
 9266W        W29546   0.206   3.619   0.501  0.0109 -0.1434  0.0882
 9267W        W29547  17.003   8.237   4.351  0.0999  0.3903  0.0694
 9268W        W29548   2.783   9.188   4.245 -0.1563  0.1069  0.0624
 9269W        W29549  13.997   1.356   4.030 -0.2304  0.1432 -0.0497
 9270W        W29550   0.216  15.493   2.126  0.2716  0.1065  0.0870
 9271W        W29551   5.784   8.419   2.167 -0.3088 -0.1347 -0.0145
 9272W        W29552   9.899   9.046  15.359 -0.0284  0.0295  0.0832
 9273W        W29553  10.465  13.638   4.648  0.1803 -0.0403  0.0264
 9274W        W29554  17.369  10.639   2.889  0.0896  0.2944  0.0925
 9275W        W29555   7.443  12.293  16.703  0.6094 -0.1126 -0.3303
 9276W        W29556   0.872  13.306  12.629  0.0808  0.1590  0.2991
 9277W        W29557   9.057  13.334  16.578 -0.3557  0.1359  0.0276
 9278W        W29558  17.477   4.477  15.081 -0.2256  0.2859  0.0790
 9279W        W29559   8.514   3.614   1.315 -0.0781 -0.1443 -0.1932
 9280W        W29560   2.805   0.538  16.556  0.0877 -0.0431  0.1417
 9281W        W29561   8.522   0.033  12.720 -0.0904 -0.1042 -0.3253
 9282W        W29562  16.936   9.724  14.841  0.2789 -0.0368 -0.1521
 9283W        W29563  10.178  17.340   2.955 -0.0077  0.0366 -0.1065
 9284W        W29564  10.681   5.383   0.561  0.0344 -0.2137 -0.2983
 9285W        W29565   6.190  11.933   2.032  0.1310 -0.1353  0.1690
 9286W        W29566   7.320   8.333   3.609 -0.0679  0.0638  0.0569
 9287W        W29567  13.391   4.891  11.646  0.0991 -0.0392  0.1079
 9288W        W29568   5.613  12.332   4.626  0.0452 -0.3179 -0.1811
 9289W        W29569  13.797   7.982  15.284  0.1316  0.0146 -0.0575
 9290W        W29570  12.483   6.898  14.848  0.0775  0.0187 -0.0427
 9291W        W29571   9.148  10.974  13.670 -0.0021  0.1481 -0.2586
 9292W        W29572  15.549   6.597   2.404 -0.0243  0.1468 -0.3539
 9293W        W29573  11.766  16.247  14.364  0.1760 -0.1678  0.0599
 9294W        W29574  16.247   5.644  12.225 -0.2409 -0.1092  0.0150
 9295W        W29575  12.563   6.030  15.300 -0.0317  0.1256  0.0083
 9296W        W29576  16.685  13.789  15.062  0.1503 -0.0908 -0.1546
 9297W        W29577   8.739   8.996   2.068 -0.1943  0.1237 -0.0709
 9298W        W29578   7.501   1.912  16.341  0.4373  0.2538 -0.1147
 9299W        W29579   3.761  15.479  14.530 -0.1712  0.0633  0.0768
 9300W        W29580  16.627  17.614   4.585  0.1979  0.0866 -0.1095
 9301W        W29581  10.107  14.806   2.842 -0.1641  0.0381  0.1202
 9302W        W29582   0.848  12.183   6.157 -0.2366  0.2299  0.0433
 9303W        W29583  16.829   7.177  13.498  0.0160  0.0226 -0.0139
 9304W        W29584   1.232  13.851  16.602 -0.2494 -0.1287  0.0295
 9305W        W29585   6.937   8.167   0.416  0.0724  0.0022  0.1766
 9306W        W29586  14.644   7.213   4.590  0.2530 -0.1008  0.0639
 9307W        W29587   1.320  14.807  16.340 -0.1044 -0.0245  0.1122
 9308W        W29588   3.329  10.707  15.723 -0.3127  0.0404 -0.2463
 9309W        W29589  15.051  16.077  15.584 -0.0966  0.0461  0.0334
 9310W        W29590  14.213  17.466  12.430  0.0448 -0.2155  0.0026
 9311W        W29591   5.102  16.045  11.943  0.0376 -0.0072  0.1830
 9312W        W29592   0.843  12.066  14.847 -0.0621  0.0251  0.1190
 9313W        W29593   3.636  10.698   2.079 -0.1645 -0.1403  0.0158
 9314W        W29594   3.947  16.649   0.954 -0.0366  0.2738  0.2906
 9315W        W29595   0.345  12.540  15.569 -0.1508  0.1594 -0.1696
 9316W        W29596   9.652   3.847   0.781  0.0732 -0.0773 -0.1594
 9317W        W29597  14.733   3.284  12.284 -0.3172  0.0887 -0.0447
 9318W        W29598   4.027  13.489  13.902 -0.2802 -0.2224  0.1401
 9319W        W29599   1.055   7.250   1.575  0.0955 -0.0222 -0.1748
 9320W        W29600   0.942   6.447   2.219  0.3054 -0.3225 -0.1555
 9321W        W29601  16.524   2.724   1.462 -0.1443  0.0901  0.1442
 9322W        W29602   9.942  12.601  12.881  0.3071  0.1659 -0.0795
 9323W        W29603  11.914   2.531  12.442  0.1654 -0.1183 -0.0637
 9324W        W29604  14.994  15.977  12.457 -0.0468 -0.1171 -0.1923
 9325W        W29605   5.566  10.651   2.416  0.3045 -0.1350 -0.1928
 9326W        W29606   0.872  10.396  14.059  0.2108 -0.0594 -0.2260
 9327W        W29607   4.103  17.698  13.963 -0.1763  0.1192  0.3052
 9328W        W29608   1.266   3.704  13.970  0.0036  0.0013  0.3006
 9329W        W29609   8.963  13.132  12.240  0.0423  0.2809 -0.0885
 9330W        W29610   2.861  12.049  13.881  0.0133  0.2810  0.5527
 9331W        W29611  15.461   5.298   1.406 -0.1667 -0.0266  0.1110
 9332W        W29612  14.159   3.764   2.940  0.0519  0.1801  0.1710
 9333W        W29613   3.584   4.716   3.027  0.0591 -0.2059  0.3226
 9334W        W29614   9.151  12.505   2.276  0.2043 -0.1184  0.0783
 9335W        W29615   7.569   6.971  14.491 -0.2417 -0.1370 -0.1317
 9336W        W29616   3.799  10.541  15.940  0.1073 -0.1939 -0.0016
 9337W        W29617   2.610   8.491  12.573 -0.3025 -0.2546  0.1786
 9338W        W29618  11.093   6.481  10.726  0.0229 -0.0023 -0.1517
 9339W        W29619  10.750   1.099  12.347 -0.0025 -0.3201 -0.2378
 9340W        W29620  12.308  16.200  14.450 -0.0518 -0.1615 -0.0485
 9341W        W29621   2.476  10.627  15.005  0.0354 -0.3563  0.1270
 9342W        W29622   7.991   2.234  12.500 -0.1662 -0.0275 -0.0009
 9343W        W29623   0.689  13.699  14.890 -0.0242 -0.2872 -0.1193
 9344W        W29624   5.691   9.898  15.481 -0.0315  0.4319  0.0179
 9345W        W29625   9.222   3.374   4.069 -0.2045  0.0917 -0.0576
 9346W        W29626  16.646  12.237   0.449 -0.1808  0.3084  0.1848
 9347W        W29627   3.786   6.171  12.571 -0.1734 -0.0600  0.3252
 9348W        W29628  13.954  10.981  16.671 -0.2663 -0.3034  0.2821
 9349W        W29629  14.675  11.694  16.389 -0.0534 -0.0656 -0.1383
 9350W        W29630   1.135   7.142   0.360  0.2858  0.2202  0.0461
 9351W        W29631   7.818  13.682  14.469  0.2104 -0.0733  0.0826
 9352W        W29632   6.319  10.683   4.228  0.1046  0.1400  0.0339
 9353W        W29633  10.497  12.938   2.903  0.0542 -0.2296  0.0923
 9354W        W29634   4.753   0.909  16.506 -0.2683  0.1715  0.1236
 9355W        W29635   5.638  10.506   0.165  0.0896  0.3230  0.1029
 9356W        W29636  14.115   6.822   2.457  0.1615 -0.0182  0.0248
 9357W        W29637  10.181   7.790   2.779 -0.0488 -0.2132  0.0692
 9358W        W29638  16.684   7.320  15.381  0.2194 -0.2418  0.0275
 9359W        W29639  16.011  14.836  13.529  0.1079 -0.1814  0.1184
 9360W        W29640  15.640  10.990   0.601  0.0654  0.1174  0.0578
 9361W        W29641   5.186  12.291   2.928  0.0579 -0.1258  0.0998
 9362W        W29642   1.250   5.998   2.170  0.0246 -0.1390  0.0036
 9363W        W29643   2.087  13.821  12.673 -0.0621  0.2489  0.0465
 9364W        W29644  11.586   8.269   2.056 -0.0532 -0.4773 -0.0768
 9365W        W29645   2.408  17.725  15.207 -0.1404 -0.3452  0.0651
 9366W        W29646   1.087  14.051   2.684 -0.1669  0.2406  0.0967
 9367W        W29647   7.794   8.265  12.386  0.1246 -0.0977 -0.1028
 9368W        W29648   9.390   7.809   0.045 -0.1441 -0.1090  0.1558
 9369W        W29649   1.242   8.263  15.379 -0.1454  0.2986  0.1574
 9370W        W29650   4.769  14.182  16.308  0.1738  0.1586  0.2413
 9371W        W29651  16.889  12.610   1.904 -0.1114  0.0102 -0.1553
 9372W        W29652  10.723  17.193  14.421  0.1294  0.3754  0.1419
 9373W        W29653  13.337  10.103  12.150  0.1540  0.1882  0.1364
 9374W        W29654   2.307   5.586   2.949 -0.2877 -0.0594 -0.1155
 9375W        W29655   0.406  10.422  15.435  0.2701 -0.0181  0.0510
 9376W        W29656   9.955   3.811  14.464 -0.0778 -0.2895  0.1158
 9377W        W29657  14.036   3.618   4.124 -0.1035  0.1177 -0.1910
 9378W        W29658  10.100   4.093   0.223  0.0989  0.0875  0.1727
 9379W        W29659   3.243  15.741  15.166 -0.3067  0.1484 -0.2487
 9380W        W29660  11.331  17.366  15.201  0.0352 -0.0739  0.0140
 9381W        W29661  11.764   5.725   2.621  0.0170 -0.1009 -0.2009
 9382W        W29662   7.550   9.503  13.289 -0.3281 -0.0247 -0.2130
 9383W        W29663  15.317  15.663  15.475 -0.0929 -0.1453 -0.1643
 9384W        W29664  15.917   7.621   0.364  0.3179  0.0383  0.4183
 9385W        W29665   5.015   7.128   0.821  0.1140  0.2546  0.1669
 9386W        W29666   7.752   9.562  14.678 -0.0004 -0.0795 -0.1033
 9387W        W29667  10.625   1.223   0.098  0.0790  0.1344  0.3018
 9388W        W29668   8.657   1.477   1.283  0.1055 -0.1507  0.0723
 9389W        W29669  17.318  14.381   1.818  0.0941  0.1111 -0.1106
 9390W        W29670   1.204   9.578   2.473 -0.1287 -0.1627 -0.1273
 9391W        W29671   1.189   3.567   2.298  0.1331  0.0150  0.0634
 9392W        W29672   0.088   6.678   3.558 -0.1619 -0.3467 -0.0154
 9393W        W29673   3.623  11.036  16.100 -0.0751  0.1255  0.0876
 9394W        W29674  10.638   0.914   2.718 -0.2726 -0.0071 -0.2201
 9395W        W29675  14.588   7.552  16.304 -0.0111  0.2018 -0.1979
 9396W        W29676   5.448   0.515  13.298 -0.1592 -0.1010  0.1425
 9397W        W29677   1.290  14.543   3.469 -0.2166  0.0133 -0.0219
 9398W        W29678   7.787   6.173  16.315  0.0765 -0.0984  0.2695
 9399W        W29679  15.152   7.399  12.331  0.1627 -0.0395 -0.3050
 9400W        W29680  12.270   4.678   4.345  0.0278  0.1523  0.0873
 9401W        W29681   5.863   8.958  15.465  0.0135 -0.0881 -0.0668
 9402W        W29682  15.762   0.966  16.565 -0.3897 -0.0808  0.2212
 9403W        W29683  14.244  10.432   3.237  0.2566 -0.0098 -0.1029
 9404W        W29684   5.028   2.561   1.096  0.0423 -0.1534  0.0981
 9405W        W29685   8.207   6.217   3.387  0.3488  0.3549  0.2472
 9406W        W29686   6.410  14.171   4.096  0.0922 -0.0752 -0.1223
 9407W        W29687  15.920   8.157  15.740  0.0648  0.1765  0.1075
 9408W        W29688  10.892   0.340   0.558  0.0509 -0.0509 -0.2428
 9409W        W29689  10.331   6.445  15.928 -0.1562 -0.0737  0.0868
 9410W        W29690   6.101  10.467   3.233  0.2014 -0.2746  0.0901
 9411W        W29691   5.223   8.177  16.664  0.2991  0.1549 -0.0078
 9412W        W29692   0.427  12.575  16.273 -0.1191 -0.2664 -0.2864
 9413W        W29693   2.822  14.414  14.790  0.2044  0.2293  0.1467
 9414W        W29694   2.051  14.666  15.431  0.0163 -0.0406  0.1132
 9415W        W29695   7.102   3.768   0.129  0.1223 -0.0163  0.3343
 9416W        W29696  14.325   1.355   3.562  0.1640  0.1531 -0.0752
 9417W        W29697  11.070  12.010   0.592 -0.1241 -0.1318 -0.0404
 9418W        W29698  16.454   5.256  13.141  0.2579 -0.1353  0.0807
 9419W        W29699  11.410  13.713   3.628  0.1237 -0.1091 -0.2394
 9420W        W29700  12.693  16.629  14.274 -0.2340  0.1443  0.1590
 9421W        W29701   7.759  10.256   0.206  0.1023 -0.1055 -0.0504
 9422W        W29702  11.529   0.843   2.317 -0.3071 -0.2026  0.0567
 9423W        W29703  15.990   2.124  14.650  0.0719  0.4028  0.1218
 9424W        W29704   0.283  16.805   1.538 -0.1500  0.2002  0.0193
 9425W        W29705  11.060  17.386   4.953  0.2097 -0.0587 -0.0178
 9426W        W29706  11.177   8.464  14.226  0.0913  0.0635 -0.1343
 9427W        W29707  14.462  11.753   1.773  0.2625 -0.1859 -0.1071
 9428W        W29708   6.565  12.244   0.201 -0.1501 -0.1462 -0.2208
 9429W        W29709   6.338  10.312   2.756 -0.2366  0.0246 -0.2513
 9430W        W29710  12.464   7.787   3.128  0.1992  0.0750  0.1617
 9431W        W29711  10.726   9.087  14.655 -0.1514 -0.1043 -0.1998
 9432W        W29712   7.770   0.818  14.431  0.1119  0.2293 -0.3065
 9433W        W29713   8.486  10.992   3.591 -0.1439  0.2029 -0.0788
 9434W        W29714  14.465  13.067  15.222  0.0898  0.0444  0.3109
 9435W        W29715  10.423  15.869   2.667 -0.0106  0.3056 -0.1541
 9436W        W29716   1.656  12.175   1.169  0.0380 -0.3680  0.1542
 9437W        W29717   2.343  14.713  12.186 -0.3170  0.1307  0.2419
 9438W        W29718   9.578  10.099   1.828 -0.1372 -0.1033  0.0779
 9439W        W29719   4.631  17.731   4.463  0.1517 -0.0349 -0.1251
 9440W        W29720   0.398  13.147   4.346 -0.0036  0.0718  0.1124
 9441W        W29721  12.869   4.448  14.531 -0.4785 -0.0478  0.0041
 9442W        W29722  11.592  11.911  12.343 -0.2682 -0.0303 -0.2023
 9443W        W29723   9.081   9.775  14.575  0.0232 -0.1136 -0.1524
 9444W        W29724   1.580  10.942   4.015  0.1289 -0.1663 -0.1433
 9445W        W29725  12.874  10.185  13.477  0.2012  0.2516  0.2109
 9446W        W29726   2.752   1.584  14.076 -0.1944 -0.2410 -0.2265
 9447W        W29727   1.910   5.968  16.086 -0.2184  0.2139 -0.2166
 9448W        W29728  15.504   8.299  12.434  0.2719  0.2992 -0.1590
 9449W        W29729  13.435   7.645   0.045 -0.1066  0.2432 -0.0952
 9450W        W29730   3.716   2.866  14.534  0.1148  0.0623 -0.1736
 9451W        W29731   9.608   5.059   2.253 -0.1874 -0.2092 -0.1024
 9452W        W29732   9.604   9.502  12.307 -0.0230  0.1732 -0.0559
 9453W        W29733  10.910   8.699  16.063 -0.4004 -0.3282  0.3225
 9454W        W29734   7.376  15.241   4.898  0.0013 -0.0307  0.2650
 9455W        W29735   1.571   9.054   1.899 -0.0040  0.0308  0.0922
 9456W        W29736   7.637  11.942  13.381 -0.1512 -0.2973  0.1438
 9457W        W29737  12.601   9.799   3.324 -0.3659  0.3917 -0.0911
 9458W        W29738   6.899  16.632   3.986 -0.0477  0.0064  0.0228
 9459W        W29739  12.013  15.820  14.547  0.0268 -0.1124 -0.3291
 9460W        W29740   6.190   5.592  15.775  0.0601 -0.0122 -0.0510
 9461W        W29741   9.387  12.457  15.071  0.0048 -0.0913 -0.0035
 9462W        W29742   9.825  10.690   1.353 -0.1969  0.2196 -0.0416
 9463W        W29743   2.052   0.376  15.083  0.0917 -0.0617 -0.3637
 9464W        W29744  17.625   1.665   4.966 -0.0214  0.0245  0.2312
 9465W        W29745  13.474   1.610   1.788  0.1666  0.1571 -0.0544
 9466W        W29746   5.295   7.884  14.892  0.0613 -0.1918  0.3887
 9467W        W29747   7.382  10.375  11.997  0.1077 -0.1503  0.0292
 9468W        W29748   6.544  10.084  12.929  0.1861  0.2696  0.0779
 9469W        W29749   8.097   1.120   5.263 -0.4437 -0.0262  0.2508
 9470W        W29750   2.779  11.503  16.622  0.0824 -0.0233 -0.1007
 9471W        W29751  16.103   1.118   2.194  0.1308 -0.0629 -0.1608
 9472W        W29752   9.141   6.898   2.251 -0.1352 -0.0355  0.2255
 9473W        W29753   5.445   2.077   2.742 -0.2496  0.0126  0.1400
 9474W        W29754  15.979   2.498  16.004  0.4633 -0.1519  0.2082
 9475W        W29755  17.043   8.484   3.246 -0.1660  0.0337 -0.1011
 9476W        W29756   1.786   3.382   0.350  0.0840 -0.2429  0.3296
 9477W        W29757   9.909   5.600   4.064 -0.0208 -0.3725  0.1475
 9478W        W29758   4.842   8.844  16.744  0.0865  0.0513  0.3376
 9479W        W29759   3.768  16.460  12.601 -0.0604 -0.3127 -0.2430
 9480W        W29760  15.909  17.672   4.460  0.0745  0.0073 -0.0332
 9481W        W29761  13.745   9.806  15.561  0.0213 -0.3630 -0.0333
 9482W        W29762  16.021   0.234   0.200  0.2594  0.1016 -0.0834
 9483W        W29763   6.439   2.229   2.749  0.3946  0.0506  0.1701
 9484W        W29764  13.252   2.334  14.452  0.0161  0.1737  0.0614
 9485W        W29765  13.371  11.223  15.355  0.1534 -0.2461 -0.0129
 9486W        W29766  10.298   5.907   0.282  0.0109  0.3911  0.0902
 9487W        W29767   4.937   9.104   1.336 -0.0592 -0.3809 -0.2367
 9488W        W29768   3.306  12.210  13.844 -0.0474  0.2582 -0.6302
 9489W        W29769  12.853   4.887  12.603  0.1928 -0.1505  0.5528
 9490W        W29770   9.554  12.308   4.263 -0.3169 -0.2504  0.2480
 9491W        W29771   9.928  15.149   3.930 -0.1913 -0.0579 -0.0007
 9492W        W29772   5.827   7.124  14.022  0.0691  0.0053 -0.3247
 9493W        W29773   4.359  16.949  14.882  0.3420  0.0626  0.0799
 9494W        W29774   0.173   1.845   3.054 -0.1961  0.0310  0.0026
 9495W        W29775   5.305  10.107  15.685 -0.0750 -0.1931 -0.0439
 9496W        W29776   3.636  14.651   0.995 -0.0202  0.0182 -0.0442
 9497W        W29777   0.350   7.883   1.799  0.0312 -0.0673  0.2114
 9498W        W29778  16.066   0.539  14.172  0.4268  0.2509 -0.2526
 9499W        W29779   9.118   6.594   3.318 -0.0212  0.2274  0.1748
 9500W        W29780  16.408   5.131   0.256  0.1265 -0.2611 -0.0561
 9501W        W29781   9.381   3.131  15.940 -0.1705 -0.1275 -0.1526
 9502W        W29782  15.911   7.643  13.887  0.4336  0.4701  0.3010
 9503W        W29783  14.846  12.809  16.516 -0.0028  0.0034 -0.1370
 9504W        W29784  11.871  17.226  13.154 -0.2568 -0.1439 -0.0645
 9505W        W29785   9.289   2.067   1.931  0.3181  0.2505  0.0642
 9506W        W29786  12.578   8.571  13.981 -0.0793 -0.1603  0.2957
 9507W        W29787   7.803   6.275  13.102 -0.0105  0.0621 -0.1216
 9508W        W29788  17.186  12.863  12.184  0.2173 -0.0918 -0.1881
 9509W        W29789   2.626  16.407  16.389 -0.2269  0.0027 -0.0113
 9510W        W29790  11.427  16.849   3.857 -0.1591 -0.3557  0.0059
 9511W        W29791  12.238  16.320   3.309 -0.0404  0.3422 -0.4111
 9512W        W29792   7.749  10.102   1.193 -0.0125 -0.0996 -0.2402
 9513W        W29793   7.854  15.239   4.203 -0.0585 -0.0662 -0.2326
 9514W        W29794   5.119  10.430   4.549  0.1263 -0.0763 -0.1528
 9515W        W29795  15.793  12.678   3.259 -0.1948  0.1649 -0.1835
 9516W        W29796  10.160   0.235  16.705  0.2098  0.2041  0.1330
 9517W        W29797   2.385  13.336   3.640  0.2012  0.0531 -0.0428
 9518W        W29798   5.148  14.242   4.662  0.1350 -0.0022 -0.2323
 9519W        W29799   0.090   0.013  14.910  0.3504  0.1216 -0.1115
 9520W        W29800   9.641   3.726  16.220  0.1897  0.1204 -0.1346
 9521W        W29801   2.116  16.592   0.419  0.0785 -0.1852 -0.0923
 9522W        W29802   0.632  14.793  13.933 -0.2559  0.1987  0.0706
 9523W        W29803   0.968   5.639  16.145 -0.1232 -0.2804 -0.1398
 9524W        W29804  10.728   3.692   2.270 -0.0469  0.3765  0.0734
 9525W        W29805   8.375   3.517  12.671 -0.4137  0.1482  0.1954
 9526W        W29806   4.566  14.646  13.381 -0.0394 -0.1156  0.0012
 9527W        W29807   7.335   8.773  16.878 -0.0348 -0.0167 -0.0199
 9528W        W29808   7.229   7.015  16.066  0.0905 -0.1487 -0.3223
 9529W        W29809  17.465   7.416   4.334  0.0646 -0.1692  0.1194
 9530W        W29810  11.684  11.586  13.954  0.0702  0.1872  0.1694
 9531W        W29811  13.607  15.131  13.657 -0.0055  0.2304 -0.0236
 9532W        W29812  10.568  11.414   1.978  0.0639 -0.0466 -0.0306
 9533W        W29813  14.769   2.848   0.144 -0.0368  0.0751 -0.0656
 9534W        W29814   2.737   6.388   3.082 -0.1429 -0.2777  0.1411
 9535W        W29815  10.589   4.360   1.515 -0.0911 -0.1197  0.1732
 9536W        W29816   2.804  14.629   4.087 -0.0752  0.2748 -0.1655
 9537W        W29817  11.431  14.005   1.716 -0.3354 -0.0757  0.1442
 9538W        W29818  11.536  17.667   2.334 -0.0234  0.2109  0.1384
 9539W        W29819   1.425   6.745   1.737 -0.0236 -0.2520 -0.0042
 9540W        W29820   2.254  15.577   3.133  0.4930  0.0798 -0.2284
 9541W        W29821  12.733  13.350   1.666 -0.0377 -0.0685  0.0966
 9542W        W29822   3.754   0.157   3.801  0.3188  0.0854 -0.0745
 9543W        W29823   5.069   7.124   2.435 -0.0702  0.2323  0.1464
 9544W        W29824  13.024   1.705   5.089 -0.1524 -0.2136  0.1210
 9545W        W29825  10.365   2.523  14.690  0.0716  0.0660  0.0757
 9546W        W29826  13.424   2.208   1.664  0.2367 -0.1212  0.0179
 9547W        W29827  17.031   4.416  12.359  0.1327  0.0028 -0.0839
 9548W        W29828  12.392   7.708   4.899  0.3488 -0.0412  0.3462
 9549W        W29829  13.903  10.243   1.861 -0.0657  0.1583 -0.0532
 9550W        W29830  16.072  13.244   4.734  0.1153 -0.0146  0.1241
 9551W        W29831  13.171   8.257  12.772 -0.1753  0.0399  0.0363
 9552W        W29832  16.874   0.875   0.048 -0.0349 -0.1320  0.1006
 9553W        W29833  12.339  15.051  14.007 -0.1526 -0.2000  0.4091
 9554W        W29834  15.833  17.405  13.817 -0.2547  0.0193  0.1109
 9555W        W29835  16.192   0.151  13.561 -0.3542 -0.2502 -0.1425
 9556W        W29836   6.689   0.001  15.853  0.1255 -0.2157 -0.0945
 9557W        W29837   8.725   0.770  15.437  0.0412  0.0069 -0.1981
 9558W        W29838   9.801   6.681   4.377 -0.0889 -0.0522  0.0689
 9559W        W29839  12.016  13.385  14.059  0.3662  0.0876  0.1366
 9560W        W29840  15.773   0.679  12.291 -0.1592  0.0635  0.0205
 9561W        W29841  13.061  12.898  15.424 -0.0720 -0.0097  0.2401
 9562W        W29842  12.626   6.293   1.434 -0.0247  0.1982 -0.1091
 9563W        W29843   7.307   4.469  14.399 -0.0812  0.0784 -0.1462
 9564W        W29844  13.938   7.199  13.021 -0.2211 -0.2442 -0.4150
 9565W        W29845  12.141  13.122   3.484 -0.1138 -0.0181 -0.1814
 9566W        W29846  15.977   7.753  12.847  0.0199  0.1134 -0.0565
 9567W        W29847   6.607  17.424   4.155 -0.2449 -0.0824 -0.1255
 9568W        W29848  17.378   6.058  13.483 -0.2438  0.0956  0.0312
 9569W        W29849  10.650   2.700  13.297  0.2631 -0.0270  0.0006
 9570W        W29850  12.083   7.845  15.790  0.0554 -0.1560  0.0786
 9571W        W29851  17.696   5.874   1.068 -0.0187  0.1814  0.1141
 9572W        W29852   5.990  11.588  15.006 -0.3743 -0.1637 -0.1597
 9573W        W29853   2.175   2.728  13.958  0.3587 -0.1565  0.3120
 9574W        W29854  12.752   1.122   3.880  0.1931  0.3865  0.0776
 9575W        W29855  11.304   5.459   1.695  0.1419 -0.1087  0.2292
 9576W        W29856  13.441   1.176   1.532 -0.2979 -0.0112  0.1812
 9577W        W29857   9.854   2.599  12.995  0.0643 -0.1539  0.2151
 9578W        W29858   0.248  10.868   4.954  0.0132 -0.0204 -0.0738
 9579W        W29859   9.615   9.450  13.212 -0.0479  0.0409  0.2879
 9580W        W29860   1.560  12.505   4.168 -0.0170  0.0606 -0.6380
 9581W        W29861   0.340  12.137   4.927  0.1297 -0.1804 -0.3055
 9582W        W29862  15.203   6.897  12.205  0.2418  0.0878 -0.0782
 9583W        W29863  10.402   3.473  12.586  0.0393  0.1376  0.1939
 9584W        W29864   3.987  13.608   0.433  0.0231 -0.2832  0.0790
 9585W        W29865  12.513   0.462   2.348  0.0878  0.1084 -0.2513
 9586W        W29866   3.361  14.741  14.094  0.0519  0.2143  0.1489
 9587W        W29867   4.637  10.704   4.644 -0.0241  0.1196 -0.0991
 9588W        W29868   2.288  12.630   0.062  0.1966  0.0312 -0.1093
 9589W        W29869  11.728   1.455   4.141  0.1992  0.0212 -0.1856
 9590W        W29870  10.484  10.860  16.489 -0.1357 -0.1246  0.1879
 9591W        W29871   2.097  14.522   2.287 -0.1494  0.0660 -0.1643
 9592W        W29872   5.589  11.328   4.079  0.0421 -0.1140 -0.0105
 9593W        W29873   7.808  17.169   3.037  0.1483  0.1126 -0.0271
 9594W        W29874   0.488   6.539  16.317  0.1462 -0.0220  0.1595
 9595W        W29875   8.750  11.649   0.840 -0.3517 -0.2784 -0.0597
 9596W        W29876   3.427   2.594   1.103 -0.2612  0.1764  0.2125
 9597W        W29877   1.747  10.178  15.552  0.0655  0.2428 -0.0461
 9598W        W29878  12.022   3.028   4.145 -0.2060 -0.1894 -0.2689
 9599W        W29879  14.562  17.059   0.581  0.1115  0.0542 -0.0702
 9600W        W29880  17.426  10.666   1.648  0.0103  0.0798 -0.3177
 9601W        W29881   2.368   6.771   1.684  0.0878 -0.0812 -0.0683
 9602W        W29882  12.015  15.609   0.667  0.1262  0.2317  0.1772
 9603W        W29883  16.353   8.354   0.683 -0.1484  0.2784 -0.0945
 9604W        W29884  16.213  16.759   1.292 -0.1517 -0.0900 -0.4176
 9605W        W29885   0.747  11.841   2.145  0.0942  0.0152  0.1772
 9606W        W29886   9.102   6.608  14.574  0.0444  0.2567 -0.0993
 9607W        W29887  11.082   7.402  15.132  0.3599 -0.0375  0.0475
 9608W        W29888   5.997   2.308  16.741  0.1067 -0.2191  0.0927
 9609W        W29889  12.193   1.337   3.350  0.0982  0.0314 -0.0255
 9610W        W29890  14.214  13.528  15.635  0.2139  0.1505  0.0508
 9611W        W29891   5.041   8.375   0.839  0.1330  0.0972 -0.1443
 9612W        W29892  16.841   2.733   4.006  0.2069 -0.4290 -0.1651
 9613W        W29893   5.786   8.475  14.238 -0.1632  0.2594 -0.0830
 9614W        W29894   2.536   4.600  16.480 -0.3133 -0.2205 -0.1930
 9615W        W29895  12.136   8.456  12.496  0.0106  0.0751  0.1351
 9616W        W29896  17.063  10.266   3.660  0.0963 -0.0559 -0.2956
 9617W        W29897  12.200  10.711   1.310  0.0415 -0.1530 -0.2263
 9618W        W29898  15.948   1.287   1.736  0.1466  0.0056  0.0644
 9619W        W29899  15.788   8.113   2.510 -0.1688  0.1031 -0.0201
 9620W        W29900   1.017   5.258  14.375  0.3349  0.0930  0.0335
 9621W        W29901   0.684   4.284  13.547  0.2403 -0.0100 -0.1893
 9622W        W29902  16.448  15.663  15.384  0.0068 -0.1669  0.1182
 9623W        W29903   2.954  10.965  11.737 -0.1417 -0.1930  0.1307
 9624W        W29904   1.110   7.816   0.151 -0.0460 -0.1764 -0.0287
 9625W        W29905   8.349   1.976   4.801  0.0146 -0.0789 -0.1299
 9626W        W29906   9.679  13.966  14.774 -0.0126  0.0110  0.0772
 9627W        W29907  17.153   7.969   2.532 -0.0957  0.1350  0.0483
 9628W        W29908   6.889  15.240   0.548  0.1026 -0.0670  0.1618
 9629W        W29909   3.272  11.797  12.130 -0.2606 -0.0415  0.0827
 9630W        W29910  10.207   4.274  13.523 -0.0614 -0.0854  0.1623
 9631W        W29911   7.699   8.685  12.116 -0.0455  0.0207  0.0200
 9632W        W29912   7.998   4.287   2.866  0.0083 -0.3028  0.3195
 9633W        W29913  16.527   7.817  16.026  0.0946  0.1202 -0.2445
 9634W        W29914  12.090   3.548  12.724 -0.0647  0.3930  0.1786
 9635W        W29915   0.519   7.058   3.796 -0.3022 -0.2503 -0.0970
 9636W        W29916  15.545  11.807  14.634 -0.2314 -0.0838 -0.2644
 9637W        W29917   4.704   2.194  13.669  0.2382 -0.3010  0.0640
 9638W        W29918   3.534  16.006   3.956 -0.0465  0.0983  0.1014
 9639W        W29919   3.129   3.655  14.461 -0.0780 -0.2468  0.2045
 9640W        W29920   5.565  11.734  12.684 -0.0829  0.0043 -0.0805
 9641W        W29921   7.003  11.642   1.274  0.0003 -0.2201  0.1948
 9642W        W29922  11.078   6.612  13.740 -0.2966 -0.1266 -0.1342
 9643W        W29923   3.747   6.671   2.547  0.1274 -0.1453  0.1071
 9644W        W29924  10.973   5.348   3.142 -0.2284  0.0514  0.0098
 9645W        W29925   7.535   5.715  13.840 -0.2351  0.1500 -0.0408
 9646W        W29926   9.414   8.851   3.908  0.3053 -0.0317 -0.0261
 9647W        W29927   6.212   1.406  13.353  0.2520  0.1087 -0.0755
 9648W        W29928   3.324  16.131   2.575 -0.4358 -0.1893  0.2124
 9649W        W29929   5.099   7.863  12.206  0.2768 -0.1637 -0.0195
 9650W        W29930  13.471  15.048   0.411  0.1946 -0.1605  0.2385
 9651W        W29931  16.314   4.282  15.150  0.3944 -0.1136 -0.1234
 9652W        W29932  14.639  12.969   0.732  0.0807 -0.1413  0.1178
 9653W        W29933  11.419  11.168   2.098 -0.1457  0.0383  0.1206
 9654W        W29934   6.015   0.611  13.152  0.0534  0.0923 -0.1095
 9655W        W29935  12.582  12.519   1.405 -0.0092  0.0154  0.0843
 9656W        W29936   7.159   3.433   1.266 -0.0013 -0.0493 -0.1650
 9657W        W29937   7.754   6.965  12.380 -0.0373 -0.0835 -0.1792
 9658W        W29938   5.529   9.076   4.783  0.0952 -0.1251  0.0879
 9659W        W29939   3.688  12.291  12.651  0.1938 -0.2364  0.1878
 9660W        W29940  15.537   7.103  16.758  0.1941  0.2144 -0.2044
 9661W        W29941  12.154  13.510  13.014 -0.1814 -0.0808  0.0156
 9662W        W29942  12.304  11.365  15.371  0.3435 -0.2097  0.1443
 9663W        W29943  15.460   8.896  16.105 -0.2587  0.0130  0.1188
 9664W        W29944  11.838   8.241   3.469  0.0355  0.1110 -0.2063
 9665W        W29945  12.623  12.944  13.728  0.1010 -0.2147 -0.0544
 9666W        W29946   1.310   9.875   3.438 -0.2138 -0.1066  0.0577
 9667W        W29947   5.946  17.148  13.076  0.0965  0.0615  0.3470
 9668W        W29948   0.977  12.648  14.935  0.0382 -0.1560  0.0620
 9669W        W29949   3.184  16.229  14.270  0.0219 -0.1767  0.2011
 9670W        W29950   9.625   8.930   1.458  0.0168  0.2238  0.0120
 9671W        W29951   7.313   7.976   3.211  0.2774 -0.0583 -0.2504
 9672W        W29952   4.245   4.705   0.272 -0.0999  0.2473 -0.0760
 9673W        W29953  10.790  17.099  16.385  0.0190  0.1178 -0.2128
 9674W        W29954   7.997  15.286  13.888 -0.3294  0.1540 -0.0290
 9675W        W29955   0.334   8.158  13.112  0.1290 -0.2798 -0.1566
 9676W        W29956  16.139  10.964   4.574 -0.0913  0.1559 -0.0672
 9677W        W29957   4.804  13.918   2.315 -0.0562 -0.0672 -0.0148
 9678W        W29958  11.486   6.733   1.923 -0.0300  0.0686 -0.3003
 9679W        W29959  14.600   1.403  15.914 -0.0379  0.0571 -0.2813
 9680W        W29960   6.852   2.023   3.024  0.1318 -0.1967  0.1338
 9681W        W29961   1.826   6.753   4.586 -0.0374  0.0741 -0.0038
 9682W        W29962   3.129   9.680  16.281  0.2124  0.2040 -0.0158
 9683W        W29963  16.101  14.456   1.062 -0.2783  0.0258  0.1130
 9684W        W29964   3.378  15.336   0.908  0.0833 -0.2331 -0.4279
 9685W        W29965  12.010  12.537  12.792  0.0804 -0.1964 -0.2224
 9686W        W29966   1.504  16.304   3.182  0.2117  0.1275  0.0659
 9687W        W29967  14.635  11.886  14.493  0.2001  0.2780 -0.2067
 9688W        W29968   3.092   0.538   0.453  0.0427 -0.1234 -0.0657
 9689W        W29969  12.170  17.134   1.817 -0.2178  0.0122  0.0729
 9690W        W29970  14.786   0.129   2.513 -0.3688  0.1933 -0.1162
 9691W        W29971   2.417  16.086   3.090 -0.0241  0.3164  0.0751
 9692W        W29972  12.843   4.388  16.761  0.0415  0.0872  0.1456
 9693W        W29973   2.712   6.799   4.910  0.0132 -0.1342  0.1814
 9694W        W29974  14.823  13.051  15.545  0.1617  0.5605 -0.2365
 9695W        W29975  15.821   0.846   3.419 -0.1108 -0.0830 -0.1314
 9696W        W29976  13.595  10.550   2.315  0.0381  0.0900 -0.4013
 9697W        W29977  12.227   8.129  13.938 -0.0796  0.1319 -0.1437
 9698W        W29978  16.467  16.162  15.485  0.1959  0.2823  0.1402
 9699W        W29979   7.141  11.925   2.539  0.1328 -0.0538 -0.0823
 9700W        W29980  12.693   9.156   3.572 -0.0402 -0.0804  0.1286
 9701W        W29981   8.565  12.816  13.611 -0.0001 -0.0482 -0.1281
 9702W        W29982  13.863   3.638  13.800  0.2023  0.0928 -0.0648
 9703W        W29983  13.786   8.898   2.609 -0.0833  0.2979 -0.1713
 9704W        W29984   2.148  16.730  12.461 -0.0979 -0.1952 -0.1366
 9705W        W29985  10.994  10.329  16.004 -0.0404  0.0805  0.1183
 9706W        W29986   0.105  13.352  16.787 -0.0268 -0.1289 -0.4471
 9707W        W29987  14.864  17.356  16.744  0.3691  0.0137  0.1106
 9708W        W29988   2.719   3.458  16.658 -0.1528  0.2254 -0.1206
 9709W        W29989   3.795  15.912   2.643  0.0625 -0.2948  0.0391
 9710W        W29990   9.993   0.152  13.638 -0.0935  0.2951  0.0236
 9711W        W29991  15.666  16.392   2.826  0.1938  0.1012 -0.0189
 9712W        W29992   5.187  16.330   0.663 -0.2379  0.0167  0.1038
 9713W        W29993   1.060  17.558  11.990  0.0670  0.1661 -0.0287
 9714W        W29994  13.993   4.948   0.877 -0.0294  0.0779  0.0173
 9715W        W29995  17.353   0.303   4.231  0.3174  0.3830 -0.2093
 9716W        W29996   1.958   5.592  14.452 -0.0444 -0.2045 -0.0115
 9717W        W29997   8.228  10.800  15.129  0.1614 -0.0222 -0.0867
 9718W        W29998   9.086  16.339  15.096  0.0811  0.1603 -0.0779
 9719W        W29999  17.430  12.188  16.198 -0.3522  0.0074 -0.1638
 9720W        W30000   1.300  11.674   3.550  0.0486  0.0274  0.3394
 9721W        W30001   1.295  12.270  14.996  0.0759  0.1994 -0.1016
 9722W        W30002  10.085  17.088  15.773 -0.2708  0.1058 -0.1244
 9723W        W30003  16.283   6.894  16.176  0.2626 -0.2222  0.2179
 9724W        W30004  13.933   6.316   2.498  0.0516  0.3352 -0.1501
 9725W        W30005  11.309   8.287   0.474 -0.1571  0.0055  0.0004
 9726W        W30006  13.443  10.411   0.942 -0.4894 -0.6595 -0.1102
 9727W        W30007   7.067  10.041   4.390  0.1688  0.1858 -0.0858
 9728W        W30008  11.117   7.097  13.451  0.0513 -0.1187 -0.1221
 9729W        W30009  17.466  13.053   0.437 -0.2187  0.2376  0.3347
 9730W        W30010  16.939   5.833   0.540  0.0194 -0.0359 -0.2236
 9731W        W30011  13.538   2.760   0.144 -0.1446  0.2926 -0.1483
 9732W        W30012  12.504  17.051   0.403 -0.2088  0.0103 -0.0079
 9733W        W30013   7.713  12.816  13.929 -0.0013 -0.0053 -0.2046
 9734W        W30014   6.755   8.249  14.867  0.0566  0.3748 -0.0162
 9735W        W30015   4.467   0.760  14.207  0.0505  0.3406  0.1444
 9736W        W30016   4.928  13.617   0.740 -0.3580 -0.1042  0.1248
 9737W        W30017   5.606  14.251  11.262 -0.0543 -0.1329 -0.4082
 9738W        W30018  12.378   4.644  16.665  0.0085 -0.0613  0.3435
 9739W        W30019   7.505  14.111  12.223  0.1457  0.0373  0.1098
 9740W        W30020   9.949   2.363  16.865  0.0516  0.0211  0.3131
 9741W        W30021  13.084   6.186   1.311 -0.2047  0.3345 -0.0799
 9742W        W30022   6.316  14.242   1.239  0.1468  0.0989 -0.2664
 9743W        W30023   9.269   8.852   0.737 -0.0490  0.3173  0.0937
 9744W        W30024  17.077  11.037  15.793 -0.1912  0.0169  0.1302
 9745W        W30025   0.445   2.648   3.359  0.0067  0.0242 -0.1876
 9746W        W30026   7.638   7.436   0.466  0.0401  0.1142 -0.1941
 9747W        W30027   5.020   1.622  15.414 -0.0762 -0.1134  0.0739
 9748W        W30028   1.087  17.173  13.916 -0.0101 -0.0080  0.0866
 9749W        W30029  11.188   5.782   1.366 -0.0963 -0.0816 -0.0935
 9750W        W30030   2.522  15.926  15.253  0.0983 -0.4240 -0.0537
 9751W        W30031   3.138  16.052  13.310  0.3253  0.3652 -0.0950
 9752W        W30032   2.920  12.214   0.938  0.0628  0.2780 -0.0598
 9753W        W30033  12.457   0.890   5.282  0.0916  0.0367  0.0333
 9754W        W30034  10.669   1.137   4.369 -0.0641 -0.1748  0.0148
 9755W        W30035   8.736   7.988  12.411 -0.2871 -0.4176 -0.0079
 9756W        W30036  16.695   3.981  13.614 -0.2219  0.1098 -0.2699
 9757W        W30037  15.875   9.492   4.390 -0.2430 -0.2113 -0.1493
 9758W        W30038  10.299  17.566  15.781  0.0613 -0.1091  0.0310
 9759W        W30039  16.379   1.085   4.076 -0.0948 -0.1758  0.1074
 9760W        W30040  10.682   6.403   3.208 -0.2445  0.2016  0.0615
 9761W        W30041   6.390   2.878   3.177  0.0307 -0.0484 -0.0026
 9762W        W30042  10.693   7.104   0.661 -0.3549  0.2269  0.0204
 9763W        W30043   6.274   5.548   1.951  0.0537 -0.0818  0.0234
 9764W        W30044   6.445   2.890  15.935  0.3726  0.1225  0.0166
 9765W        W30045   1.479  11.626   0.426 -0.2358 -0.0425 -0.0458
 9766W        W30046  11.826  12.960  13.057  0.1819 -0.1197 -0.0464
 9767W        W30047   9.841   2.332  15.931 -0.0405  0.2223  0.0698
 9768W        W30048  16.159  14.440  14.104 -0.1254 -0.0232  0.0879
 9769W        W30049  17.502   2.957  14.658 -0.1423  0.0667 -0.1737
 9770W        W30050   8.827  14.151  12.776  0.1441 -0.0300 -0.1424
 9771W        W30051  10.041   0.670   2.486  0.3011  0.1937  0.0517
 9772W        W30052   7.623   3.921  15.110 -0.0431 -0.1378 -0.2065
 9773W        W30053   5.258   1.962   3.255  0.0335  0.0876 -0.0171
 9774W        W30054   5.860  14.174   4.198 -0.0478  0.1478  0.0112
 9775W        W30055   0.698   3.890  13.209  0.2318 -0.0762  0.1445
 9776W        W30056   6.612  13.174  14.355  0.0043  0.0956 -0.1179
 9777W        W30057   9.323  14.708   4.479  0.0032 -0.0137  0.1490
 9778W        W30058   6.410   8.096   1.068 -0.2219  0.1272 -0.0325
 9779W        W30059   1.208   2.128   3.252 -0.1040  0.3000 -0.1882
 9780W        W30060   9.453   4.803   1.394 -0.1912  0.3916  0.1162
 9781W        W30061   9.993   6.095  13.273  0.1105 -0.0242  0.0466
 9782W        W30062   0.409  14.479   0.085 -0.0386  0.0393 -0.3626
 9783W        W30063  17.571   4.027  13.736 -0.3734  0.2670 -0.2559
 9784W        W30064  13.986  12.364   2.546  0.0330 -0.0474  0.1383
 9785W        W30065  12.607   3.030  14.702 -0.0203 -0.1470 -0.1912
 9786W        W30066   9.876  10.332  15.811 -0.1984  0.1136  0.0529
 9787W        W30067   2.415  16.398   0.056 -0.0069 -0.0299 -0.0317
 9788W        W30068  12.497  11.874   0.800 -0.2506  0.1343  0.0146
 9789W        W30069  13.560  14.426  14.465 -0.0704 -0.0508 -0.0307
 9790W        W30070   8.645  10.296  13.973 -0.1086  0.1986 -0.1506
 9791W        W30071  12.616  13.421  12.874 -0.2034 -0.1012 -0.0116
 9792W        W30072  10.120  11.080  13.328 -0.1372  0.3266  0.1796
 9793W        W30073   6.764   9.604   2.374 -0.0013  0.0845  0.0990
 9794W        W30074   0.614  10.433   3.177 -0.0546  0.3314  0.1892
 9795W        W30075  16.191  11.645   0.669 -0.0668 -0.1528 -0.2616
 9796W        W30076   9.336   1.112  13.668  0.1079  0.0393  0.2241
 9797W        W30077   9.439   3.888  14.312  0.1854  0.1439  0.1635
 9798W        W30078   7.234  15.510  15.159 -0.1020 -0.2909  0.1329
 9799W        W30079   7.736  16.563   4.362  0.0481 -0.2710 -0.0327
 9800W        W30080  10.698  17.113  13.671 -0.1749  0.1492  0.2285
 9801W        W30081   8.990  16.896  13.818  0.0954  0.1554 -0.1887
 9802W        W30082  14.432   9.317   0.756 -0.0961  0.0296  0.1463
 9803W        W30083   5.917  10.358   4.165  0.0147  0.2244 -0.0109
 9804W        W30084   9.239   4.639  14.732  0.1046 -0.2500 -0.0282
 9805W        W30085   7.818  17.228   1.797 -0.2344  0.0097  0.0043
 9806W        W30086   6.020  17.287   3.083 -0.0132 -0.2230  0.2435
 9807W        W30087   2.318   4.944   1.733 -0.1487  0.0370 -0.0591
 9808W        W30088  15.145   5.724  15.698  0.5176  0.1283  0.0842
 9809W        W30089   5.609  12.156  12.308  0.1270  0.4325 -0.1590
 9810W        W30090   5.982   3.496   3.765 -0.0216  0.0282 -0.2367
 9811W        W30091   8.785  17.627   2.646 -0.0530 -0.0168  0.2592
 9812W        W30092   0.173   5.410  13.642 -0.1132  0.0202 -0.0422
 9813W        W30093   6.649   0.142  14.113  0.3205 -0.0271  0.0782
 9814W        W30094   9.641   9.883  15.801 -0.0524 -0.0326 -0.0454
 9815W        W30095   6.043   2.274   2.434 -0.1883  0.2074 -0.1777
 9816W        W30096  13.907  13.188  15.399 -0.0654 -0.0226 -0.1290
 9817W        W30097  14.492   2.206   0.807  0.1343 -0.0451 -0.1839
 9818W        W30098   6.305   6.382   1.385  0.0433  0.2039 -0.0646
 9819W        W30099   9.229   6.150  13.100 -0.0458 -0.2655 -0.0720
 9820W        W30100  12.973   9.058  12.760  0.0610 -0.0457  0.0519
 9821W        W30101  14.119  16.709   2.654  0.0804  0.4783 -0.1358
 9822W        W30102  17.226   4.710  15.425  0.0779  0.2917 -0.1084
 9823W        W30103  17.664  16.947   0.706 -0.1749  0.3643 -0.2083
 9824W        W30104   3.010  17.329   0.289  0.1011 -0.1988 -0.1954
 9825W        W30105  15.370  11.522  12.292 -0.1334  0.2530  0.0804
 9826W        W30106   5.611   7.333  12.759  0.2350 -0.1766 -0.2613
 9827W        W30107  17.441   5.818   4.676  0.1802 -0.1069 -0.4524
 9828W        W30108  16.738   0.800  13.018 -0.0304  0.0571  0.3982
 9829W        W30109  17.382  17.171  16.573  0.0670 -0.0922 -0.0780
 9830W        W30110   6.883   1.987   0.594 -0.2078 -0.0630 -0.3056
 9831W        W30111   3.383   8.025   1.436 -0.0575  0.2624 -0.1740
 9832W        W30112  15.513   7.259   0.404 -0.1073 -0.4096 -0.1621
 9833W        W30113   6.719  12.033   1.371 -0.2539  0.0203  0.0372
 9834W        W30114  13.832   9.342   2.241  0.0471 -0.2708  0.0563
 9835W        W30115   9.229   1.043   5.087  0.1009  0.3511  0.4801
 9836W        W30116  16.233   0.083   2.334  0.0072  0.1767 -0.0806
 9837W        W30117  10.146   6.414  11.809 -0.1172 -0.1469  0.1839
 9838W        W30118   8.468   3.003  12.568 -0.0653 -0.0890 -0.1319
 9839W        W30119  12.107   8.693   0.336  0.0376 -0.0821 -0.1023
 9840W        W30120   1.053  10.926  15.931  0.4351  0.1139 -0.0516
 9841W        W30121  15.331   0.115  12.887 -0.2963 -0.2509  0.2243
 9842W        W30122  12.332  15.091  15.192  0.2278 -0.0232 -0.0154
 9843W        W30123  11.571   5.954   3.622  0.0731  0.1883 -0.1002
 9844W        W30124   9.855   5.283   0.712 -0.0361  0.1740  0.4540
 9845W        W30125   7.966   7.787   4.333 -0.4179 -0.0305  0.1335
 9846W        W30126   7.104   0.200   4.892  0.5085  0.1846  0.0600
 9847W        W30127   4.141   4.270  12.608  0.1089  0.1009  0.1822
 9848W        W30128  11.352  12.856  12.172  0.2891  0.1881 -0.1295
 9849W        W30129  17.076  12.832  12.943  0.1187 -0.0414  0.3978
 9850W        W30130  13.981   0.572  16.296  0.0623  0.0466 -0.1379
 9851W        W30131  11.544   5.199  14.022  0.1263  0.1250  0.0966
 9852W        W30132  15.147   3.783   2.903  0.1530  0.0936  0.4606
 9853W        W30133   6.721  12.650  14.227 -0.0375  0.0861 -0.1179
 9854W        W30134   6.132   3.160   2.809 -0.2761  0.2195  0.1552
 9855W        W30135  15.208   2.563  15.663 -0.0791  0.2332 -0.1411
 9856W        W30136  17.448   9.351   2.213  0.6641 -0.1954 -0.0978
 9857W        W30137   7.465  15.242   3.466  0.0376 -0.1856  0.2598
 9858W        W30138  11.958  15.231   4.458 -0.1613  0.0401  0.0739
 9859W        W30139  11.747   0.470   0.454  0.4716 -0.1741 -0.1276
 9860W        W30140   1.808   5.411  13.855  0.0635  0.0961  0.0341
 9861W        W30141   4.148  12.556   3.523  0.1830 -0.0026 -0.2106
 9862W        W30142   1.098   4.821  15.769  0.3851 -0.1358  0.2717
 9863W        W30143   4.055  15.436  15.740 -0.0929 -0.0537 -0.1611
 9864W        W30144   0.291   8.746   1.564  0.0057  0.0803 -0.2830
 9865W        W30145   7.146  11.347  14.418  0.0759 -0.0027 -0.1393
 9866W        W30146   6.135  14.621   4.883 -0.1950 -0.1948  0.1031
 9867W        W30147   9.214   4.661   2.460  0.2991  0.2852  0.2999
 9868W        W30148   9.052  15.470  15.024 -0.3100  0.0494 -0.0091
 9869W        W30149   8.206   2.736  16.233  0.0670  0.0977 -0.0472
 9870W        W30150  16.939  14.800   4.165 -0.1389  0.1111 -0.0290
 9871W        W30151   0.925   3.117  11.730 -0.1548  0.0575 -0.2901
 9872W        W30152   7.408   4.124   0.951 -0.1227  0.1061  0.0451
 9873W        W30153   5.470   1.276  16.855 -0.3561 -0.0808 -0.2268
 9874W        W30154  16.509  10.753  14.203  0.1021  0.2382 -0.1075
 9875W        W30155  13.836  13.058   0.854 -0.3831 -0.0366 -0.2429
 9876W        W30156   7.036  17.246  12.523  0.0570  0.1157 -0.1449
 9877W        W30157   3.591   9.409  13.945 -0.1434 -0.0317 -0.1352
 9878W        W30158   7.636  11.095  13.396  0.1583 -0.1731  0.0637
 9879W        W30159  17.614  12.096  16.751 -0.0494 -0.2807 -0.1690
 9880W        W30160   2.535   5.424   3.448  0.3142  0.0123  0.1856
 9881W        W30161  11.340   3.871   5.298 -0.1610 -0.4171 -0.1919
 9882W        W30162  15.754   7.061  15.091 -0.1907  0.1562  0.2561
 9883W        W30163  12.921  16.524   1.651  0.0218 -0.3592 -0.1041
 9884W        W30164   9.881  10.927  13.797  0.1177 -0.0862  0.0764
 9885W        W30165  14.033  14.480   0.978  0.2458  0.0686  0.1492
 9886W        W30166  16.258   3.977  14.082  0.3021  0.0031  0.0867
 9887W        W30167   2.305   9.329  12.826  0.1065  0.0982 -0.1600
 9888W        W30168   6.803  10.143   0.907 -0.0992 -0.0281  0.0008
 9889W        W30169   8.042  16.295  13.470  0.0551  0.2415 -0.1644
 9890W        W30170   2.207   7.961  12.410  0.0299  0.0752 -0.1670
 9891W        W30171  10.151   9.220   4.514 -0.3415 -0.0718  0.1285
 9892W        W30172   3.906   8.191  14.905  0.1110  0.0893 -0.1641
 9893W        W30173  12.783   4.111  14.840  0.0808  0.3801  0.2721
 9894W        W30174  12.923   5.373  16.358  0.0377 -0.0431 -0.0914
 9895W        W30175   5.199  13.412   4.132  0.1006 -0.1450  0.1418
 9896W        W30176  15.208   5.171   4.205  0.0972 -0.2114  0.0494
 9897W        W30177  15.251  17.431  14.503  0.0102  0.3010 -0.2177
 9898W        W30178  14.810  16.403  14.078  0.1416 -0.0722 -0.0853
 9899W        W30179   9.462   1.116   1.057  0.1198  0.0359 -0.2983
 9900W        W30180  12.622  12.715  14.195 -0.2384  0.2657  0.3289
 9901W        W30181   9.157  12.801  13.558  0.3006 -0.2340 -0.2005
 9902W        W30182  16.445   4.337   2.271  0.0204 -0.0231  0.0876
 9903W        W30183  12.544   7.402   0.588  0.2470 -0.2561 -0.0558
 9904W        W30184   0.592  12.986   0.476 -0.0692 -0.2035 -0.3875
 9905W        W30185  14.011   2.276   6.014 -0.0270 -0.1781  0.2805
 9906W        W30186   5.405  16.701  14.404 -0.0147  0.1229 -0.0187
 9907W        W30187   3.146  14.572  15.594 -0.3004 -0.0179 -0.0579
 9908W        W30188   6.613   1.507  16.457  0.0585  0.0391  0.2150
 9909W        W30189   7.544   9.297   0.329  0.1304  0.1127  0.0018
 9910W        W30190   6.426   1.168   0.446  0.4323  0.1541  0.0110
 9911W        W30191   1.796   2.669   2.539  0.0279  0.0091 -0.1305
 9912W        W30192  14.976  14.940  12.478 -0.0128  0.1183 -0.1409
 9913W        W30193   4.655  14.306  14.311 -0.1457  0.3003 -0.0835
 9914W        W30194  12.518   7.652   3.631 -0.2728 -0.1114 -0.1039
 9915W        W30195   4.350   3.758   2.317 -0.2381  0.1630  0.1066
 9916W        W30196   7.933  15.522   0.811  0.1456 -0.2281  0.0593
 9917W        W30197   7.017  16.561   3.096  0.1824 -0.1713  0.1564
 9918W        W30198   1.153   4.264  14.182  0.0586 -0.1321 -0.1948
 9919W        W30199  16.822   1.434   3.969  0.4038 -0.1388 -0.1594
 9920W        W30200  16.600  16.660  14.242 -0.2881 -0.1533 -0.2382
 9921W        W30201   9.645  10.195   3.670 -0.3370  0.1916 -0.0205
 9922W        W30202   0.314   4.568  13.211  0.0110  0.2759 -0.0875
 9923W        W30203  13.111  10.925   2.251  0.0238  0.1380  0.1919
 9924W        W30204   8.720   2.792  16.151 -0.1156 -0.0387  0.1455
 9925W        W30205  10.885  14.676   1.764  0.3135  0.1024 -0.2324
 9926W        W30206  12.493  10.298   3.248 -0.1798 -0.2053  0.0347
 9927W        W30207  15.726  11.664   4.017 -0.0221 -0.1766 -0.2499
 9928W        W30208  12.495  13.254  14.221  0.2755  0.2580 -0.2574
 9929W        W30209  10.358   7.180  15.552  0.0059 -0.1119 -0.0398
 9930W        W30210   1.909  15.993   3.211 -0.1502  0.0031 -0.0223
 9931W        W30211   1.876   7.180   1.011  0.3685  0.1048 -0.0378
 9932W        W30212   3.742   8.730  12.306  0.1859  0.2003  0.1696
 9933W        W30213   7.684   7.283  13.260 -0.0094  0.1949  0.2168
 9934W        W30214  10.738   1.395   2.837 -0.1517 -0.1299 -0.0301
 9935W        W30215  12.620  17.280   0.816 -0.2227  0.0837  0.1548
 9936W        W30216   6.169   1.923  14.199 -0.0488 -0.0489 -0.3997
 9937W        W30217  10.203   0.171  15.363 -0.1545  0.3026 -0.2885
 9938W        W30218   9.658   7.449  16.686 -0.2645 -0.1115  0.1128
 9939W        W30219  13.170  14.833   4.191 -0.0452  0.0303  0.1269
 9940W        W30220  12.213   7.546   4.398  0.0337  0.2789  0.0423
 9941W        W30221   0.000   2.850   1.050 -0.1005  0.2184  0.0600
 9942W        W30222  14.440   7.390  12.873  0.2234 -0.2032 -0.0333
 9943W        W30223  13.316  13.921  15.516  0.0117 -0.1037 -0.3117
 9944W        W30224  14.522   6.304   3.716  0.0100  0.2200 -0.1880
 9945W        W30225   4.452   5.219  12.579  0.0596 -0.2018 -0.3667
 9946W        W30226   7.936  11.907   2.348 -0.2600  0.2123 -0.2171
 9947W        W30227  15.499   2.927   3.034 -0.0348  0.1085  0.0851
 9948W        W30228   8.068  17.716   1.987  0.2537 -0.2135  0.1586
 9949W        W30229  15.429   7.418   3.424 -0.0321  0.0475 -0.2031
 9950W        W30230   1.953  16.015   4.254 -0.0659  0.2164 -0.1840
 9951W        W30231   2.868   6.375  12.732 -0.0472  0.0491  0.2178
 9952W        W30232   2.248  17.457   3.428 -0.1183  0.1460 -0.1825
 9953W        W30233  16.558   2.099   2.824  0.0098  0.0507 -0.1074
 9954W        W30234  13.756  13.308  15.844  0.4029 -0.1996 -0.1096
 9955W        W30235   4.028  16.924   4.289 -0.0322  0.0841 -0.1197
 9956W        W30236  11.237   5.434  12.621  0.1146 -0.1366 -0.3564
 9957W        W30237   6.841  12.236  14.482  0.3685 -0.1762  0.0117
 9958W        W30238   6.535  14.167   3.598  0.2666 -0.1690 -0.0758
 9959W        W30239   6.060   6.698  14.210  0.1217 -0.2345 -0.0441
 9960W        W30240  16.981  11.033  12.259 -0.0077 -0.0396 -0.2676
 9961W        W30241   9.236  12.540  16.291  0.1721 -0.1948  0.0500
 9962W        W30242   1.293   1.406  14.402  0.2308 -0.0435 -0.1758
 9963W        W30243   4.423   2.647  16.205 -0.0440 -0.0054  0.0539
 9964W        W30244   0.186   4.513  15.243 -0.1457 -0.0246 -0.1510
 9965W        W30245  11.389  11.727   0.301 -0.4725  0.1763  0.1400
 9966W        W30246   2.621  12.636  14.526 -0.2865 -0.0746 -0.0755
 9967W        W30247  10.484  12.685   2.140 -0.1595  0.1030  0.0617
 9968W        W30248   6.580  12.861   3.310  0.1314  0.0531 -0.2264
 9969W        W30249  12.696   4.898  15.902  0.1306 -0.0849 -0.3283
 9970W        W30250  13.043   1.675  16.203 -0.1743 -0.2198 -0.0112
 9971W        W30251  14.338  17.041   1.400  0.0783 -0.0931  0.0241
 9972W        W30252   1.183   6.781  14.274 -0.2773 -0.3087 -0.1252
 9973W        W30253  13.759  11.357   6.362  0.0051  0.0223 -0.0282
 9974W        W30254   3.304   2.922   3.101  0.0926  0.1421  0.0482
 9975W        W30255   6.305   3.233   0.468 -0.0072 -0.0034  0.0887
 9976W        W30256  11.756  11.086   4.787  0.0156 -0.0347 -0.1527
 9977W        W30257  15.195   8.727  13.739 -0.1637  0.1990  0.1831
 9978W        W30258  15.709   8.164  16.218 -0.0036 -0.0709 -0.0914
 9979W        W30259  15.178   4.416  12.862  0.0289 -0.0907  0.0128
 9980W        W30260   8.737  13.685  15.169  0.4018  0.1685 -0.2682
 9981W        W30261   0.066  14.993   1.397 -0.2166 -0.3129 -0.1449
 9982W        W30262   6.889   7.531   0.013 -0.1837  0.1288  0.0880
 9983W        W30263   1.733   8.462  14.692  0.1197  0.3879  0.1423
 9984W        W30264  10.665   6.273  14.377 -0.3299  0.1077 -0.1681
 9985W        W30265  11.774  12.063  12.802  0.1141  0.2427 -0.1106
 9986W        W30266   8.581   7.539   1.498  0.1009  0.0916  0.1215
 9987W        W30267  14.477  14.189  14.306  0.0708 -0.0225 -0.2626
 9988W        W30268   2.616  15.139   1.867 -0.2650 -0.0174  0.0044
 9989W        W30269   5.443   2.521  16.516 -0.4904 -0.0224  0.0462
 9990W        W30270  13.619  14.211   2.444 -0.2015  0.2150 -0.0644
 9991W        W30271   4.767  10.681  16.129 -0.1432 -0.4181 -0.0298
 9992W        W30272   6.272   2.874   4.754 -0.1620  0.0737  0.0187
 9993W        W30273   7.475  15.447   3.914  0.0571  0.1156 -0.5851
 9994W        W30274   5.857   4.870   1.700  0.2166  0.2025  0.1816
 9995W        W30275   1.122  17.320  16.196  0.4294  0.1167  0.1448
 9996W        W30276   1.385   8.433  13.199 -0.0881  0.2571  0.1192
 9997W        W30277   7.190   8.330   5.639  0.1116  0.0211  0.1654
 9998W        W30278  13.918   3.915   4.928 -0.0654 -0.3461 -0.0639
 9999W        W30279  10.048   2.980   1.216  0.3015  0.3145 -0.0822
10000W        W30280  13.979  10.645   3.778 -0.1727 -0.1099  0.0356
10001W        W30281  11.853   0.262  16.298 -0.0957  0.2038  0.3359
10002W        W30282   4.844   6.497  16.560  0.0307  0.0045 -0.0441
10003W        W30283  10.744  14.662  16.736  0.1859  0.0955  0.1600
10004W        W30284   0.046   2.471  12.956 -0.2366 -0.2622 -0.1229
10005W        W30285   5.837   1.907  15.003 -0.2609 -0.0567 -0.0201
10006W        W30286   3.041  17.012  14.680 -0.1710 -0.0477 -0.0011
10007W        W30287  11.712  10.182   2.851  0.0572 -0.1465  0.0518
10008W        W30288  11.762  16.607  16.764  0.0375  0.1397  0.0896
10009W        W30289   1.147   7.804  15.152  0.2127 -0.0487 -0.1538
10010W        W30290  17.610   9.381   3.100  0.1575  0.0996 -0.3123
10011W        W30291  15.292   6.824  14.877 -0.0877 -0.0089  0.1337
10012W        W30292  11.082  12.349   1.652  0.2709 -0.1478 -0.1231
10013W        W30293  17.299  13.539   0.545 -0.1467 -0.0266  0.2187
10014W        W30294  14.586   3.374   2.295  0.2798 -0.2298 -0.1811
10015W        W30295   6.249   7.029  13.792  0.1543  0.0624  0.0641
10016W        W30296   2.393  17.569   3.937 -0.0737  0.3647 -0.0131
10017W        W30297  12.317  11.444   3.265  0.1045 -0.1573  0.2240
10018W        W30298   8.179   2.058  13.810 -0.2841  0.0510 -0.0788
10019W        W30299  11.713  10.322   0.607 -0.2306  0.1037  0.0976
10020W        W30300  12.916   1.397  14.803 -0.1268  0.0973 -0.1275
10021W        W30301   6.527  16.396  12.867 -0.2464 -0.2988  0.3282
10022W        W30302  12.654  13.900   1.566 -0.1674 -0.1771 -0.0985
10023W        W30303   2.898   8.004   3.127 -0.0172 -0.0040  0.0221
10024W        W30304  10.485   9.659   0.161  0.0155 -0.0911 -0.0296
10025W        W30305   5.250   0.299  14.845 -0.0868  0.2714 -0.2946
10026W        W30306  10.117   9.411  12.999 -0.1020  0.0612 -0.2458
10027W        W30307   6.047  14.027  14.241  0.0027 -0.0755  0.0652
10028W        W30308  10.235  15.755   0.836 -0.1194  0.2122 -0.1668
10029W        W30309   1.921  10.361  13.613 -0.2795 -0.0347  0.0458
10030W        W30310  16.931   2.638   0.533  0.1965 -0.0033  0.3392
10031W        W30311  17.481   0.142  12.776 -0.1930  0.2557 -0.0577
10032W        W30312  16.138  17.458  13.346  0.1319 -0.1394  0.0258
10033W        W30313   3.209   2.371   3.795  0.0807  0.1710  0.0158
10034W        W30314   1.305   1.285  13.560 -0.0235 -0.0711  0.1120
10035W        W30315  13.354   7.289  14.794 -0.0791  0.0662 -0.3054
10036W        W30316   5.867   8.199  15.869  0.1114  0.0292 -0.2378
10037W        W30317   3.101   1.139  12.504  0.0598  0.0480 -0.1253
10038W        W30318   8.484   7.854   3.754 -0.2022 -0.0832 -0.0680
10039W        W30319   2.841   9.109   4.810  0.0610  0.0502  0.4665
10040W        W30320  17.393  15.799   0.800  0.2199  0.0776  0.3653
10041W        W30321   9.781  11.718   1.029  0.0183 -0.3107 -0.0706
10042W        W30322  12.008  17.231  15.701 -0.1049 -0.5272  0.1385
10043W        W30323  12.030   6.045  14.804 -0.0655  0.1330 -0.0285
10044W        W30324  12.849   9.718  16.743  0.4784 -0.0777 -0.2267
10045W        W30325  17.423  12.263   2.942 -0.0790 -0.2988 -0.0708
10046W        W30326   5.601  14.366   2.517  0.1511 -0.3055 -0.5039
10047W        W30327  16.679  17.534  16.534 -0.1343 -0.1267  0.0504
10048W        W30328   0.552   1.948   2.497 -0.0763  0.0702  0.1422
10049W        W30329   8.298   4.654   1.666 -0.1386 -0.1721 -0.1381
10050W        W30330   0.921   8.892  15.593 -0.0253  0.2395 -0.1571
10051W        W30331  16.596   2.489  14.808 -0.2548  0.1384 -0.3001
10052W        W30332   1.429  14.608   0.993  0.0446 -0.1323  0.1633
10053W        W30333   1.138   5.905  12.688  0.0874  0.0561 -0.2037
10054W        W30334  13.275   6.100   4.255 -0.2166  0.0809  0.2642
10055W        W30335   3.310  14.612  14.918 -0.1839  0.1334  0.0032
10056W        W30336   1.695   2.294   0.292  0.1162  0.0279  0.3264
10057W        W30337   9.676  13.427   1.622  0.0742 -0.0258 -0.0872
10058W        W30338   9.337   0.386  11.974  0.0074 -0.1176 -0.0156
10059W        W30339   4.541   7.242   3.858 -0.1555  0.2748  0.0811
10060W        W30340  11.758  11.584   0.592  0.1200  0.4847  0.3741
10061W        W30341  15.775   8.551  14.181  0.1174 -0.1725  0.0430
10062W        W30342   9.616   4.736  16.803  0.1590  0.1300  0.1065
10063W        W30343   2.477   3.126  14.973  0.1695 -0.0401  0.1016
10064W        W30344  15.286   0.799   3.391 -0.0912  0.0246  0.0783
10065W        W30345  13.612  11.319   4.892  0.2690  0.0857  0.3130
10066W        W30346  13.109   4.648  14.981  0.0928  0.0783 -0.2849
10067W        W30347   8.870  10.068   0.181 -0.0725  0.0102  0.0254
10068W        W30348  14.011   5.710  15.484  0.0356  0.3818 -0.1072
10069W        W30349   2.530  10.206   0.791 -0.0689  0.1001  0.0689
10070W        W30350  11.961  10.659  12.739 -0.3936  0.0678 -0.0601
10071W        W30351   9.152   9.210   1.092  0.1325  0.0584  0.0018
10072W        W30352   5.173  14.531   1.156 -0.1354  0.0708  0.0244
10073W        W30353   2.321   6.357  14.167  0.1580 -0.1649  0.0749
10074W        W30354   0.963   2.263   0.782  0.0584 -0.0157  0.0861
10075W        W30355  17.151   8.528  16.404 -0.1787  0.1388  0.0672
10076W        W30356   8.052   1.945  15.293 -0.1530 -0.0228 -0.0143
10077W        W30357   5.578   5.927  12.466  0.0141 -0.1240 -0.1232
10078W        W30358  15.497  11.031  16.607 -0.2128  0.0288 -0.0186
10079W        W30359   5.181  16.965  13.953  0.2182  0.0487 -0.1980
10080W        W30360   4.290   2.599   2.013  0.0341  0.2687 -0.0957
10081W        W30361  10.869  16.064   2.802  0.1839  0.1694 -0.0900
10082W        W30362  12.896  13.480   1.090 -0.5261  0.1547  0.1761
10083W        W30363  13.126   3.927   1.243 -0.1583 -0.1399  0.1811
10084W        W30364   0.360   8.026  15.762 -0.1589 -0.2085 -0.1008
10085W        W30365  10.018  11.760   3.176  0.0523  0.0051 -0.1220
10086W        W30366   7.718   2.276   1.629  0.0446  0.1850 -0.0377
10087W        W30367  16.190   8.198   0.189  0.0561  0.0456 -0.0626
10088W        W30368  15.214   7.005  15.337  0.2446  0.4715 -0.2032
10089W        W30369  17.275   5.308  14.806 -0.1523  0.1132 -0.0197
10090W        W30370  17.627   5.966   5.801  0.1481 -0.2585 -0.0399
10091W        W30371   2.977   2.250   1.771  0.1854 -0.1171  0.2843
10092W        W30372   9.232   4.071   3.161 -0.1589 -0.1655  0.0753
10093W        W30373   4.362   7.292  13.385 -0.0930  0.0968  0.1275
10094W        W30374   5.280   0.514   3.409  0.0065 -0.1818  0.3551
10095W        W30375   7.993  12.057  16.685  0.0552 -0.4581 -0.0973
10096W        W30376   9.884  14.283  15.641 -0.1517  0.1312 -0.3664
10097W        W30377  10.693  12.138  13.886 -0.1419  0.0247  0.0317
10098W        W30378   5.682  11.918   0.247 -0.0615  0.0226 -0.0682
10099W        W30379   8.307   5.174  12.521 -0.0106  0.0511 -0.0510
10100W        W30380   8.285  15.094  12.664  0.1585  0.1138  0.2310
10101W        W30381   0.902   4.806  16.827  0.1882  0.2407  0.0768
10102W        W30382   6.257   9.723   4.541 -0.2290  0.0266 -0.1773
10103W        W30383   9.569   4.213   0.288  0.2290 -0.0782  0.1560
10104W        W30384  15.276  15.700  13.458 -0.0292  0.1484 -0.0715
10105W        W30385  14.890   5.786   4.124 -0.0680  0.1339  0.1969
10106W        W30386  12.964  12.004  16.436  0.1044  0.0362  0.1301
10107W        W30387   3.840   0.416  12.564 -0.0791  0.1290 -0.0913
10108W        W30388   3.332   8.997  13.114  0.0839  0.2658  0.2132
10109W        W30389   5.523   3.693  12.337 -0.0741 -0.2736 -0.0078
10110W        W30390   6.076  12.619   3.312  0.1197  0.0615  0.0987
10111W        W30391  10.182   4.535   2.470  0.0148  0.1973  0.0530
10112W        W30392  13.631   0.956   4.148 -0.1968 -0.1793 -0.0992
10113W        W30393   1.132   0.333  14.343 -0.1385  0.1806 -0.1453
10114W        W30394   3.382   3.223  12.918  0.0403  0.2960 -0.0002
10115W        W30395  12.790   3.616   4.449  0.1124  0.1720 -0.2245
10116W        W30396   5.214  16.786  15.385 -0.1801  0.3175  0.2586
10117W        W30397   4.328  10.556   0.305  0.2716  0.2221  0.2483
10118W        W30398  10.773   7.018  13.841 -0.1087  0.2135  0.0591
10119W        W30399   5.714  12.948   3.409 -0.0756 -0.2119 -0.1835
10120W        W30400   0.102   4.165  14.753  0.3280 -0.2370 -0.3527
10121W        W30401  17.565   2.465  11.766 -0.1238 -0.0996 -0.1663
10122W        W30402   0.566   5.917  12.564  0.0167 -0.0479  0.3835
10123W        W30403   0.583   2.419  13.147  0.0801 -0.0138  0.0082
10124W        W30404   2.546   4.523   2.392 -0.1072  0.1728 -0.1927
10125W        W30405   6.251  16.508  16.006  0.0162  0.0141 -0.3941
10126W        W30406  14.806  10.059  14.628 -0.1094  0.0352 -0.2330
10127W        W30407   7.352  11.277   0.339 -0.1797 -0.2688  0.0905
10128W        W30408   8.883   1.446   3.668  0.0894 -0.0218  0.1636
10129W        W30409   1.248   9.947  14.776 -0.1842  0.1210 -0.1966
10130W        W30410   3.209   7.807   2.631  0.2312  0.0631  0.0397
10131W        W30411  10.015   7.098   2.202  0.0463 -0.0210 -0.1001
10132W        W30412   7.122  11.004  16.882 -0.2062  0.0715 -0.2547
10133W        W30413   5.332  15.464  11.069 -0.2186 -0.0039 -0.0564
10134W        W30414  13.300  17.649   4.573  0.0892  0.0875 -0.0939
10135W        W30415  10.978   2.674   3.410 -0.0602  0.2044  0.1030
10136W        W30416  13.607  10.595  16.542  0.0414 -0.2464  0.2133
10137W        W30417  17.385   1.985  14.077 -0.0763 -0.1781  0.2281
10138W        W30418  12.624  17.458   2.895 -0.1781 -0.1727  0.0845
10139W        W30419  12.413  13.153  15.596 -0.1995 -0.2023  0.2815
10140W        W30420   6.540   6.454   0.891  0.1228  0.1346 -0.0292
10141W        W30421  15.517   7.418   4.631  0.2853 -0.3126 -0.0762
10142W        W30422   4.015  12.016  16.381  0.1638  0.0190  0.1006
10143W        W30423  13.311   8.301  15.496 -0.1094  0.0203 -0.0950
10144W        W30424  13.350  17.377  13.340 -0.0983 -0.0303  0.1791
10145W        W30425   9.047   6.729   4.001 -0.0282  0.2806 -0.1612
10146W        W30426   3.847   2.448  12.783  0.3633  0.0083  0.3391
10147W        W30427   4.254   6.887   4.215 -0.0862 -0.2324 -0.0903
10148W        W30428  14.001   5.896  13.305 -0.1107  0.4393 -0.0887
10149W        W30429   6.111  15.275  13.164 -0.1313  0.2511  0.2991
10150W        W30430  17.554   2.517  14.925  0.0789 -0.0340 -0.1041
10151W        W30431   9.765   6.546   3.868 -0.1747 -0.1103  0.0114
10152W        W30432  14.002   2.619  16.175 -0.0152 -0.0868 -0.0359
10153W        W30433   7.130   9.680  16.681  0.0836 -0.3083 -0.0654
10154W        W30434   5.132  13.637  12.126  0.1032 -0.0593 -0.2022
10155W        W30435   9.284   4.087  12.338  0.0237  0.1409 -0.0680
10156W        W30436   5.234   0.169  11.930  0.0240  0.1298 -0.2399
10157W        W30437  13.386  14.753  15.329 -0.0772 -0.0733  0.1085
10158W        W30438   0.391  17.250  12.486  0.1501 -0.2171  0.2401
10159W        W30439   9.056  13.562  15.827  0.0054 -0.1919 -0.2038
10160W        W30440  11.361  10.732   4.712  0.0846  0.2236  0.0581
10161W        W30441  16.533   3.558   3.804 -0.2166 -0.0699 -0.0132
10162W        W30442  11.562   4.748  14.807  0.1509 -0.2819 -0.2656
10163W        W30443  15.867   8.252   1.466 -0.0474 -0.1921  0.0436
10164W        W30444  17.418   1.703  15.844  0.0489 -0.0277 -0.0317
10165W        W30445  14.552  10.690   2.010 -0.1511  0.1826  0.0137
10166W        W30446  16.146  12.149   0.865  0.1773 -0.0363  0.2159
10167W        W30447   5.251   1.563   0.332  0.3143  0.0192  0.1019
10168W        W30448   0.167   9.816  16.771  0.0311 -0.1288 -0.0664
10169W        W30449   5.378   1.018   3.686  0.0476 -0.0127 -0.3589
10170W        W30450   4.512   9.506  12.376 -0.2546 -0.1500  0.2693
10171W        W30451  14.240   5.048  16.313  0.1563  0.0827  0.0011
10172W        W30452  10.047   5.693   2.864 -0.1476  0.1362 -0.1713
10173W        W30453   4.208  15.611   2.656  0.0078  0.2213  0.0295
10174W        W30454   3.076   4.949  15.259 -0.2391 -0.2935  0.0376
10175W        W30455   4.167   5.508  11.926  0.0229  0.0989  0.0435
10176W        W30456  15.377   9.472   0.924  0.0013  0.0687  0.2962
10177W        W30457  11.798   9.377  14.849 -0.4443  0.0436 -0.1403
10178W        W30458   4.699   6.282   4.775  0.1596  0.0614 -0.1804
10179W        W30459   3.482  11.174   2.896  0.1000  0.1461  0.0412
10180W        W30460   3.379  15.894   1.550  0.0561 -0.0340 -0.1679
10181W        W30461   7.883   4.012  13.999  0.1274  0.0510 -0.2330
10182W        W30462  11.534   6.086  14.303 -0.4829  0.0868 -0.0170
10183W        W30463  15.224   6.209   4.421 -0.4391 -0.2203 -0.2234
10184W        W30464  11.443  14.681  16.664  0.0762 -0.1664 -0.1416
10185W        W30465  11.072  11.603  12.771 -0.1622 -0.1710  0.3766
10186W        W30466   8.143   3.339   3.159  0.1342  0.1039  0.1278
10187W        W30467  17.520   1.786   0.938 -0.0305  0.2563 -0.2873
10188W        W30468   1.741  16.628  15.055  0.0233  0.2438  0.0173
10189W        W30469   3.066   2.423   4.882  0.3931  0.0249 -0.1203
10190W        W30470   5.052   6.620   4.508  0.0971  0.2919 -0.3896
10191W        W30471   3.808  13.146  13.554 -0.0216  0.0211 -0.2375
10192W        W30472   9.972  16.808  16.209 -0.0716  0.1439  0.0281
10193W        W30473   3.928   1.101  16.814  0.0979 -0.0774 -0.3837
10194W        W30474   7.937   4.370  12.742  0.2485 -0.0146  0.0294
10195W        W30475   7.185   1.123  13.112 -0.1829  0.1012  0.0987
10196W        W30476   9.078   4.453  15.837  0.0712  0.0504 -0.0231
10197W        W30477   2.306   5.980   0.639  0.1319  0.0855  0.0198
10198W        W30478   9.022   3.082  12.047 -0.0208  0.0524  0.3484
10199W        W30479   0.292   7.988  15.240 -0.0254  0.3375 -0.0556
10200W        W30480   9.865   7.768  14.496 -0.1951  0.0258  0.2950
10201W        W30481  12.823  10.646   3.183  0.0980 -0.2235 -0.0551
10202W        W30482   0.300  15.091   2.444 -0.0994  0.1602 -0.0864
10203W        W30483  13.418  10.183  16.414 -0.1397 -0.1311 -0.2414
10204W        W30484   3.385   4.488  15.165  0.0468  0.0532  0.0497
10205W        W30485   4.064   5.867   2.591 -0.0331 -0.1446  0.0143
10206W        W30486   7.484  11.524  15.058 -0.3622 -0.0152  0.2434
10207W        W30487   3.323   8.289   1.890  0.4696  0.1425 -0.0839
10208W        W30488   8.702   5.876  15.585 -0.0870 -0.0449  0.0446
10209W        W30489   8.228   5.010  14.040  0.1006 -0.1719  0.1142
10210W        W30490   8.787   9.192  13.861  0.2362 -0.0530 -0.6457
10211W        W30491   2.741  13.487   1.527  0.0517  0.3820  0.0199
10212W        W30492   4.658   5.023   0.273  0.0536  0.0301  0.0607
10213W        W30493   2.160   6.712  14.453 -0.0292  0.0558 -0.1022
10214W        W30494  16.057  10.571   0.503 -0.0434  0.2069  0.0908
10215W        W30495  15.749  14.622  13.956 -0.3990 -0.0555  0.5102
10216W        W30496   1.660   7.542  12.008  0.0607  0.1209  0.0325
10217W        W30497  15.539   6.911  13.801 -0.1269  0.0450  0.1903
10218W        W30498   2.907   5.882   3.368 -0.1168  0.2190  0.3148
10219W        W30499  10.847   8.430   4.761 -0.1087  0.3630  0.2351
10220W        W30500   4.540   3.659  13.187 -0.4038 -0.0169 -0.0156
10221W        W30501   6.496  11.775   3.987 -0.0664 -0.1775  0.1995
10222W        W30502  12.868   4.153   0.370  0.0248  0.0407  0.1208
10223W        W30503  12.011  16.958  16.534  0.0256 -0.2426  0.1815
10224W        W30504   8.439   2.796  15.172 -0.1183 -0.3518  0.1593
10225W        W30505   5.395  10.635  14.831  0.0166 -0.1801  0.1054
10226W        W30506   5.551  10.197  15.064  0.0174 -0.0717 -0.2983
10227W        W30507  17.251  12.656  15.894  0.0738 -0.1107  0.0122
10228W        W30508   2.617   2.468  13.874 -0.0764 -0.0718  0.1113
10229W        W30509  13.888  14.450  14.844  0.0463 -0.1811  0.5080
10230W        W30510   4.875  15.462   2.402 -0.0470 -0.3593 -0.4354
10231W        W30511   9.556  11.508  16.687  0.0056 -0.1929 -0.0897
10232W        W30512  15.819   1.462  12.853  0.0198 -0.0617  0.1245
10233W        W30513   7.914  13.482   1.920 -0.1926  0.0804  0.0437
10234W        W30514  11.428   9.991  12.302 -0.0810  0.0381  0.0669
10235W        W30515  11.588   3.780  13.462  0.0869 -0.1913  0.0997
10236W        W30516   4.649  14.638   2.242 -0.2899 -0.2531 -0.0857
10237W        W30517   6.080   6.204   3.936 -0.3768 -0.1234  0.0649
10238W        W30518   9.017  16.970   4.467 -0.1913 -0.1224 -0.3086
10239W        W30519   8.904   9.108  13.267  0.1071 -0.2505 -0.1050
10240W        W30520  12.843   0.955  14.554  0.0161  0.4333  0.2891
10241W        W30521   2.481  16.345  15.586  0.0912  0.1633 -0.1236
10242W        W30522  14.423   2.358  16.064 -0.0965 -0.0677 -0.1532
10243W        W30523  14.303  15.961  14.573 -0.0642 -0.1496  0.2047
10244W        W30524  17.097   3.710   1.133  0.0666 -0.0401  0.2233
10245W        W30525   2.273   7.173  13.626  0.1367  0.0963  0.1038
10246W        W30526   3.896  12.570   4.383  0.0501  0.1511  0.3133
10247W        W30527  13.428   1.800   1.344  0.1690  0.0245 -0.0055
10248W        W30528  11.398   3.015   3.054  0.0061 -0.0437  0.1667
10249W        W30529   0.264  15.181  14.018 -0.0150  0.0138 -0.0460
10250W        W30530  12.674  14.981  13.388 -0.0477 -0.3367  0.0530
10251W        W30531   6.701   4.964  16.123  0.1627 -0.0340  0.2767
10252W        W30532   2.468   6.631   2.726  0.1410 -0.2638  0.1633
10253W        W30533  13.253  16.465   0.722 -0.3420 -0.2584  0.1725
10254W        W30534   8.885   1.455  15.090 -0.0416 -0.1044  0.2347
10255W        W30535   6.001  14.140  14.809 -0.2579 -0.0036  0.2371
10256W        W30536   7.836  12.665   0.798 -0.1018 -0.2013  0.4783
10257W        W30537  12.348  13.399   3.007  0.3224  0.2167 -0.2329
10258W        W30538   1.829   9.705   5.270 -0.2872  0.2665 -0.0883
10259W        W30539   9.328   4.286   1.228 -0.1906  0.1462  0.3435
10260W        W30540   3.948   5.749   3.708 -0.1328 -0.2514 -0.0694
10261W        W30541   7.585  11.534  12.089 -0.0611  0.1433  0.2063
10262W        W30542  15.917   4.592  15.213 -0.1512 -0.1126  0.0433
10263W        W30543  11.536   6.257  13.836 -0.1780 -0.1430 -0.2048
10264W        W30544   3.142  15.004   1.259  0.1031  0.0791  0.1266
10265W        W30545  17.041  12.093   0.661 -0.1683  0.2326 -0.0608
10266W        W30546   1.103  13.309  16.728  0.1551  0.0624  0.2381
10267W        W30547   9.019   1.230   0.870  0.0343  0.0704 -0.1675
10268W        W30548   7.139   5.625  16.561 -0.2942  0.2780 -0.2177
10269W        W30549   2.050  10.854   2.456 -0.2023  0.3427 -0.0053
10270W        W30550  14.902   0.410  14.074 -0.0002 -0.0491 -0.1574
10271W        W30551   3.712  10.924  13.043 -0.0883  0.1305  0.0389
10272W        W30552   9.545   7.265   2.286 -0.0498  0.4729  0.0579
10273W        W30553   9.038  15.816   3.020 -0.2004 -0.0709  0.0434
10274W        W30554  13.034  14.626  13.148  0.0445  0.1274  0.2498
10275W        W30555   0.926   4.416   4.148 -0.1001 -0.1534 -0.0752
10276W        W30556   6.481   3.161  16.790  0.1680 -0.1693  0.0056
10277W        W30557   5.618  14.295  14.114  0.0348 -0.0199 -0.0637
10278W        W30558  15.821  15.229  12.675  0.1535  0.0944  0.0956
10279W        W30559   8.991   0.708  14.559 -0.2849  0.0184  0.1001
10280W        W30560   5.716   0.658   3.834  0.0401  0.4719  0.0118
10281W        W30561   6.788   1.062   3.433 -0.1425 -0.0136  0.1267
10282W        W30562  11.887   2.552  13.906  0.0843  0.2371  0.0854
10283W        W30563  10.062   1.299   3.311  0.1079  0.2340  0.2794
10284W        W30564   1.545  10.211  16.191 -0.1109 -0.0031  0.1122
10285W        W30565   6.834   1.415   0.595 -0.1669 -0.1849  0.0495
10286W        W30566   6.455  13.765  14.909 -0.1579  0.2817  0.0366
10287W        W30567   1.330   7.607   0.561 -0.1059 -0.1016  0.0526
10288W        W30568  14.809   4.420  16.006  0.1932  0.0172 -0.0353
10289W        W30569   3.758   8.431  14.471  0.0194  0.0368 -0.1624
10290W        W30570   4.932  11.818   2.000 -0.1932 -0.1161 -0.0965
10291W        W30571   4.503   2.512   0.384 -0.3361 -0.0489 -0.0423
10292W        W30572   6.518  11.378   4.321  0.2740  0.0395 -0.1717
10293W        W30573  13.895   9.155   0.619 -0.0621 -0.0665 -0.0398
10294W        W30574   6.122   4.655  16.330  0.0866  0.3367  0.2644
10295W        W30575  13.102  15.986  12.726 -0.0354  0.2497 -0.2665
10296W        W30576  15.136  13.387   3.709  0.5052 -0.0270  0.2806
10297W        W30577   1.313  10.690  13.875  0.0629 -0.0341  0.1409
10298W        W30578  16.029  16.410  13.537 -0.0150  0.1324  0.1569
10299W        W30579  17.142   0.816  11.225  0.0338  0.1695  0.0750
10300W        W30580  10.987   9.422   4.541 -0.1045  0.4036 -0.2256
10301W        W30581   1.714  10.919  13.868 -0.0392  0.2698  0.0501
10302W        W30582   8.205  16.634  13.806 -0.0308  0.1943 -0.0996
10303W        W30583   4.920  11.459   1.194  0.0334  0.0118 -0.1136
10304W        W30584  16.641  15.926  16.010  0.0685  0.0690  0.1495
10305W        W30585  13.399   1.423  14.989  0.3339 -0.0375  0.1259
10306W        W30586   4.012   7.606   0.055  0.1233 -0.0939  0.2741
10307W        W30587  11.376   0.052   4.675  0.0122 -0.0159 -0.0703
10308W        W30588  15.611   8.271   4.440 -0.1574  0.2002 -0.1244
10309W        W30589   5.806  12.890  13.072  0.1235  0.0646  0.0992
10310W        W30590  16.771   4.685  14.418  0.2070 -0.0641 -0.0955
10311W        W30591   9.489   6.150  15.379  0.1049  0.2350 -0.2130
10312W        W30592   9.771   6.452  11.486  0.0287  0.2074  0.1543
10313W        W30593   2.856   8.226  12.247  0.0319  0.0325 -0.0831
10314W        W30594  15.302   2.670   1.996 -0.0341  0.0334  0.3167
10315W        W30595   5.670  15.586  13.118  0.1256 -0.0281 -0.0139
10316W        W30596   0.997   1.332   2.081  0.0526  0.3006  0.0333
10317W        W30597  15.825   3.239  12.525  0.1298  0.3285  0.2042
10318W        W30598   9.861  13.707   1.251  0.3150  0.1377 -0.1351
10319W        W30599   1.477  14.295  14.755 -0.1188 -0.0745 -0.1987
10320W        W30600   6.056  14.429   3.799  0.1117 -0.1503  0.0571
10321W        W30601   5.446  15.243   3.316 -0.0551  0.3710  0.2022
10322W        W30602  15.230  12.174   2.848 -0.2298  0.0034  0.3610
10323W        W30603  11.832   5.051  13.610 -0.0417 -0.0508 -0.2070
10324W        W30604  16.737   9.801   2.134  0.0413 -0.1294  0.0857
10325W        W30605   8.239  16.563  16.364  0.0163 -0.0728 -0.2694
10326W        W30606   4.554   9.002  11.984 -0.1535 -0.1033 -0.3099
10327W        W30607   6.319   1.087   2.149 -0.0968 -0.1360 -0.2261
10328W        W30608   9.243  10.668  12.739  0.0520 -0.0051 -0.0607
10329W        W30609   3.972   5.455   4.782 -0.1136 -0.0134 -0.1418
10330W        W30610   6.411  16.259  15.455 -0.2098 -0.0700 -0.2071
10331W        W30611  15.602  16.006  14.952 -0.4156  0.0308 -0.2910
10332W        W30612   8.099   5.919  16.732  0.0737 -0.0850  0.0046
10333W        W30613  13.465   4.357   3.650  0.0845 -0.0101  0.1114
10334W        W30614  13.945  15.297  12.749 -0.1606  0.2901 -0.0388
10335W        W30615  13.349  12.583   0.086 -0.1053 -0.2953 -0.2500
10336W        W30616  14.321  14.513  13.962 -0.2064 -0.1122 -0.3197
10337W        W30617  15.554   8.967  13.512 -0.0107 -0.1116  0.0038
10338W        W30618  15.091   1.206   4.692 -0.3786 -0.1323 -0.2642
10339W        W30619   3.464   0.793   0.099 -0.2263  0.0796  0.0562
10340W        W30620  12.121   9.678  15.089 -0.1437  0.5454  0.2541
10341W        W30621   6.896   4.590  16.574  0.0376  0.2875 -0.1617
10342W        W30622  16.610   8.490   3.527  0.1100 -0.1514  0.1484
10343W        W30623   6.080  13.818  15.201 -0.1330 -0.0802 -0.0093
10344W        W30624   5.899  13.490   1.498  0.2623 -0.3456  0.1189
10345W        W30625   6.323   2.090  14.890 -0.1064 -0.3370  0.0363
10346W        W30626   9.329   5.462  13.588  0.0381 -0.0858  0.0322
10347W        W30627  13.596  12.726  14.751  0.0627 -0.0682  0.3262
10348W        W30628  10.290   4.144  15.346 -0.1726 -0.0594  0.0378
10349W        W30629  17.617   2.823  13.300 -0.0990 -0.0710  0.0874
10350W        W30630   2.723  13.309  15.363 -0.2559  0.1537 -0.1531
10351W        W30631   4.662   7.432  13.817  0.1822  0.0148  0.0079
10352W        W30632   8.699  16.522  14.841 -0.0900 -0.2754  0.2621
10353W        W30633   8.683   6.188  11.836  0.1409  0.0336  0.0971
10354W        W30634  16.977   3.740  14.768  0.2262  0.0888  0.1278
10355W        W30635  16.993   5.493  15.210 -0.1803  0.1463  0.2024
10356W        W30636   7.363  13.436  16.701  0.1045  0.2088 -0.1998
10357W        W30637   9.282   9.673   4.286  0.2454  0.3746 -0.1859
10358W        W30638   4.215   4.755  12.355  0.0948 -0.0752  0.5100
10359W        W30639   3.319  16.093  16.043  0.2529  0.1161 -0.3536
10360W        W30640   1.125  15.137  13.423  0.1696  0.1151 -0.0251
10361W        W30641  15.193   3.761   1.156  0.0769 -0.0572 -0.1973
10362W        W30642  16.496   5.153   4.173  0.0947 -0.0394  0.1901
10363W        W30643   7.751   7.969   0.388  0.2321 -0.0657 -0.3658
10364W        W30644  17.030   8.500   3.931  0.1292 -0.0624  0.0459
10365W        W30645   1.125   2.123   3.819  0.2236 -0.1912 -0.1179
10366W        W30646   5.802   4.751  15.218  0.2698  0.0264  0.2371
10367W        W30647  12.014  11.891   4.411  0.1704 -0.1854 -0.1085
10368W        W30648   3.912  15.791   3.155 -0.3602  0.1751 -0.0345
10369W        W30649   4.709   1.362  13.059  0.1651  0.0586 -0.0210
10370W        W30650  15.220   3.211  12.317 -0.0233 -0.1483  0.1651
10371W        W30651   9.038  15.740   4.921  0.1891 -0.0412  0.0604
10372W        W30652   9.967   8.586   4.791 -0.2656 -0.0591 -0.0182
10373W        W30653  11.449   3.063   0.659 -0.0399  0.2993 -0.1175
10374W        W30654   7.826   1.661  13.946  0.1638  0.0165  0.0682
10375W        W30655   0.726   4.433  13.019  0.0224  0.1052  0.0886
10376W        W30656   1.502   2.984   2.782  0.0722 -0.1942  0.1016
10377W        W30657   4.732   0.217  13.067  0.0065  0.1336  0.0130
10378W        W30658  15.076   9.658  15.652 -0.1904 -0.0292  0.1928
10379W        W30659   4.501   8.688  16.136  0.1831  0.1712 -0.2426
10380W        W30660   3.765  12.852  15.007 -0.2666 -0.0262  0.1609
10381W        W30661  17.678   4.724  13.666  0.2658  0.0511  0.0026
10382W        W30662   2.949  14.989   4.513 -0.4759  0.0517 -0.1869
10383W        W30663   4.729   6.652   0.569  0.3162 -0.1478 -0.0871
10384W        W30664  15.718  15.952   3.259  0.1094  0.0290  0.2122
10385W        W30665   6.085  11.795  16.833  0.1544  0.3216 -0.4918
10386W        W30666  10.722  15.799   1.057 -0.1704 -0.0684 -0.0194
10387W        W30667  10.101   2.982   3.838 -0.2608  0.2630  0.2054
10388W        W30668  17.323  15.953  14.194 -0.0165  0.0332 -0.1590
10389W        W30669   7.184   3.091   2.081 -0.0539  0.2031  0.0090
10390W        W30670   5.426  10.930   2.893 -0.1781  0.2500 -0.0478
10391W        W30671  14.491   3.782  13.883 -0.1413  0.2774  0.1244
10392W        W30672   1.221  13.457  14.869 -0.1800  0.0872 -0.0571
10393W        W30673   9.031  11.168   1.758 -0.0607  0.0676  0.0441
10394W        W30674  11.962   4.979   1.881  0.0031  0.0810  0.0243
10395W        W30675   4.660   8.714  13.466 -0.0380  0.0728 -0.1703
10396W        W30676   6.114  16.274   2.701  0.5017  0.2015 -0.1219
10397W        W30677   5.779   4.278   1.523 -0.3297  0.0600 -0.0825
10398W        W30678   0.323   5.778   0.688  0.2621  0.1039 -0.1425
10399W        W30679   4.392   0.760  15.922 -0.0100 -0.0399 -0.0454
10400W        W30680   8.854   0.993  13.739 -0.0736  0.4732  0.0531
10401W        W30681  14.146  16.337  15.937 -0.2560  0.1736 -0.2062
10402W        W30682   8.524  14.843  15.664  0.1755 -0.1711  0.3443
10403W        W30683  12.079   2.394  13.190  0.1643 -0.1406  0.1675
10404W        W30684   0.622   8.659  15.992  0.0299 -0.1628  0.1102
10405W        W30685   2.552   1.557  16.674 -0.1695 -0.0154  0.3908
10406W        W30686   1.669   4.775   2.513 -0.0095 -0.2488 -0.1323
10407W        W30687  17.638   0.853  13.983  0.0835 -0.0606  0.3445
10408W        W30688   2.921   3.129  12.601  0.0895 -0.1345 -0.0382
10409W        W30689   3.472   9.970   0.884  0.0215 -0.3069  0.2538
10410W        W30690   9.554  16.420   0.673  0.3180  0.0420 -0.0274
10411W        W30691  16.358  12.691   1.246 -0.0597 -0.1091 -0.2514
10412W        W30692   9.698  14.790   2.487 -0.0367 -0.1579 -0.0562
10413W        W30693   2.282   3.996   0.907 -0.2119 -0.0018 -0.1587
10414W        W30694   5.181  16.712  12.547 -0.0788  0.1978  0.1930
10415W        W30695   0.810   0.082  16.250  0.1316 -0.0832 -0.2158
10416W        W30696  14.818  13.348  13.906  0.3303  0.1082 -0.1389
10417W        W30697  11.952   8.036   5.016  0.0708  0.2559 -0.1300
10418W        W30698  14.722  14.665  12.133  0.0860  0.1655 -0.1059
10419W        W30699   1.679   0.011  15.910  0.1275 -0.1441 -0.3052
10420W        W30700   3.457   4.808  13.716 -0.0741 -0.2574  0.2079
10421W        W30701   0.177  14.939   4.962 -0.4759 -0.3594  0.1359
10422W        W30702  13.113   0.119  13.239 -0.2337 -0.1253  0.0243
10423W        W30703   1.627   4.910   3.511  0.0692 -0.3701 -0.0009
10424W        W30704   4.195  10.358  15.608  0.1286  0.0689  0.0694
10425W        W30705  10.205  13.439  12.529  0.0957  0.1200  0.0104
10426W        W30706   5.844   3.318  13.618  0.0333  0.3332 -0.0421
10427W        W30707   0.990  13.174   4.545 -0.3071 -0.1801 -0.1939
10428W        W30708  11.738   6.409   3.731 -0.0477 -0.0098  0.3357
10429W        W30709   6.593  14.113   2.665 -0.1467 -0.2894  0.0140
10430W        W30710  10.243   0.611  12.851  0.1712 -0.2496  0.2110
10431W        W30711   0.717   5.525   1.554  0.0794 -0.0096 -0.0949
10432W        W30712   0.490   1.406  15.101 -0.3075 -0.2029  0.0711
10433W        W30713  13.612  11.456  12.624  0.0643  0.0250 -0.1858
10434W        W30714  16.937  13.188   0.523 -0.1457 -0.0735 -0.2193
10435W        W30715   0.245   3.694  13.030  0.2737 -0.1502  0.1597
10436W        W30716  12.230  13.865  16.450 -0.2182  0.0492 -0.0333
10437W        W30717   7.863   9.969   2.771  0.1857 -0.2125 -0.1832
10438W        W30718  10.650   2.474   0.421  0.1279 -0.1338 -0.1233
10439W        W30719  16.084   6.606   2.552  0.1269 -0.1465  0.0034
10440W        W30720   1.486   0.501  11.644  0.1821  0.1728  0.2378
10441W        W30721  13.732   7.969  13.423 -0.1602 -0.2266  0.3351
10442W        W30722   5.229  16.841   4.916  0.2389 -0.1231 -0.2103
10443W        W30723   5.830   9.985   1.000 -0.0021 -0.1049 -0.0924
10444W        W30724   1.752  17.435   3.204  0.1779  0.1309 -0.2242
10445W        W30725   2.056   9.264   0.100 -0.0461  0.2520 -0.0455
10446W        W30726   1.494   8.130   1.392 -0.0306 -0.0305  0.0658
10447W        W30727   1.527  17.581  16.773 -0.2113 -0.1720 -0.0108
10448W        W30728  11.671   9.149  16.097  0.0628  0.1579  0.3837
10449W        W30729   2.840  16.035  12.509  0.2752  0.1171  0.1188
10450W        W30730  10.206  14.600   4.663 -0.1363  0.0781 -0.1159
10451W        W30731  11.823   4.244   1.285 -0.1421  0.0609  0.5533
10452W        W30732  13.730  13.147  16.728  0.0093 -0.0063  0.0699
10453W        W30733   6.900   3.334  15.479  0.1343 -0.1758  0.1235
10454W        W30734   2.798  14.743   1.579 -0.2558 -0.0657 -0.1263
10455W        W30735   6.753   6.512  15.397  0.2724  0.0021  0.0810
10456W        W30736  14.691  16.955   1.051 -0.0788 -0.3393  0.0200
10457W        W30737  11.341  10.010  16.104  0.0278 -0.0233 -0.1664
10458W        W30738   1.946  14.268   3.740 -0.0169  0.0926  0.0201
10459W        W30739  12.085   1.878   0.687  0.2202  0.1739 -0.1205
10460W        W30740  17.418   2.096  14.564 -0.0130  0.2471 -0.1135
10461W        W30741  10.289   0.042  14.050 -0.4372 -0.2589  0.2451
10462W        W30742   9.636   2.357   1.476  0.0885 -0.1867  0.0811
10463W        W30743   2.292  10.801   3.492  0.2456  0.0803  0.2551
10464W        W30744  16.774   2.521   0.025 -0.0692  0.0010 -0.0725
10465W        W30745   6.873   7.225  15.689  0.0125  0.0913 -0.1832
10466W        W30746  13.361   4.000   4.967  0.1472 -0.1230 -0.3282
10467W        W30747  17.701   8.844  14.819  0.0108  0.1619 -0.0250
10468W        W30748   3.786   8.450   2.046  0.2351  0.5141  0.1208
10469W        W30749   2.594   6.164   4.058  0.2755  0.0312 -0.0313
10470W        W30750  14.186   3.586   1.301  0.0784  0.2939  0.1023
10471W        W30751  12.692   6.200   5.034  0.0357  0.2133 -0.2709
10472W        W30752  17.366  17.545  12.264  0.1836  0.0411  0.2589
10473W        W30753   5.646   2.739  12.558  0.0161  0.0982  0.0577
10474W        W30754   8.928   4.479   2.854 -0.3794  0.1321 -0.0105
10475W        W30755  11.508   4.625  13.078  0.3343 -0.0185 -0.0920
10476W        W30756   2.438   6.063   4.546  0.0532 -0.1623 -0.0212
10477W        W30757  10.128  14.618  13.454  0.3680  0.0193 -0.0991
10478W        W30758   2.776   4.696  12.515 -0.0225  0.1531  0.1091
10479W        W30759   0.838  12.707   3.425  0.3744  0.0264  0.1153
10480W        W30760   3.309  15.657  14.145  0.0029 -0.3272  0.2315
10481W        W30761   0.769   4.545  15.495  0.1525  0.0838 -0.0612
10482W        W30762  14.903  12.028   1.569  0.3034  0.0891  0.1614
10483W        W30763  11.669  14.894   4.216  0.1575 -0.1077  0.2705
10484W        W30764   1.366   3.098   2.307  0.0575 -0.3082  0.0165
10485W        W30765  10.420  11.239   2.404  0.1054 -0.0545 -0.2189
10486W        W30766   4.030  17.406  12.201  0.1381  0.2844  0.2310
10487W        W30767  16.459   1.965   1.880  0.0978  0.0009 -0.3015
10488W        W30768   9.768  13.283   4.067 -0.1715 -0.0137 -0.0466
10489W        W30769   0.358  12.528   0.418 -0.0647  0.0454  0.1571
10490W        W30770   1.182   2.468  16.313  0.1337 -0.1435 -0.2736
10491W        W30771   5.758   2.969  15.109  0.1074  0.1822 -0.0875
10492W        W30772  11.826   3.943   0.756 -0.0746  0.2543 -0.1054
10493W        W30773  15.553  17.562   5.050 -0.2381 -0.0969  0.3000
10494W        W30774   2.520   9.949  14.175 -0.1107 -0.2590 -0.0798
10495W        W30775   4.447  11.794  13.675  0.0064 -0.2356 -0.0425
10496W        W30776  14.917   9.740   2.014  0.0221 -0.1359  0.1395
10497W        W30777   2.563   0.958   4.726  0.0011  0.2742  0.0359
10498W        W30778  15.510   5.986  13.323 -0.3622 -0.0513 -0.1595
10499W        W30779  11.682   3.457   3.029 -0.2419  0.0546  0.0851
10500W        W30780   9.820   1.517  15.294  0.0943 -0.0189 -0.1020
10501W        W30781  12.593   1.820  13.126 -0.3123 -0.2847  0.1553
10502W        W30782   8.644   1.282  15.503 -0.1495  0.2731 -0.0671
10503W        W30783  11.767   8.589   5.795  0.3156  0.1620  0.3169
10504W        W30784   1.930   8.670  15.754 -0.1591 -0.0321 -0.0103
10505W        W30785  16.123  13.922   5.052 -0.2562 -0.1844 -0.2669
10506W        W30786   6.662  11.881   2.229  0.2014  0.3258  0.0026
10507W        W30787   2.612  15.109  14.743 -0.3567  0.1828  0.0287
10508W        W30788  11.342   7.157  13.884 -0.0783 -0.1130 -0.0690
10509W        W30789  11.919  12.707   2.518 -0.1362 -0.2078 -0.0785
10510W        W30790   8.380   3.884  12.301  0.1173  0.2354  0.0412
10511W        W30791   9.948  12.662   2.848 -0.2750 -0.0492 -0.0824
10512W        W30792   0.977  16.025   4.824 -0.0144  0.2396  0.0909
10513W        W30793   7.457   3.057   4.070  0.1143 -0.1321 -0.2416
10514W        W30794  13.553  16.642  14.772  0.1426 -0.1337  0.0373
10515W        W30795   0.802   8.755   1.606 -0.0740 -0.0144 -0.2521
10516W        W30796   4.773  13.200  15.074  0.0798 -0.1647 -0.1627
10517W        W30797   7.902   4.206  16.738 -0.0294 -0.0311  0.0565
10518W        W30798   8.728  10.662   1.723  0.0256  0.0586  0.1522
10519W        W30799   0.244   4.456   2.530  0.1901 -0.1449 -0.2387
10520W        W30800   1.508   7.662  15.410 -0.1188 -0.1718 -0.0368
10521W        W30801   1.689  17.647   4.664  0.0201 -0.1175 -0.2271
10522W        W30802  16.632   8.665  15.480 -0.4433 -0.0626 -0.1509
10523W        W30803   5.322  15.607   3.687 -0.0423 -0.3655 -0.1716
10524W        W30804   3.602  15.135   3.900 -0.2242  0.1428  0.0669
10525W        W30805  13.792   0.953   0.769 -0.0726 -0.1207  0.2163
10526W        W30806  10.798   5.715  13.431  0.1034  0.2771 -0.0138
10527W        W30807   8.084   8.510   4.452  0.1222  0.2930  0.3384
10528W        W30808   8.268  12.096  16.012  0.1502 -0.2819  0.2532
10529W        W30809   3.484   0.573  15.213  0.0197  0.0767 -0.2070
10530W        W30810  13.008   8.266   2.340 -0.1504 -0.0667 -0.2522
10531W        W30811   1.734  14.928  12.258 -0.0969 -0.3164 -0.1881
10532W        W30812  13.020  12.399  12.988 -0.0868  0.1448 -0.0403
10533W        W30813  15.962  12.146  14.677  0.2534  0.0817  0.0601
10534W        W30814   0.188   0.495  12.798 -0.0920  0.2056 -0.0490
10535W        W30815  12.333   7.747   1.808  0.2483  0.1903 -0.1460
10536W        W30816  14.614  14.948  14.707  0.0474 -0.1885 -0.0761
10537W        W30817  15.866   2.560   3.119 -0.0895  0.2037 -0.2449
10538W        W30818   2.604  10.858   4.414  0.1220 -0.1864  0.4128
10539W        W30819   0.402  13.024   1.614  0.1080 -0.1361 -0.0045
10540W        W30820   6.611  12.774   2.504 -0.3007 -0.1446 -0.1644
10541W        W30821   5.195   6.766   4.017 -0.3301  0.1033  0.2397
10542W        W30822  14.931   7.951   3.534 -0.0590  0.2383 -0.1920
10543W        W30823   8.946   8.178   0.093  0.0068 -0.0324 -0.1573
10544W        W30824   3.818  15.243  15.283  0.3149  0.3171 -0.0391
10545W        W30825  16.929   4.497   3.045 -0.0184  0.0032  0.1349
10546W        W30826   7.649  16.769   1.629  0.2730  0.2959  0.2498
10547W        W30827  11.123  10.797   1.317 -0.0674 -0.2734  0.1143
10548W        W30828  16.110   3.680   1.333 -0.1765 -0.0179 -0.0802
10549W        W30829  13.742   1.621  14.188  0.4816  0.0149  0.2328
10550W        W30830  10.113   2.584   2.775  0.1752  0.3585  0.0629
10551W        W30831   9.256  16.239  13.156 -0.1246  0.1578 -0.1121
10552W        W30832   2.455  11.988  13.148  0.0932 -0.1801  0.2742
10553W        W30833  13.949   3.904  12.971  0.2133 -0.0480 -0.2495
10554W        W30834  10.928  15.750   5.878 -0.1664 -0.1455  0.5031
10555W        W30835   5.764   6.119   5.229  0.0520  0.1261  0.0358
10556W        W30836   8.232   9.857   1.880  0.1107 -0.0897 -0.1403
10557W        W30837   3.465  12.530   0.345 -0.1015  0.1890  0.1457
10558W        W30838  14.693   2.498  12.013  0.1233 -0.3414  0.0362
10559W        W30839   9.413   9.643  13.988  0.0155 -0.0290  0.0753
10560W        W30840   3.528  13.512  13.840  0.4795 -0.2513 -0.1540
10561W        W30841   3.666  11.527   0.780 -0.3258  0.1434 -0.1523
10562W        W30842  11.552   3.644  15.989 -0.1674  0.1118  0.2136
10563W        W30843   4.850   9.784  13.467  0.1484  0.1428  0.0014
10564W        W30844  10.968   7.673  16.842  0.4002  0.0033 -0.0698
10565W        W30845   4.122   8.713  11.974  0.0494  0.3218  0.0113
10566W        W30846   7.370   5.661   1.598  0.1097  0.0132  0.1207
10567W        W30847   5.535  14.938   0.116 -0.1025 -0.1556 -0.1774
10568W        W30848   6.071  13.570   2.977  0.4649  0.1228  0.3191
10569W        W30849   1.628  14.985   4.853  0.1330 -0.0975 -0.4528
10570W        W30850  14.461   5.795  16.357 -0.2467  0.0523 -0.0632
10571W        W30851  10.333   5.892   3.959 -0.2835 -0.1861  0.3139
10572W        W30852  14.654   8.169  15.490  0.2707  0.3207  0.0828
10573W        W30853   8.243   0.830  12.950 -0.1957 -0.1916 -0.0578
10574W        W30854   9.442   1.495  14.664  0.1917  0.1070  0.2482
10575W        W30855  16.647  17.357  13.342 -0.1465  0.1394 -0.1665
10576W        W30856   2.828   2.135   0.565 -0.0836  0.1389 -0.1450
10577W        W30857  13.137   2.599  13.024 -0.0017  0.3079  0.1261
10578W        W30858  13.748  14.361  13.162 -0.5621  0.0036 -0.2088
10579W        W30859   1.971  11.252   1.312 -0.0604  0.3465 -0.0938
10580W        W30860   9.825   7.650  12.666  0.3203  0.0674  0.0557
10581W        W30861   4.684  15.970  12.265 -0.0836 -0.0010 -0.2598
10582W        W30862  15.426   2.550  14.094 -0.0493 -0.1236 -0.1530
10583W        W30863   4.878   8.596  12.256  0.1773 -0.1023  0.2038
10584W        W30864   6.888   7.867   2.981 -0.0436 -0.1524  0.3583
10585W        W30865  12.904   8.483   1.593  0.0736 -0.2809 -0.1629
10586W        W30866  13.971   7.944   0.301  0.1723  0.1919 -0.0152
10587W        W30867   0.338  14.960  12.834  0.0868 -0.0084  0.3119
10588W        W30868   1.724   9.618   4.330  0.0003 -0.3341 -0.1388
10589W        W30869   1.968  17.474  15.286  0.2044 -0.2182  0.0497
10590W        W30870   3.967   0.572  14.434 -0.2715 -0.1292 -0.2644
10591W        W30871   9.646   3.478   4.344  0.0455  0.1975  0.1538
10592W        W30872   9.894   7.517   0.213 -0.0015  0.1727 -0.1567
10593W        W30873  11.190   0.372  15.047  0.0189  0.0744 -0.0053
10594W        W30874   0.625  16.323   2.170 -0.0376  0.0279  0.2448
10595W        W30875   6.522  17.565   3.051 -0.0719  0.0187 -0.1527
10596W        W30876   2.785   5.494  13.619  0.1571  0.0281  0.1140
10597W        W30877  10.957  16.524   4.657 -0.4127  0.1631  0.0629
10598W        W30878  14.555   7.035   3.174  0.1071 -0.0753 -0.1979
10599W        W30879   9.799   9.240   4.076  0.3572  0.0529 -0.1443
10600W        W30880   3.711   7.872  12.143  0.0626 -0.1291  0.1671
10601W        W30881   3.109  10.688   3.569 -0.1535 -0.0746 -0.0156
10602W        W30882   8.595  10.205  13.432 -0.1970  0.1120  0.0369
10603W        W30883   7.329  13.856  15.099  0.2527  0.1262 -0.1729
10604W        W30884   9.786  12.522  16.501 -0.2507  0.3302 -0.2262
10605W        W30885   5.219   0.488   2.714  0.0979  0.2212 -0.1635
10606W        W30886   6.908   7.174   0.439 -0.0214  0.2023 -0.4032
10607W        W30887   0.488   0.528  16.381  0.1345 -0.0690  0.2395
10608W        W30888   4.359   4.868   2.654  0.0890  0.0348 -0.2959
10609W        W30889   6.069   6.872  15.400 -0.0028 -0.3903 -0.0776
10610W        W30890   1.597  16.407  12.635 -0.1357  0.0110 -0.0071
10611W        W30891  13.237   7.798  13.014  0.2282  0.1005 -0.0966
10612W        W30892  12.153   2.834  14.872 -0.1778  0.1850 -0.1721
10613W        W30893   4.111   5.961  13.015 -0.0212 -0.0411  0.1673
10614W        W30894  15.008  16.857   2.596 -0.1486  0.2480  0.1636
10615W        W30895   2.105  14.094   3.271 -0.0894  0.0026 -0.0566
10616W        W30896  12.971  14.533   1.094 -0.1878 -0.1746 -0.2804
10617W        W30897   3.245  11.540   3.701 -0.0883  0.1262  0.1273
10618W        W30898   8.185   7.895   2.381  0.0063 -0.0380  0.2984
10619W        W30899  13.124  12.502   4.262  0.1834 -0.1890  0.1790
10620W        W30900  17.464  10.178   2.633  0.1501  0.1671  0.1267
10621W        W30901  13.722   1.204  16.207  0.1392  0.4089 -0.1190
10622W        W30902  13.203   5.120  12.955 -0.1240 -0.2636  0.2838
10623W        W30903  10.928  13.056  15.683 -0.0091 -0.0597  0.4452
10624W        W30904  14.776  17.482  16.288  0.0483  0.2649 -0.1080
10625W        W30905  10.581   4.705  16.558 -0.3318  0.2975  0.1486
10626W        W30906   9.461  15.826  16.707 -0.0409 -0.0876  0.1900
10627W        W30907   3.446  13.808   0.541 -0.0667  0.1672 -0.0402
10628W        W30908  11.026   1.127  14.850 -0.1415  0.0204  0.1535
10629W        W30909   3.176  15.826  12.915  0.1061  0.0732 -0.0276
10630W        W30910   2.919  14.028  12.524 -0.1782  0.0205 -0.0765
10631W        W30911  17.397   1.343  13.007 -0.3954 -0.0217 -0.2318
10632W        W30912  15.083   4.417  16.764  0.0655 -0.1878 -0.1422
10633W        W30913   0.209  11.393  12.639  0.0222  0.0879 -0.2154
10634W        W30914  11.781  15.198  16.155  0.2928  0.0646 -0.2128
10635W        W30915  11.359   1.783  12.091 -0.2898  0.1162  0.2262
10636W        W30916   1.147   4.453   2.734 -0.0838 -0.1904  0.0623
10637W        W30917  14.993  15.494   4.088  0.2282 -0.1087 -0.1199
10638W        W30918  11.567  17.264   0.549  0.0758 -0.0087  0.2924
10639W        W30919   1.618   3.921  12.612  0.0703  0.0870  0.3421
10640W        W30920   6.177   0.229   2.505  0.1491  0.1259 -0.0597
10641W        W30921  10.480   5.846   2.556  0.0479 -0.0530  0.0157
10642W        W30922   2.487   5.439   0.701 -0.2160  0.0050  0.0861
10643W        W30923   0.568   0.298  13.089  0.0034  0.1460 -0.0180
10644W        W30924  11.744   1.934  14.030 -0.2249 -0.0844  0.1337
10645W        W30925  16.411  16.221  14.076 -0.1219  0.0521 -0.3483
10646W        W30926  11.913   1.051   1.162 -0.2491 -0.0017 -0.1244
10647W        W30927  14.356  11.735   6.703  0.0495  0.4908  0.0201
10648W        W30928   9.742   3.731   0.304 -0.4090 -0.0327 -0.0705
10649W        W30929   0.680  15.056  11.974 -0.1070 -0.1893  0.2130
10650W        W30930  10.185   6.294   2.493  0.1376  0.1745 -0.0297
10651W        W30931   8.614  12.941  10.929  0.6126 -0.5105 -0.0905
10652W        W30932  14.412  13.999  16.404 -0.2123  0.0074 -0.2215
10653W        W30933  10.433   1.717   1.028  0.2787 -0.0248 -0.2328
10654W        W30934   0.566   5.195  16.484  0.0126  0.2272 -0.4709
10655W        W30935   4.859   9.007   3.459 -0.1403 -0.2912  0.0671
10656W        W30936   5.907   2.864  16.748  0.1366  0.2065 -0.0240
10657W        W30937   5.565   0.545  16.298  0.0031  0.0079 -0.1089
10658W        W30938   0.663   7.623  14.476  0.1778  0.2828 -0.0375
10659W        W30939  12.476  13.062   1.376 -0.0621 -0.0667 -0.4374
10660W        W30940   2.615   9.516  12.436  0.1955 -0.1552 -0.1619
10661W        W30941   6.567   7.100  13.025  0.1693  0.3238 -0.1799
10662W        W30942  16.503   3.682   4.287  0.0285 -0.1568  0.1131
10663W        W30943   5.744  12.117  16.635  0.1405  0.0350 -0.1680
10664W        W30944   7.869  12.445  15.538 -0.2613  0.1647 -0.3913
10665W        W30945  14.949  15.213  14.962  0.2650 -0.0291  0.1593
10666W        W30946  17.125   2.002  13.540 -0.1253 -0.0278 -0.0765
10667W        W30947  14.086   1.503  16.533 -0.0260  0.0951 -0.2433
10668W        W30948  15.301   2.983  13.672 -0.2799 -0.1581 -0.0081
10669W        W30949  10.225   1.409   2.834 -0.3469 -0.0729 -0.2300
10670W        W30950   7.908  13.393   0.057  0.3005  0.0092 -0.2521
10671W        W30951   4.398   2.140  16.031 -0.0987  0.1846  0.0829
10672W        W30952  13.412  14.065   3.259  0.1244 -0.1673 -0.0484
10673W        W30953  15.922   6.474  16.191  0.1571  0.0688 -0.0694
10674W        W30954   2.140   3.647   1.276 -0.0940  0.0255 -0.1531
10675W        W30955   9.831   0.887   4.290  0.1442 -0.1903  0.0228
10676W        W30956  11.076   5.381   4.413 -0.3354  0.3606 -0.1191
10677W        W30957   9.673  12.794   3.943 -0.1073 -0.3258 -0.5520
10678W        W30958   5.050  15.186  13.271 -0.0353  0.1032 -0.1490
10679W        W30959   5.622   9.816  14.389  0.1895 -0.2534 -0.1676
10680W        W30960  10.890   7.145   3.847  0.2247  0.1517  0.0493
10681W        W30961   3.356   6.965   2.368  0.0611  0.0655  0.0848
10682W        W30962  10.629  12.315  13.451 -0.0880 -0.0185 -0.0587
10683W        W30963  14.385  15.898  16.199 -0.1922 -0.1475 -0.1968
10684W        W30964   0.706   1.882  12.449  0.1391 -0.3468  0.0768
10685W        W30965  15.551  16.702  16.291  0.0255  0.1064  0.1659
10686W        W30966   5.205  12.687   0.774  0.1187  0.1663  0.0376
10687W        W30967  16.563   2.286  13.545 -0.1446  0.2292 -0.0140
10688W        W30968  10.825  15.791   4.955  0.2258 -0.1949 -0.2734
10689W        W30969   6.730   4.945   4.376 -0.0089 -0.0599 -0.2372
10690W        W30970   4.285  17.213   0.958  0.0626  0.2092  0.5390
10691W        W30971   3.646   2.578   3.666 -0.1319  0.1917  0.2803
10692W        W30972   8.176   5.805   4.570 -0.2778 -0.2430  0.0889
10693W        W30973   1.671   9.316  12.444  0.1050 -0.0101 -0.0426
10694W        W30974   7.227   3.260  12.106  0.0229 -0.0827 -0.1246
10695W        W30975   8.702   4.318  16.456  0.1953 -0.1621  0.3669
10696W        W30976   9.636   2.650   2.664  0.0640 -0.1686  0.0494
10697W        W30977  16.269   6.028   3.257  0.1268 -0.1227  0.0002
10698W        W30978  17.324   6.533   0.602  0.0291  0.1824  0.0881
10699W        W30979   9.318  16.862  15.101  0.0873 -0.1117  0.0912
10700W        W30980  10.916   3.556   3.048 -0.2182 -0.2254  0.1370
10701W        W30981  11.680  11.585   1.763  0.0524 -0.1202 -0.1436
10702W        W30982   2.895  14.511   0.592  0.1608 -0.2755  0.0916
10703W        W30983   5.072   2.118  16.646  0.2454 -0.0874 -0.0261
10704W        W30984  17.113   5.675   4.307  0.0638  0.3100  0.3960
10705W        W30985   0.730  10.554  13.116 -0.1936  0.2112 -0.0213
10706W        W30986   9.597   1.930   5.157 -0.0023 -0.2659  0.0556
10707W        W30987   5.334  15.313  14.416  0.2431  0.1673  0.0876
10708W        W30988  15.209   1.435   3.166 -0.0352  0.3498 -0.2648
10709W        W30989   1.593  10.452  14.874 -0.3053  0.0629  0.0730
10710W        W30990  13.027  16.668   2.436 -0.4066 -0.1612  0.2317
10711W        W30991   0.867  10.332  15.144  0.2911  0.0351  0.3193
10712W        W30992   5.382  14.817  14.257 -0.2167  0.0264  0.0373
10713W        W30993   1.036   6.959  11.922  0.1606  0.2652  0.0542
10714W        W30994  11.142  13.263  16.122  0.2380  0.1105 -0.0080
10715W        W30995  11.637  16.880  15.728 -0.1588  0.3104  0.0234
10716W        W30996   6.919   6.464   4.669 -0.0562  0.0632  0.0185
10717W        W30997  15.662   5.114  13.852 -0.1700  0.0674 -0.1054
10718W        W30998  14.463   0.589  13.806  0.2459 -0.3311  0.2490
10719W        W30999  10.002   6.154  15.244  0.2280  0.2283  0.0387
10720W        W31000   3.829   4.629  14.797  0.1406 -0.1336  0.3876
10721W        W31001  16.133  14.338  12.678  0.1408 -0.3678 -0.2022
10722W        W31002   4.914   7.245  13.303  0.0081  0.1213 -0.0985
10723W        W31003   2.817  15.009  15.592 -0.0981  0.0442 -0.0670
10724W        W31004  13.099   5.267   3.031  0.2244  0.1438 -0.1227
10725W        W31005  14.538   4.781  13.846  0.0124  0.1394  0.1156
10726W        W31006  17.226   9.121  15.645 -0.1527 -0.0586 -0.2429
10727W        W31007  12.970   4.708   6.654 -0.1241  0.0393 -0.1831
10728W        W31008  17.240   7.007   0.397 -0.1409 -0.0600 -0.2650
10729W        W31009  10.069  13.785  13.389  0.1806 -0.0273 -0.2271
10730W        W31010  12.224  14.071  13.182  0.0084  0.1539  0.1303
10731W        W31011  14.449  13.412  13.015 -0.0775 -0.1535 -0.1416
10732W        W31012  15.513  14.146   0.133  0.0742 -0.0772 -0.2540
10733W        W31013  13.405   5.606  15.146 -0.0138  0.0534 -0.2036
10734W        W31014   4.835  10.092  11.980  0.0209  0.1045 -0.1128
10735W        W31015  15.993  17.521  12.510 -0.1244  0.2161  0.2581
10736W        W31016   5.833  10.451   2.778 -0.1596 -0.3287 -0.3541
10737W        W31017   2.016   2.322  11.982 -0.0669 -0.1927 -0.0666
10738W        W31018  15.616   3.602   3.989  0.3552  0.1772 -0.1750
10739W        W31019  13.061  15.309   3.016 -0.0657 -0.2412 -0.0353
10740W        W31020  14.739   7.119  15.430  0.1681 -0.0399  0.0429
10741W        W31021   8.249  12.573  15.153  0.3504  0.6550  0.0540
10742W        W31022  16.099   5.239  14.073 -0.1419 -0.0197  0.1691
10743W        W31023   4.438   8.446  12.283 -0.2560 -0.2016  0.0818
10744W        W31024   2.067  12.172   3.644 -0.0754 -0.1000 -0.1293
10745W        W31025  11.193   9.086  15.919 -0.0683 -0.1762  0.1231
10746W        W31026  10.282   6.043  15.674 -0.1591 -0.1363  0.3270
10747W        W31027   9.380  12.075   4.821 -0.0272  0.2245  0.1461
10748W        W31028   9.048   8.352   0.943  0.2833  0.1365  0.1444
10749W        W31029  12.146   2.471   2.042  0.0084 -0.1214  0.0166
10750W        W31030   4.055   3.827   1.589 -0.0948 -0.2180 -0.0288
10751W        W31031  10.052   2.892  12.032 -0.0509  0.1776  0.3233
10752W        W31032   7.726  14.113  14.301  0.1619 -0.0942  0.0445
10753W        W31033  11.337  14.625   5.349  0.0765 -0.1331  0.0106
10754W        W31034   7.021  16.146   3.779 -0.1988 -0.0517  0.1046
10755W        W31035  11.096   5.054   0.897 -0.0688 -0.1572 -0.0404
10756W        W31036   9.158   8.757  12.694 -0.2061 -0.0332 -0.3994
10757W        W31037  14.926  17.421   2.178  0.0482  0.0100 -0.2303
10758W        W31038  12.622  12.694  15.552 -0.0277  0.1247  0.0533
10759W        W31039   9.872  14.404   1.141 -0.1409  0.0796 -0.0376
10760W        W31040  15.732   8.319   2.977  0.0970 -0.1244 -0.0355
10761W        W31041  17.007   7.272  15.014  0.2514  0.0784  0.3975
10762W        W31042  17.277   0.634  16.615  0.2944  0.1376  0.1921
10763W        W31043  17.002   1.091   4.778 -0.0642  0.0656  0.2141
10764W        W31044   5.323  15.077   0.557  0.1679 -0.3110  0.3073
10765W        W31045  15.843  10.881   3.702  0.0467  0.1469 -0.0004
10766W        W31046  14.764  14.134  15.012 -0.3696 -0.1194 -0.4540
10767W        W31047  13.712  14.329   3.694  0.2609 -0.0230  0.2017
10768W        W31048   3.640  14.771  13.649 -0.3034 -0.0444  0.0997
10769W        W31049  14.533  12.460  12.757  0.0462  0.1522 -0.2284
10770W        W31050   6.078  17.510  13.407 -0.0605 -0.3088  0.1604
10771W        W31051   7.926   5.560  12.430 -0.1689 -0.0509  0.1730
10772W        W31052  13.339   8.595   2.493 -0.3544 -0.0027 -0.2068
10773W        W31053   2.769  14.310  15.272 -0.2840 -0.0748  0.2224
10774W        W31054  11.599   3.550   2.402 -0.0758  0.0862 -0.0432
10775W        W31055  10.685  11.197   0.945  0.2396  0.0560  0.0734
10776W        W31056  11.474   0.802  13.487  0.1218 -0.1979 -0.5141
10777W        W31057  16.031   5.309   0.595 -0.1754  0.3217  0.2704
10778W        W31058  11.019   4.603   2.788  0.0194 -0.0967 -0.1382
10779W        W31059   3.225   8.347   4.326  0.0819  0.0226 -0.0934
10780W        W31060   2.859  11.088   1.207 -0.3003 -0.2965 -0.1073
10781W        W31061   2.617   4.386   4.669  0.1496 -0.0688  0.0134
10782W        W31062  17.170   5.605  12.550  0.1080 -0.0793  0.0649
10783W        W31063  16.775   2.064  16.752 -0.0286 -0.1281  0.0952
10784W        W31064   8.428   9.447   4.225  0.0158  0.0819  0.2375
10785W        W31065   1.761   0.726   4.101 -0.2186 -0.0685  0.0252
10786W        W31066  17.536  11.805  15.888 -0.3807  0.2012  0.1722
10787W        W31067   5.644   7.307   4.615  0.0903 -0.3279  0.3058
10788W        W31068   5.777  13.508   3.405  0.0815 -0.1639  0.0097
10789W        W31069  12.473   7.164   2.065 -0.0106  0.0587 -0.0472
10790W        W31070   8.256   8.768  12.212  0.1517 -0.0121 -0.0930
10791W        W31071  17.126   7.280   3.836 -0.1393  0.2809  0.1299
10792W        W31072  11.335  17.553  12.787  0.0266 -0.0455  0.2577
10793W        W31073   5.627  10.253  13.651 -0.1407 -0.1720 -0.1028
10794W        W31074  14.062  16.997  13.171  0.0551 -0.1523  0.0639
10795W        W31075   8.635  12.568   3.377  0.1539 -0.4896  0.0293
10796W        W31076  12.137  11.099   0.917  0.1691 -0.0734 -0.3026
10797W        W31077  12.284   0.356  13.367 -0.1078  0.0969 -0.0066
10798W        W31078   6.708  15.567  15.176  0.0965 -0.1103 -0.2409
10799W        W31079  17.333   0.054   1.685 -0.1580 -0.0018 -0.0334
10800W        W31080   8.057  15.177   3.049  0.1237 -0.1362  0.0306
10801W        W31081   6.834   2.682   1.501 -0.1164  0.1493 -0.0774
10802W        W31082  12.778  14.140   4.558 -0.0148  0.2679  0.2292
10803W        W31083   6.441  16.768  14.551  0.0351  0.1596  0.1672
10804W        W31084   9.058   9.415  14.241 -0.1191  0.0815  0.5421
10805W        W31085   7.271   2.726   4.491 -0.2202 -0.1248 -0.2834
10806W        W31086  10.582   0.330   4.722 -0.0665 -0.1880  0.1264
10807W        W31087   9.489   1.421  16.294  0.1065  0.0959 -0.4022
10808W        W31088   8.376   6.011   2.405 -0.1540  0.3528  0.2996
10809W        W31089  16.328  13.708   2.554  0.1966 -0.2004  0.0780
10810W        W31090  15.926   2.150  15.342  0.3194 -0.0729 -0.0048
10811W        W31091   4.691  11.802   0.562  0.0906 -0.2520  0.0943
10812W        W31092   4.593   4.903   4.477 -0.3406 -0.0720  0.0809
10813W        W31093   4.656   2.711   2.923 -0.1692  0.2432  0.0486
10814W        W31094  16.137   6.630   3.846 -0.0711  0.0673 -0.1879
10815W        W31095   5.338   0.194  13.711 -0.1025 -0.4803 -0.0858
10816W        W31096  13.066   5.370  12.442 -0.0215 -0.0771 -0.0604
10817W        W31097   9.581  17.275   3.474  0.0397 -0.1390  0.2648
10818W        W31098  13.955   0.789   3.342  0.0859 -0.0439 -0.0814
10819W        W31099   3.376  17.695   1.896  0.2839 -0.1906  0.0082
10820W        W31100  10.223  10.749  15.068  0.1525  0.3047 -0.0799
10821W        W31101   2.669  16.478   1.112 -0.3185  0.1015 -0.0490
10822W        W31102   8.724  15.544  16.098 -0.0274  0.0897 -0.3487
10823W        W31103   9.365  12.739   3.553  0.0415 -0.1391  0.1326
10824W        W31104   1.028   8.919   3.287  0.2592 -0.1492  0.1573
10825W        W31105   2.430   7.066   1.226  0.0488 -0.0957 -0.3182
10826W        W31106   5.471   1.501   2.088 -0.1488  0.1675 -0.1653
10827W        W31107  16.859   2.865   4.492 -0.0253 -0.1242 -0.1168
10828W        W31108  17.133  17.287   2.311 -0.0117  0.2945  0.2663
10829W        W31109  16.072   1.746   0.101  0.1159  0.2143 -0.1095
10830W        W31110   5.153   3.781  15.983 -0.1140 -0.0186  0.1081
10831W        W31111  10.909  14.076  12.886  0.1452 -0.1422 -0.0817
10832W        W31112  14.598   9.933  15.516 -0.1541  0.1123 -0.0958
10833W        W31113   9.237   3.533   0.995 -0.0356  0.2725 -0.1557
10834W        W31114   8.116  15.773  14.547 -0.2424  0.2116 -0.3669
10835W        W31115   7.453   9.656  12.086  0.0605 -0.0174  0.2446
10836W        W31116   9.092   0.001  14.641  0.1135 -0.0892  0.1794
10837W        W31117   2.880  12.228  14.415 -0.1871 -0.0067 -0.0534
10838W        W31118   4.480  16.275  16.847 -0.2037 -0.0664  0.1796
10839W        W31119   0.956   8.807   2.438 -0.2972  0.3197 -0.1633
10840W        W31120   2.098  15.847  14.731  0.2484  0.1754 -0.0888
10841W        W31121   9.132  11.828   3.445 -0.0388  0.2719 -0.0377
10842W        W31122   6.108  15.932   2.355 -0.1933  0.0116  0.0374
10843W        W31123  10.879   8.272  16.739  0.2102 -0.0736  0.0917
10844W        W31124  16.251   0.512   0.644 -0.1274 -0.2483 -0.0824
10845W        W31125   1.245   7.924  15.740 -0.0148  0.1569 -0.1116
10846W        W31126  17.290  12.788   4.189  0.1782  0.0844 -0.1361
10847W        W31127   6.917   0.840  16.858  0.2569 -0.0801 -0.0622
10848W        W31128   8.332  16.780  12.072  0.0684  0.1248  0.1485
10849W        W31129   0.174   6.797  13.702 -0.0899 -0.0425  0.2025
10850W        W31130  16.643  11.775  16.043  0.2520 -0.0269  0.1376
10851W        W31131   1.403   7.689   3.028 -0.1592  0.1196  0.1508
10852W        W31132   3.892   1.982  13.797 -0.1595 -0.1249 -0.1912
10853W        W31133   0.327   7.327  12.573  0.1373 -0.1111  0.1395
10854W        W31134   1.535  16.673   3.513 -0.2147  0.2820  0.2811
10855W        W31135   3.840   9.824  13.172  0.0317 -0.0769  0.1564
10856W        W31136  13.324  17.672   0.944  0.1418 -0.0280 -0.0343
10857W        W31137   5.190  14.590  12.489  0.0626 -0.2066  0.1021
10858W        W31138   9.746   7.535  12.145 -0.1491 -0.1086 -0.0534
10859W        W31139  15.077   0.415   0.657 -0.1105 -0.1342 -0.2011
10860W        W31140  11.694  14.615  14.973  0.2783 -0.0653  0.0463
10861W        W31141  13.004   4.306  15.731  0.1858  0.1967  0.1293
10862W        W31142  15.068   3.988   1.633  0.0712 -0.1800 -0.1445
10863W        W31143   5.133   7.984   4.023 -0.1225 -0.1664 -0.2875
10864W        W31144  15.410  14.800  13.547  0.0336 -0.0269 -0.0786
10865W        W31145  10.744  12.776   1.126 -0.0783 -0.0555 -0.0223
10866W        W31146  12.166   7.330   3.652  0.0690 -0.0199 -0.0792
10867W        W31147   6.709   3.182  14.610  0.3325  0.1515  0.1223
10868W        W31148   5.907  16.960   2.637  0.0358  0.3856 -0.4974
10869W        W31149   1.936   6.601   2.510 -0.0498  0.2468 -0.3408
10870W        W31150   8.137  14.697  16.042 -0.0310  0.1006  0.2266
10871W        W31151   3.734  12.616  12.090  0.1594  0.0145  0.2661
10872W        W31152   6.780   2.532   3.008 -0.1040  0.0064 -0.3887
10873W        W31153   7.916   6.273  12.219 -0.3646  0.2428 -0.1238
10874W        W31154  13.077  14.943  16.807 -0.0331  0.2254  0.1479
10875W        W31155   1.213   7.341  12.174 -0.0391  0.1066  0.0348
10876W        W31156   3.133  16.158   1.117  0.1423  0.0896  0.0527
10877W        W31157  11.221  12.259  13.770 -0.0962  0.1764  0.1368
10878W        W31158  11.565   8.313   4.760 -0.0100 -0.4403  0.1839
10879W        W31159  17.517   3.288  12.275 -0.3110  0.0299  0.0388
10880W        W31160   3.110   3.852  16.440 -0.0217 -0.2102 -0.0944
10881W        W31161  14.904  12.630   2.804  0.3456  0.0752 -0.1505
10882W        W31162   4.307  16.070   2.581 -0.0503 -0.0826  0.1131
10883W        W31163   7.250   4.524   2.652 -0.0094  0.0463 -0.0065
10884W        W31164   3.130   7.852  16.635  0.0097  0.2233  0.0266
10885W        W31165   7.897  13.858   4.855  0.0204 -0.0414 -0.2123
10886W        W31166  15.968   5.162  15.921 -0.0749  0.2086  0.2101
10887W        W31167   6.641   2.907   3.602  0.1152 -0.0857 -0.1254
10888W        W31168  16.930  13.108  12.592  0.3162 -0.0370 -0.1156
10889W        W31169  16.990  11.303   0.061  0.1014  0.1757 -0.0447
10890W        W31170  12.598   1.984   5.639  0.0404 -0.0185 -0.0907
10891W        W31171   4.674  11.701   3.807 -0.0701 -0.0611  0.0203
10892W        W31172   5.195  13.736  13.152 -0.0499 -0.0138 -0.1056
10893W        W31173  17.711   7.255  13.707 -0.0454  0.1966  0.2240
10894W        W31174  13.892  15.025   3.021 -0.0215  0.1504 -0.3093
10895W        W31175   3.257  16.601   4.041  0.2568  0.1405  0.0381
10896W        W31176  13.324  11.284  14.430  0.0152 -0.2707 -0.1239
10897W        W31177   3.837  15.906  16.456  0.3026 -0.0260 -0.1995
10898W        W31178  11.541  14.067   2.694 -0.1719  0.1893  0.1148
10899W        W31179   5.282   7.484   1.063 -0.2330  0.2208 -0.2062
10900W        W31180   8.318   9.803  13.939  0.1130  0.0758  0.1422
10901W        W31181   0.543  14.592   1.721 -0.2919  0.0765  0.0036
10902W        W31182  17.546  11.031   3.607  0.0726 -0.0545 -0.0665
10903W        W31183   0.113   2.003  13.228  0.3642 -0.4738 -0.0374
10904W        W31184  12.631  13.286   3.400 -0.2449 -0.6996  0.1082
10905W        W31185  14.462  12.336   5.099 -0.2338  0.0160  0.1188
10906W        W31186   6.788   6.450  14.818  0.0512 -0.2263 -0.1930
10907W        W31187   5.732   4.503  14.202 -0.1081 -0.2919 -0.1012
10908W        W31188  12.596  12.373  15.086 -0.1621 -0.0536  0.0093
10909W        W31189  11.391  16.021   2.907 -0.0678  0.0451 -0.0331
10910W        W31190  17.260   0.294   2.511 -0.0276  0.1474 -0.1847
10911W        W31191   9.783   7.227  14.948  0.2184  0.0100  0.0248
10912W        W31192   1.955  12.698   1.149  0.1157 -0.0414 -0.0647
10913W        W31193  17.661   3.016   3.348  0.0397 -0.2406 -0.5102
10914W        W31194   9.356   7.814  12.778  0.2205  0.1834  0.0675
10915W        W31195  13.397   1.113  15.370 -0.2221  0.0098 -0.0321
10916W        W31196  12.674  14.351  14.930  0.0723 -0.2938  0.0545
10917W        W31197   5.281  13.580  14.721 -0.0576  0.1872 -0.0686
10918W        W31198  16.392   2.642  13.962  0.2425  0.1581 -0.2673
10919W        W31199   4.179   6.630  14.372  0.2409  0.0237  0.1562
10920W        W31200   4.095  17.433   3.135  0.0022  0.2188  0.0283
10921W        W31201   6.650  10.923   1.541 -0.1521  0.1605 -0.0670
10922W        W31202   8.602  15.713  16.552 -0.0187  0.0360 -0.1696
10923W        W31203   9.605  12.550   1.946 -0.2540  0.2728  0.3549
10924W        W31204  16.129  12.361   2.352  0.1626  0.1104  0.1039
10925W        W31205   4.781   7.102  15.240  0.1031  0.0653  0.0803
10926W        W31206  11.834   2.373   4.934 -0.2990  0.1797 -0.0128
10927W        W31207   9.306  11.008  14.145  0.1427  0.1640  0.0719
10928W        W31208  13.552   0.126  14.482 -0.0591  0.2731 -0.0876
10929W        W31209   6.398  14.357  12.340  0.0026 -0.0294 -0.3740
10930W        W31210  13.548   8.775  12.905 -0.2278 -0.2012 -0.1998
10931W        W31211  17.383   5.010   2.965  0.0147 -0.1248 -0.1549
10932W        W31212   9.783  11.052  14.275 -0.1277 -0.1887  0.1519
10933W        W31213  14.219   2.229   1.226 -0.1431 -0.1397  0.3376
10934W        W31214  11.716  16.028   4.896  0.1763  0.0439  0.2487
10935W        W31215  13.726   4.788   4.423  0.1698 -0.1725  0.1655
10936W        W31216  12.648   9.736   2.823  0.0524  0.0100 -0.1081
10937W        W31217   0.579   3.220   0.545  0.1139  0.1718 -0.2199
10938W        W31218   1.792   7.563  16.680  0.0948  0.0666  0.1913
10939W        W31219  13.328  12.624   3.841  0.0330  0.1106  0.3227
10940W        W31220   7.605  12.022  15.815  0.0494 -0.0370  0.1786
10941W        W31221   2.195  16.549  14.750  0.0166  0.0020  0.0621
10942W        W31222   1.454   6.827  13.049  0.0452  0.1880  0.2966
10943W        W31223   2.750   3.871   1.741  0.3321 -0.0568  0.2493
10944W        W31224  14.562   5.536   4.847 -0.0896  0.2300  0.0303
10945W        W31225   0.786   6.405  12.706 -0.0912 -0.0293  0.0983
10946W        W31226   8.116   5.387  16.745  0.1313  0.1458 -0.0295
10947W        W31227  14.276   2.296  15.399 -0.0677 -0.0694 -0.1109
10948W        W31228   4.672   1.357   1.719  0.0481  0.2200 -0.0638
10949W        W31229   5.076   2.558  13.600 -0.0938  0.0320 -0.1113
10950W        W31230  16.081   6.332  14.388 -0.0850  0.2553  0.1456
10951W        W31231   2.364  15.475  15.042  0.1068 -0.2313 -0.2344
10952W        W31232  10.293  14.304   2.954 -0.0555 -0.1254 -0.0172
10953W        W31233  12.822   8.464  14.893  0.2710 -0.0004  0.0147
10954W        W31234  11.078   6.603  16.172 -0.1010 -0.0183 -0.3013
10955W        W31235   0.627   8.604  14.668  0.4097 -0.0725  0.0148
10956W        W31236   2.069   5.282   2.686 -0.0220  0.0954 -0.1579
10957W        W31237   0.321  15.248   0.563 -0.1136 -0.3574 -0.1674
10958W        W31238  12.483   7.613   2.263 -0.2247  0.1815 -0.1579
10959W        W31239   6.250  12.423  14.846 -0.0271 -0.1228  0.3742
10960W        W31240   9.250   4.053  13.805 -0.0956  0.3686  0.1318
10961W        W31241  10.749  14.348  15.870  0.2426  0.0551  0.2035
10962W        W31242  11.255  10.855   3.156  0.0726  0.2401  0.0404
10963W        W31243   2.981   0.914   0.838 -0.1004 -0.0937 -0.2162
10964W        W31244   4.205  11.214  14.401 -0.1095 -0.0325 -0.1980
10965W        W31245   5.081   6.775  13.309 -0.0870 -0.1138  0.2117
10966W        W31246   3.879   9.305  12.988  0.1212  0.2134 -0.2367
10967W        W31247  15.626  12.167  14.304  0.1546  0.1517 -0.0213
10968W        W31248  13.517  10.546   4.363 -0.0333  0.1442 -0.1476
10969W        W31249   0.493  10.594   1.472 -0.0158 -0.4331 -0.0673
10970W        W31250   5.622   0.124   1.762 -0.0042  0.0049 -0.1212
10971W        W31251  13.499   4.272   1.218  0.0194  0.1606 -0.1232
10972W        W31252  12.715  17.563  16.450 -0.1141  0.0721 -0.0043
10973W        W31253   0.065   3.930  16.396  0.0602 -0.2318 -0.0727
10974W        W31254   4.621  17.558  16.875  0.0224  0.1456  0.1199
10975W        W31255   3.745   1.452  15.886 -0.1760 -0.2806 -0.0118
10976W        W31256   9.923   6.719   0.078 -0.1208 -0.0177  0.4383
10977W        W31257  17.623   1.785  12.803 -0.2803 -0.3677 -0.2840
10978W        W31258  15.867   8.290  16.690  0.0878 -0.1080  0.2075
10979W        W31259   8.074   1.136   0.972  0.0303 -0.1620  0.1265
10980W        W31260   4.354   0.637  12.339  0.1715  0.1020 -0.0889
10981W        W31261   1.411  12.873   0.579  0.0771  0.1210  0.1257
10982W        W31262   4.468  14.372  12.907 -0.0697  0.1050  0.0818
10983W        W31263   8.670   6.979   1.417 -0.2229 -0.1972 -0.1139
10984W        W31264  12.348  16.174  13.037  0.0913 -0.1299  0.2501
10985W        W31265   2.898  13.380   3.519  0.1579  0.1601  0.0569
10986W        W31266  17.714  16.258   2.041 -0.0342 -0.1195  0.1693
10987W        W31267  16.666  15.735  12.545  0.2112 -0.1517  0.2293
10988W        W31268  11.356  17.443  13.268  0.1086 -0.1112 -0.2153
10989W        W31269   7.720   3.825  11.492 -0.0767  0.1791 -0.0782
10990W        W31270   3.001  11.659   0.889 -0.0217  0.2316  0.1635
10991W        W31271  11.120   4.065   4.291  0.0398  0.0388 -0.1296
10992W        W31272   2.024  12.745  16.577  0.0674 -0.0207  0.2917
10993W        W31273  17.231   8.875   2.265  0.1391 -0.0854 -0.1050
10994W        W31274   6.122   3.132  12.332 -0.1143  0.0257  0.0234
10995W        W31275   5.975   8.882  14.551 -0.0348  0.4716 -0.1560
10996W        W31276  13.946  13.164  12.462  0.0898 -0.2723  0.0762
10997W        W31277  15.866  11.628  12.134 -0.2881  0.1122  0.0978
10998W        W31278  12.993   7.108   3.055  0.1242  0.0507 -0.0228
10999W        W31279  13.728   9.300   1.482 -0.4653  0.1731 -0.1280
11000W        W31280   4.798   2.180   0.672 -0.1858 -0.1817 -0.1478
11001W        W31281  13.721   7.194   0.055  0.1882 -0.0052  0.1610
11002W        W31282   8.036   8.028  15.904 -0.2617  0.0702  0.0673
11003W        W31283   6.826  15.288   0.021  0.1344  0.1966  0.2010
11004W        W31284  13.345   3.592   0.008 -0.2183  0.0705  0.3374
11005W        W31285   0.634  10.710   2.794 -0.2363  0.0709  0.1549
11006W        W31286   4.328   5.497   3.012 -0.2912 -0.2348 -0.0673
11007W        W31287  16.553   2.389   4.710  0.1362  0.0588  0.1326
11008W        W31288   1.707   9.097   1.443  0.2210 -0.1280  0.0000
11009W        W31289   9.152  12.778  12.712  0.2320 -0.0791 -0.0386
11010W        W31290   1.636   9.169   4.542 -0.0859  0.6542  0.1810
11011W        W31291  11.010  11.812  15.855 -0.0554 -0.1133  0.1006
11012W        W31292  14.330   9.076   4.507 -0.2386  0.1148 -0.1348
11013W        W31293   8.278   9.306  13.921  0.3158  0.3312 -0.1949
11014W        W31294  15.865   3.359   4.552 -0.0974 -0.1481 -0.1098
11015W        W31295   3.066  12.563   4.400  0.0820  0.1701  0.0545
11016W        W31296  11.315   2.067  16.340 -0.2092 -0.1280 -0.2458
11017W        W31297   8.553   8.071  15.696 -0.2327 -0.0407  0.1674
11018W        W31298   6.317   6.894   1.619 -0.1260 -0.1387 -0.0933
11019W        W31299   0.902  14.256  15.597 -0.0426 -0.4384 -0.0478
11020W        W31300   0.899  10.976  16.402  0.0295 -0.0926  0.1085
11021W        W31301  11.493  17.163   2.546  0.0519  0.0222 -0.0778
11022W        W31302   6.490   2.563  15.083 -0.0790  0.0086  0.4533
11023W        W31303   1.250   9.886  12.860 -0.2394 -0.1292  0.0623
11024W        W31304  13.137   7.473   2.684 -0.1464  0.4076  0.0155
11025W        W31305   8.936  11.538  15.905  0.2388  0.1389 -0.0349
11026W        W31306   2.850   0.940  16.200 -0.0686  0.2043 -0.1145
11027W        W31307  13.973   7.824   3.174 -0.0616 -0.1278 -0.1830
11028W        W31308   7.429   8.857   0.525 -0.1787 -0.1994 -0.0680
11029W        W31309  10.068  13.195  14.175 -0.1541 -0.0564 -0.1216
11030W        W31310   1.352   4.629  12.798  0.2107 -0.0666  0.4907
11031W        W31311   8.480   6.518  11.088 -0.2241 -0.1135  0.0199
11032W        W31312  10.391   2.817   0.890 -0.0452  0.2506  0.1865
11033W        W31313  15.378   6.023  14.295 -0.2414  0.0180  0.1642
11034W        W31314   7.286   7.663  16.599  0.0344 -0.2317 -0.0752
11035W        W31315   9.713  12.563   1.354  0.1927  0.0212 -0.1662
11036W        W31316   4.335  15.450  16.138 -0.2128  0.0525  0.1899
11037W        W31317   9.000   7.164  14.492 -0.0894 -0.2865  0.1589
11038W        W31318   1.585  13.872   1.860 -0.1991  0.1214 -0.0256
11039W        W31319  12.867  16.774   0.094  0.1180 -0.1282  0.4376
11040W        W31320   8.756   0.416   4.329  0.3022  0.0665  0.0217
11041W        W31321  12.156   6.578   4.168 -0.0539 -0.0885  0.0579
11042W        W31322  13.753  17.233   3.905 -0.3156  0.1108 -0.0805
11043W        W31323  10.749  10.694   0.865  0.3880 -0.0944  0.1161
11044W        W31324  13.929   6.386  15.921  0.0045 -0.3319  0.0870
11045W        W31325  13.195   8.036   2.835  0.2377  0.1110 -0.0065
11046W        W31326   6.108  12.124  15.790  0.1140  0.0085 -0.2011
11047W        W31327  14.491   1.183   3.970  0.2005  0.1169  0.2097
11048W        W31328  10.525   3.207  16.761 -0.6305  0.2039  0.0082
11049W        W31329   0.696   6.031  15.690 -0.1216  0.0421  0.0891
11050W        W31330   5.778   6.294  14.250 -0.1689 -0.1345 -0.0633
11051W        W31331   7.054  10.333  14.200 -0.1161  0.0104 -0.2182
11052W        W31332   2.719   2.719  15.908 -0.0292  0.0640  0.1793
11053W        W31333   1.407   6.909  15.799  0.0954 -0.0448  0.1419
11054W        W31334   0.830   7.078  12.363  0.0281  0.0092 -0.2827
11055W        W31335  12.969   8.789  14.182 -0.2764  0.2487 -0.1991
11056W        W31336   2.648   6.003   2.829  0.0656  0.1956  0.0936
11057W        W31337  12.177   5.134   5.068  0.0569 -0.1547  0.1240
11058W        W31338   2.616   3.427   0.394  0.0335  0.1674 -0.1681
11059W        W31339   8.938   4.886  16.001 -0.1211 -0.2243  0.0966
11060W        W31340  11.545   3.115   2.152  0.0594 -0.2213  0.1128
11061W        W31341   9.272   5.326   2.585  0.1423 -0.1496  0.3342
11062W        W31342  12.349  12.449  13.763  0.1846  0.2141  0.0053
11063W        W31343   3.830   8.990  13.356  0.3468 -0.0713 -0.3836
11064W        W31344  17.503  15.441   1.884  0.0680  0.0041 -0.4659
11065W        W31345   1.793   4.118   1.723 -0.0886  0.0356  0.1775
11066W        W31346  16.362  12.466  15.424 -0.1864 -0.1584 -0.0331
11067W        W31347   4.114   7.431   2.566 -0.0611 -0.2710  0.2390
11068W        W31348  16.778   1.418   4.469  0.0764 -0.2165 -0.1038
11069W        W31349   7.826   1.022   2.503 -0.1111  0.0412 -0.1157
11070W        W31350   4.409  16.602   4.771 -0.1424  0.2281 -0.1145
11071W        W31351   4.828   2.013  12.386 -0.1606  0.3611 -0.0026
11072W        W31352   3.772   2.416   3.240  0.0501 -0.0076  0.0787
11073W        W31353  17.216   8.319  14.150  0.0613  0.0652 -0.2430
11074W        W31354   1.808  12.231   2.361 -0.1383  0.2359 -0.1044
11075W        W31355   2.178   5.440  16.649 -0.0841 -0.0182 -0.2820
11076W        W31356  17.691  14.996   0.820 -0.2204 -0.2065  0.0218
11077W        W31357  17.625   6.143   1.702  0.1324 -0.0093  0.0236
11078W        W31358  17.347  17.084   1.081 -0.0269  0.0027  0.2297
11079W        W31359  17.529   8.207  15.176 -0.2199 -0.1664  0.0945
11080W        W31360  11.872  10.223  12.250 -0.1175  0.0352 -0.0362
11081W        W31361   3.432  14.907  15.356 -0.1179  0.0457 -0.0967
11082W        W31362  17.379   1.237  12.344  0.1084 -0.3707 -0.1524
11083W        W31363   4.724  10.199   1.255  0.0751 -0.2156 -0.0255
11084W        W31364   0.134  13.677   4.290  0.0763  0.0780 -0.4041
11085W        W31365  10.438  12.414   2.860 -0.0068  0.0516  0.2640
11086W        W31366   8.183  10.933  12.089  0.0426 -0.1683  0.2702
11087W        W31367   6.033   6.412  13.070  0.1676 -0.0013 -0.0326
11088W        W31368   1.277   4.768   0.249 -0.0639 -0.0161  0.0654
11089W        W31369  11.898   8.338  14.229 -0.1514  0.2134 -0.2826
11090W        W31370   8.088   0.072  13.037  0.0253 -0.2753 -0.0681
11091W        W31371   7.585  10.410  15.965 -0.6667  0.0232 -0.0661
11092W        W31372   8.850  14.549   2.834  0.1399 -0.2689  0.0118
11093W        W31373  10.748  15.444   2.633  0.3733 -0.2137  0.0388
11094W        W31374  10.302  16.299   0.124 -0.4234 -0.3572 -0.2756
11095W        W31375  16.361   6.217  13.988  0.0505  0.0138  0.1924
11096W        W31376  17.681  15.550  15.221  0.0834  0.2951 -0.0457
11097W        W31377   8.765  11.879  13.407  0.2072  0.0926 -0.1284
11098W        W31378   3.357   2.300  13.093 -0.1163 -0.3047 -0.3066
11099W        W31379   9.235  12.823   2.703 -0.0098 -0.1053  0.0525
11100W        W31380   6.800   5.874  12.761  0.2871  0.1026 -0.1991
11101W        W31381  11.111   4.458  12.745 -0.0047  0.1612 -0.1329
11102W        W31382   8.878   3.275  14.738 -0.1925  0.0601 -0.0758
11103W        W31383   1.962  15.425   3.653 -0.0542  0.0603 -0.0469
11104W        W31384   2.598   0.241  14.740 -0.2579  0.1036  0.4803
11105W        W31385   8.251  17.252  12.798  0.1952  0.1924 -0.0012
11106W        W31386   8.763   6.247   3.218 -0.1482  0.1309 -0.1738
11107W        W31387  12.557  12.862   0.487 -0.2991  0.1592 -0.0817
11108W        W31388   0.997  15.816   0.875 -0.0183 -0.1472  0.4472
11109W        W31389  14.580  12.452   3.804 -0.0702 -0.2018  0.1098
11110W        W31390   0.191   5.066   4.518  0.2546  0.3782  0.1445
11111W        W31391   0.356   7.141   0.981 -0.0327  0.0235  0.0537
11112W        W31392   3.296   8.549   2.332 -0.4220  0.2034  0.1555
11113W        W31393   1.635   7.644   4.636 -0.0438  0.2125 -0.1184
11114W        W31394   3.561  14.234  13.013  0.1394 -0.1834 -0.1513
11115W        W31395  17.674  10.873  16.475 -0.0069  0.0009  0.3060
11116W        W31396   1.107  16.814   3.741  0.4413 -0.0692 -0.0226
11117W        W31397  11.069   0.169  11.548 -0.2153 -0.0195 -0.0580
11118W        W31398   9.286   3.650  12.688 -0.1545  0.0402 -0.0406
11119W        W31399   8.250  16.201   3.203 -0.1591  0.0060 -0.0138
11120W        W31400  14.507  14.584   4.260 -0.0524 -0.2707 -0.0017
11121W        W31401  12.645   3.736  13.550 -0.1216  0.1703  0.1671
11122W        W31402   9.015  16.055  16.722  0.3698 -0.1361  0.1128
11123W        W31403  15.035   5.528  15.247 -0.1017 -0.3254 -0.1819
11124W        W31404   6.081   7.640   3.785  0.0149 -0.2246 -0.2722
11125W        W31405   0.594   4.862  12.199 -0.1436 -0.2555  0.2455
11126W        W31406  14.834  14.558   4.739  0.2007 -0.3472  0.0146
11127W        W31407  13.658   1.477   0.099  0.1270  0.1297  0.1554
11128W        W31408  11.485  16.516   3.487 -0.1929  0.0014 -0.1743
11129W        W31409  16.067  11.029  12.875  0.0760 -0.0400 -0.0733
11130W        W31410  10.355   1.208  16.004 -0.0795 -0.0166  0.1396
11131W        W31411   2.760   7.888  16.237 -0.0717 -0.0025 -0.0815
11132W        W31412  11.982   1.311  12.353  0.1047 -0.1275  0.1785
11133W        W31413  11.691   6.385  14.698  0.0509  0.1870  0.2006
11134W        W31414  13.492   3.322  12.998 -0.1975 -0.0945  0.1948
11135W        W31415  12.565   8.572   2.018  0.0580 -0.0049  0.0948
11136W        W31416   3.909   8.251  12.375 -0.0113 -0.2833  0.3214
11137W        W31417   3.974   9.992   4.684 -0.0933 -0.0982 -0.1069
11138W        W31418  17.122   4.013   3.568 -0.5267 -0.0066 -0.0058
11139W        W31419   8.584   5.301  14.731 -0.2696 -0.0778  0.1025
11140W        W31420   6.092   7.567   1.901 -0.1791 -0.4422  0.2838
11141W        W31421   8.165   8.089   4.639  0.0810 -0.1957 -0.0259
11142W        W31422  17.657  10.141  15.043  0.4311 -0.2351 -0.1707
11143W        W31423   2.187   0.709   4.454 -0.0225  0.2381 -0.0151
11144W        W31424  10.636   2.040  15.559  0.1773 -0.1502 -0.3158
11145W        W31425   3.649   5.369   2.501 -0.0162  0.1743 -0.2315
11146W        W31426   9.232  16.664  14.656  0.3058  0.0845  0.0697
11147W        W31427   6.145   7.268  12.852 -0.1402  0.1818 -0.0485
11148W        W31428   1.571   9.855   4.743 -0.0418  0.1472 -0.2555
11149W        W31429  13.141   9.375  13.076  0.2489 -0.1180  0.0628
11150W        W31430  15.997   7.670  14.383 -0.1269  0.2895 -0.3619
11151W        W31431   2.665   7.283  16.354  0.0782  0.0949  0.1158
11152W        W31432  12.278   1.862   0.087  0.2077 -0.3435 -0.0856
11153W        W31433   0.084   0.336   1.571  0.0131  0.3897  0.0509
11154W        W31434  13.462   9.212  12.629 -0.0073  0.0906  0.0709
11155W        W31435  15.382  14.684  12.524 -0.0519  0.3155  0.0851
11156W        W31436  10.797  11.824  14.297 -0.2137 -0.0628  0.0294
11157W        W31437   8.141  10.780   4.568 -0.1655 -0.0741  0.2631
11158W        W31438   9.224   0.626   2.455 -0.2092 -0.0737  0.1928
11159W        W31439   6.213   7.819  16.518 -0.1025 -0.2100 -0.1746
11160W        W31440  12.423   7.695  13.661  0.0285  0.1266  0.4780
11161W        W31441   0.099   5.915   3.199 -0.0621  0.0144 -0.1920
11162W        W31442  15.246  15.060   3.972 -0.0402 -0.3477  0.0879
11163W        W31443   0.147  13.255   0.577  0.2139 -0.5594 -0.1563
11164W        W31444   4.812  14.000  12.983  0.2037 -0.2315 -0.2073
11165W        W31445   1.412  17.111   3.292  0.0205  0.4351 -0.1924
11166W        W31446   1.322  10.333   1.272  0.0367  0.1847 -0.0294
11167W        W31447  11.310   2.756   1.099 -0.0062 -0.1499  0.2524
11168W        W31448  11.293   6.075  16.817 -0.1758  0.0139  0.0655
11169W        W31449   4.211  16.676  15.283 -0.1893  0.1082 -0.0678
11170W        W31450   6.895   7.897   0.861  0.1503  0.3089  0.0187
11171W        W31451   3.869  15.056   3.460 -0.0794  0.0253  0.2132
11172W        W31452  10.471   0.227  12.490 -0.1631 -0.2117 -0.2850
11173W        W31453  12.985  15.200   0.382 -0.0206 -0.3196  0.2204
11174W        W31454   1.342   1.231   1.037  0.2142  0.1249 -0.0722
11175W        W31455  11.328  15.739   4.862  0.2767  0.1836  0.1203
11176W        W31456   0.488  16.969   4.928 -0.1637 -0.3698  0.2037
11177W        W31457   4.062   0.337   1.438  0.2025  0.1584  0.0082
11178W        W31458   8.934  17.478  13.915  0.1486  0.2603  0.0796
11179W        W31459  15.951   6.460  12.746 -0.2732 -0.0402  0.1954
11180W        W31460   6.157   2.583   0.329 -0.2025  0.2023  0.0318
11181W        W31461   2.214   5.942   1.173 -0.1134 -0.2911 -0.0466
11182W        W31462   5.570   6.928   2.354 -0.0153  0.0108  0.2213
11183W        W31463  15.978   4.008   1.800 -0.0268 -0.1321  0.0069
11184W        W31464  12.987   2.104  16.557  0.1493 -0.1390  0.2645
11185W        W31465   4.970   1.435   2.958  0.1974  0.0433  0.4020
11186W        W31466  15.405   9.288   3.341  0.3455  0.1054 -0.0683
11187W        W31467   0.132   9.946   4.873 -0.0451 -0.0024 -0.0364
11188W        W31468   5.637  14.418   3.254  0.1870 -0.2405  0.0095
11189W        W31469   3.763   3.779   0.406  0.1022  0.4501 -0.0403
11190W        W31470   8.481   7.825  12.782  0.1356  0.0786  0.0495
11191W        W31471  12.221   6.905  11.717 -0.1560 -0.2940  0.1386
11192W        W31472  13.955   8.189   2.803 -0.0214  0.0478  0.0673
11193W        W31473  12.059   1.339   2.877  0.1446 -0.1166  0.2754
11194W        W31474   5.771   8.844  13.344 -0.2182  0.3700 -0.2480
11195W        W31475  14.563   6.229  13.657  0.1234  0.0722  0.2584
11196W        W31476   3.671   2.235   4.058 -0.0428  0.3160  0.0440
11197W        W31477  13.736  15.195   1.613 -0.0836  0.1304 -0.0738
11198W        W31478  12.050  10.688  14.913  0.0760  0.0622 -0.2648
11199W        W31479   0.296   1.054  13.728 -0.2000 -0.1220  0.1253
11200W        W31480   9.544   3.265  16.418  0.1907 -0.1611 -0.0271
11201W        W31481   0.742  17.302  15.766  0.0404 -0.0074 -0.1496
11202W        W31482   6.079   8.091   1.956 -0.0611 -0.2887  0.0658
11203W        W31483   4.360   2.482   4.140  0.1028 -0.0919 -0.1070
11204W        W31484   8.767   3.175   4.144 -0.0115  0.0057  0.0639
11205W        W31485  12.700   9.955  15.809  0.2760  0.0108 -0.1103
11206W        W31486  10.296   8.807   1.984 -0.2406 -0.1404  0.0657
11207W        W31487   9.067   1.816  14.743 -0.0948  0.0706 -0.2896
11208W        W31488  16.527  12.021  14.564  0.2204 -0.1377  0.3988
11209W        W31489  17.194   1.538   4.732 -0.2233  0.2372  0.0403
11210W        W31490  10.578   7.683  14.898  0.3533  0.1073 -0.1092
11211W        W31491   5.012  13.562   0.239 -0.2329 -0.4617  0.3377
11212W        W31492   1.513  12.973   3.360  0.1883  0.2774 -0.3988
11213W        W31493  13.392  12.917  14.346  0.0357 -0.3012  0.2969
11214W        W31494   0.863  14.323  15.069 -0.1869 -0.0482  0.2323
11215W        W31495  16.005   7.191  15.805  0.3017 -0.0534  0.1518
11216W        W31496  12.958  15.301   2.168 -0.1301  0.2002 -0.1223
11217W        W31497   1.562   5.058   1.497  0.0481 -0.1018  0.1392
11218W        W31498   3.477   0.859   0.604  0.0542 -0.0683  0.1804
11219W        W31499  12.776  14.642   4.576  0.2500 -0.1258  0.0336
11220W        W31500   4.873   7.468  16.179 -0.0033 -0.3000  0.0520
11221W        W31501  12.059   8.278   2.218  0.0470  0.3194  0.0042
11222W        W31502   4.693   4.038  12.810 -0.0977 -0.0049  0.1166
11223W        W31503  12.704   1.735   2.135 -0.1161  0.1606 -0.3956
11224W        W31504  17.517   0.438   4.667  0.1724 -0.0434 -0.2925
11225W        W31505   8.354   4.107  13.249 -0.1381 -0.1940 -0.1097
11226W        W31506   9.553   5.763  12.781 -0.0510  0.4371 -0.0554
11227W        W31507  16.597   7.864  15.202 -0.0892 -0.0259  0.1764
11228W        W31508   1.571   4.943  16.188 -0.1329 -0.1380  0.3100
11229W        W31509  17.615  12.017  14.895  0.0925 -0.2740  0.1238
11230W        W31510   4.663  17.225  14.493  0.0039 -0.0703  0.2126
11231W        W31511   3.485   3.005  14.065 -0.0097 -0.2168  0.0424
11232W        W31512   4.413   7.751  16.086 -0.2087 -0.0500 -0.1702
11233W        W31513   8.283   1.483   3.156  0.0073 -0.1981 -0.3312
11234W        W31514  13.822  17.026   1.519  0.2833  0.0779  0.1921
11235W        W31515  16.406   9.316   2.239  0.3254 -0.3713 -0.2271
11236W        W31516   9.302   6.041  14.202  0.2799  0.2424  0.1112
11237W        W31517   5.634  15.169   2.847 -0.1204 -0.0372  0.2027
11238W        W31518  17.384  12.000  13.905 -0.0652 -0.5011  0.1814
11239W        W31519  10.787  10.055  13.962  0.1013  0.3223 -0.0935
11240W        W31520   1.906  12.589  15.672 -0.2297 -0.0582 -0.5279
11241W        W31521  11.145   7.046   2.207  0.0648 -0.3399  0.1305
11242W        W31522  13.956  12.624   1.549  0.1775  0.0371 -0.1306
11243W        W31523  12.532  11.691  15.694  0.1178 -0.0228  0.1683
11244W        W31524   0.653   5.777  16.512 -0.2961 -0.1919 -0.0402
11245W        W31525  16.947   7.402  16.880  0.1766  0.3697  0.0932
11246W        W31526  12.131  12.667  15.641  0.2545 -0.1040  0.0768
11247W        W31527   7.035   7.572   3.830 -0.1437  0.1735  0.0322
11248W        W31528   4.805  10.576  12.721  0.3584  0.3249 -0.0244
11249W        W31529   9.221  11.799  13.326 -0.1885 -0.1347  0.0106
11250W        W31530  10.964  15.044  12.096  0.2738  0.1684  0.1229
11251W        W31531   4.454   0.545   1.257  0.1972 -0.2909 -0.0192
11252W        W31532   3.147  15.069   4.062  0.1127  0.0813  0.1690
11253W        W31533   6.289  12.255   4.004 -0.1455 -0.0954  0.1498
11254W        W31534   7.544   8.234   2.235  0.1088  0.0223  0.1274
11255W        W31535   4.179   1.780  16.665  0.0835  0.4177 -0.0599
11256W        W31536  11.512  15.419  14.308  0.0856  0.0371  0.0218
11257W        W31537   8.408   2.455  13.210  0.2777 -0.0005  0.0413
11258W        W31538  11.784   6.435   2.317 -0.0919 -0.0203  0.1516
11259W        W31539   3.680  17.339  16.543  0.2820  0.2259  0.1636
11260W        W31540  13.611  13.698   4.497 -0.1630 -0.0040  0.2181
11261W        W31541   1.777   8.386   2.411  0.2629 -0.3487  0.1400
11262W        W31542   5.274  14.172  14.904 -0.0620 -0.1122 -0.0800
11263W        W31543   2.342   8.600   1.358  0.0086 -0.1130  0.0296
11264W        W31544   0.525   8.586  12.656 -0.2499  0.2321 -0.0923
11265W        W31545  13.565   8.599   5.000 -0.2087 -0.1035 -0.0528
11266W        W31546   4.652  15.791   2.785  0.2656 -0.0547 -0.2283
11267W        W31547   2.165   3.302  15.766  0.1945  0.0432  0.0732
11268W        W31548  13.914   4.942   2.450 -0.0047  0.2268  0.1605
11269W        W31549   0.988  14.066  13.577  0.1853 -0.1910  0.2164
11270W        W31550   8.436  17.698  13.713  0.0454 -0.0716  0.0147
11271W        W31551  17.150   0.517  12.504  0.0266 -0.1318  0.1067
11272W        W31552  10.797   8.894  15.554  0.0094  0.0623  0.1663
11273W        W31553   4.508  13.933   1.119  0.1561  0.2725  0.1093
11274W        W31554   3.854   4.156   2.924 -0.2678  0.1209  0.0298
11275W        W31555   9.592  10.016   1.347  0.0985  0.1530 -0.1978
11276W        W31556   9.738   0.591   0.033 -0.1451 -0.1761 -0.0199
11277W        W31557  17.405  14.673  15.245  0.2243 -0.1093 -0.2165
11278W        W31558  10.995   4.624  14.793  0.2617 -0.0640  0.0460
11279W        W31559   6.813   9.116  14.340  0.1401  0.1467 -0.2557
11280W        W31560  15.033   0.789   3.815  0.2175 -0.0415 -0.1302
11281W        W31561   7.897   3.336   3.720 -0.2104 -0.1647  0.2801
11282W        W31562   0.928   7.333  16.155 -0.0576  0.2680  0.1311
11283W        W31563  14.093   2.105  14.219 -0.1996  0.0061 -0.1960
11284W        W31564   8.895  17.731   4.058  0.2644  0.1289  0.1310
11285W        W31565   5.047   3.527   4.834 -0.0333 -0.0079  0.1405
11286W        W31566  10.975   6.754   0.324  0.1390 -0.1707 -0.0106
11287W        W31567  12.646  14.570  12.428  0.1672  0.1911 -0.0154
11288W        W31568  11.429   5.681   2.244  0.1571 -0.0078  0.4187
11289W        W31569  14.587  17.243  15.078 -0.0686 -0.0637  0.2101
11290W        W31570  10.808  15.180   3.098 -0.1383  0.0452 -0.2800
11291W        W31571   8.187   2.595  13.833  0.0458  0.1466  0.2362
11292W        W31572   1.124   2.346   4.301 -0.0165  0.0879  0.0089
11293W        W31573   1.635  12.520  13.427 -0.0320 -0.0370  0.1276
11294W        W31574  15.272   8.887  15.563  0.1032 -0.1758  0.0324
11295W        W31575   1.692   2.519  13.050 -0.0397  0.1180  0.1455
11296W        W31576  12.514   7.405  14.591  0.3046 -0.2967 -0.1427
11297W        W31577   2.269  10.317  11.975  0.0921  0.0176 -0.0790
11298W        W31578  14.328   0.992  14.167  0.0541  0.1947  0.1693
11299W        W31579   8.682   4.619   0.590  0.0387 -0.1134  0.2436
11300W        W31580  11.129  14.636  15.806 -0.1322  0.1181 -0.1356
11301W        W31581  16.425   0.225  16.538 -0.0573 -0.0304  0.4369
11302W        W31582   6.309   3.471   4.207 -0.0040 -0.0116  0.2661
11303W        W31583   7.189  14.317   2.550 -0.2649  0.0993  0.2271
11304W        W31584  12.025   4.969   2.980 -0.1525 -0.0806  0.2509
11305W        W31585   3.667   6.572  14.349 -0.1817 -0.1317  0.0904
11306W        W31586   3.067  12.754   3.889 -0.0772  0.2653 -0.0028
11307W        W31587   9.789   1.633   2.946  0.2577 -0.1940 -0.0823
11308W        W31588  13.720  17.729   2.855 -0.1621  0.1540 -0.1195
11309W        W31589   9.534   3.155  11.049 -0.1076  0.2340  0.2852
11310W        W31590  11.846   6.845   4.595  0.1107 -0.2773 -0.0133
11311W        W31591   9.138   1.142  15.482 -0.0214  0.1272  0.0544
11312W        W31592   1.862   3.993   0.199  0.1428  0.0787  0.1736
11313W        W31593  12.168  12.487   0.541  0.2001 -0.0227 -0.1491
11314W        W31594  13.663  14.283   0.701 -0.1343 -0.0626 -0.0168
11315W        W31595   8.880  12.910  16.344 -0.3545 -0.0791  0.0490
11316W        W31596  14.190  15.229   3.610  0.2461  0.1121 -0.1894
11317W        W31597   9.239  15.181   1.197  0.1090 -0.1293  0.2449
11318W        W31598   7.984   0.017  16.365  0.1657  0.0720  0.0068
11319W        W31599   4.824   8.129   3.358  0.2870  0.0313 -0.0174
11320W        W31600   2.009  11.160  13.608  0.0891 -0.2962  0.0673
11321W        W31601  11.052   4.553   5.877  0.0107 -0.0989 -0.0130
11322W        W31602  17.245  13.787   0.993 -0.2670  0.0414  0.1118
11323W        W31603   8.346  12.288   0.114 -0.2819 -0.0320 -0.1583
11324W        W31604  15.482   6.363  16.139  0.0204 -0.0302  0.0423
11325W        W31605  15.686   0.672  13.752 -0.2636 -0.0597  0.2203
11326W        W31606   1.217  13.213  13.670  0.0531  0.1983 -0.1489
11327W        W31607  12.511   8.108   2.147  0.0772 -0.1060 -0.4801
11328W        W31608  16.887  14.514  16.858 -0.0775  0.1084  0.0428
11329W        W31609   9.574  11.014  14.732 -0.1107 -0.3063  0.0503
11330W        W31610   7.292  12.129  16.201  0.2930  0.1654  0.1804
11331W        W31611   0.796   5.971  13.672  0.0412 -0.1772  0.1814
11332W        W31612   4.562   2.214   3.761 -0.1578 -0.0509  0.2244
11333W        W31613   8.799  14.991   2.089 -0.4135  0.0674 -0.1714
11334W        W31614  16.154   7.449   1.882  0.0075 -0.0336 -0.2982
11335W        W31615  15.871  14.537   4.141  0.1481  0.0724 -0.0930
11336W        W31616  16.279  12.569   0.556 -0.1753  0.0987  0.1132
11337W        W31617  14.960   2.702  13.974 -0.1836 -0.0819 -0.0295
11338W        W31618  14.692  17.422  14.528  0.1321  0.0873 -0.1940
11339W        W31619  17.402   5.474  14.295 -0.5895  0.2638 -0.0374
11340W        W31620   0.152  16.122   0.084 -0.2724  0.0174  0.2668
11341W        W31621   2.841   3.135   3.289 -0.1678  0.1941  0.1977
11342W        W31622   8.180   9.723  14.477  0.1553  0.3287 -0.1809
11343W        W31623   2.161   3.792  15.729  0.2464 -0.1407 -0.3441
11344W        W31624   0.708   8.052  14.945  0.0511  0.1342  0.0118
11345W        W31625   1.177  10.057  15.714  0.0799  0.0974 -0.0013
11346W        W31626  10.192  10.905   1.036 -0.1014  0.0035 -0.3428
11347W        W31627   1.896   3.090  16.765  0.0460 -0.1899  0.1050
11348W        W31628   6.402  11.174  15.709 -0.0924 -0.1354 -0.0366
11349W        W31629   5.735   6.137   3.532 -0.1681 -0.0069 -0.1205
11350W        W31630  14.202   1.546   0.204 -0.0725 -0.2218  0.1065
11351W        W31631   6.316  10.208   0.159 -0.0488 -0.1524 -0.0124
11352W        W31632   5.148   0.802  15.568 -0.2703  0.2064 -0.0141
11353W        W31633  13.405  13.260   3.647 -0.0428 -0.1387  0.1285
11354W        W31634   3.346  17.070   2.292  0.1048  0.2284  0.0737
11355W        W31635   1.232   9.905  14.122 -0.1350  0.0322 -0.0279
11356W        W31636   1.792  13.224   4.528  0.2944 -0.1801  0.2340
11357W        W31637   2.211  11.607   3.625 -0.1284  0.2459 -0.1149
11358W        W31638   2.026  14.226   4.638  0.4247 -0.0329  0.3655
11359W        W31639   8.556   5.059  15.208 -0.3915 -0.2272  0.0113
11360W        W31640  10.292  17.075  16.658 -0.0527 -0.0563 -0.1909
11361W        W31641   9.817   6.054  14.363  0.0859  0.1326  0.0190
11362W        W31642   2.929   0.410   3.229 -0.0796  0.1906 -0.0100
11363W        W31643   7.579  17.297   0.076  0.1726 -0.0886 -0.1570
11364W        W31644   8.652  11.383   2.269 -0.3143  0.2183  0.3749
11365W        W31645  13.067   1.731   2.573  0.3448  0.0488 -0.1072
11366W        W31646  17.390  10.283   0.943 -0.2142  0.4178 -0.2548
11367W        W31647   0.277   1.666   4.153 -0.3702 -0.0158 -0.1097
11368W        W31648  12.240   2.241  14.896 -0.2604 -0.3080  0.2562
11369W        W31649  15.810   3.081  15.441  0.2286  0.0672 -0.2341
11370W        W31650  11.795   1.280  16.645 -0.3552  0.3826 -0.2032
11371W        W31651   1.245  16.049  12.585  0.0069  0.1303  0.2301
11372W        W31652  16.480   6.653  14.358 -0.2572  0.1028 -0.1262
11373W        W31653  10.287   3.544   5.174  0.4352 -0.1780 -0.2233
11374W        W31654  16.184  14.243   3.906 -0.0100  0.2441  0.1293
11375W        W31655   4.478   9.250  15.462 -0.3223 -0.3859  0.0903
11376W        W31656   2.627  13.504  13.185  0.1790 -0.0639 -0.0531
11377W        W31657   8.418   8.419   2.847 -0.2146 -0.0122 -0.1858
11378W        W31658  10.937  14.213  14.303 -0.3151  0.3149 -0.3377
11379W        W31659   6.205  17.344  12.741 -0.0561 -0.1498  0.0500
11380W        W31660   1.371  16.488  16.344 -0.0491  0.1130 -0.2038
11381W        W31661  15.870   8.965   1.113 -0.1705 -0.0308 -0.3281
11382W        W31662  10.596  16.844  14.879  0.0325  0.1168  0.2405
11383W        W31663   2.812   3.062  16.351 -0.0794 -0.0433 -0.2055
11384W        W31664  16.806   6.783  12.559  0.1068 -0.0640 -0.1277
11385W        W31665   7.150   5.065  12.731  0.3440  0.1771  0.0799
11386W        W31666   7.194   7.557   0.659 -0.4994 -0.0773  0.2493
11387W        W31667  15.333  10.000   1.925 -0.0220 -0.2074 -0.1989
11388W        W31668   9.493   7.048  16.862  0.1245 -0.0778 -0.0489
11389W        W31669   6.016   7.211   0.941 -0.1055 -0.0225 -0.1141
11390W        W31670  11.388  14.195  12.738  0.0136  0.0215  0.0681
11391W        W31671  17.244   5.837  14.970 -0.4640  0.1460  0.0753
11392W        W31672   5.498  14.968   1.388  0.1528  0.1545  0.1498
11393W        W31673   1.517  13.010  13.373 -0.1148  0.1311 -0.0718
11394W        W31674  13.660   7.852  12.404 -0.3632  0.0647 -0.0112
11395W        W31675  10.039  17.525   0.008  0.0499  0.0143 -0.1268
11396W        W31676  14.951  17.040  14.083  0.3062  0.1382 -0.0423
11397W        W31677   5.780   4.193   1.031  0.0902 -0.3423  0.3917
11398W        W31678   7.833  13.814  11.681 -0.2912 -0.5107  0.1638
11399W        W31679   7.141   5.900  14.744 -0.0645 -0.0583 -0.0251
11400W        W31680  11.483  14.907  14.536  0.0107  0.0214 -0.1326
11401W        W31681   8.462  10.700  14.262  0.1205 -0.1303 -0.2033
11402W        W31682   5.978  16.247  15.145  0.1564 -0.0293 -0.0791
11403W        W31683   6.571   2.688  14.544 -0.2302  0.2166 -0.0312
11404W        W31684  16.330   0.954   1.602  0.0177 -0.5805  0.0316
11405W        W31685   0.240  11.009  15.304  0.1463 -0.1067  0.1002
11406W        W31686   5.730   9.171  16.271  0.3531 -0.0731  0.1588
11407W        W31687   4.094   4.908  12.826  0.2287 -0.0574  0.2974
11408W        W31688   0.724   8.823  14.213  0.0437 -0.0793  0.1075
11409W        W31689  14.414  11.519   2.230 -0.0236  0.0079  0.1440
11410W        W31690  13.494  15.800   1.489 -0.1277  0.1040 -0.0379
11411W        W31691   4.179   9.364  12.028  0.0049 -0.0993  0.1094
11412W        W31692   7.231   9.585   4.542  0.0450  0.0546 -0.0049
11413W        W31693  17.395  17.708  16.735 -0.2365  0.0930  0.1682
11414W        W31694  11.926  14.157  12.469 -0.1273 -0.3947  0.0137
11415W        W31695   6.046   6.158  12.252 -0.4053 -0.0601  0.2072
11416W        W31696   1.513  10.133   3.021  0.0011 -0.0551  0.3282
11417W        W31697   4.109  12.929  12.942  0.1983  0.0397  0.2186
11418W        W31698  13.213   8.893   3.848  0.3491  0.0981  0.0154
11419W        W31699   4.877   6.205   0.774 -0.0436  0.3092  0.3880
11420W        W31700  16.308   1.288  15.848  0.0658 -0.1003 -0.0858
11421W        W31701   6.971  15.272   1.598  0.2992  0.2144  0.1416
11422W        W31702   6.421  12.338   2.428  0.2545 -0.0618 -0.2741
11423W        W31703   5.367   7.337   4.232  0.0223 -0.0271  0.1844
11424W        W31704   5.188   1.694  15.856  0.2441  0.4134 -0.1622
11425W        W31705   7.025   6.588  16.262  0.0172  0.0846  0.1367
11426W        W31706   7.692  10.571   2.557 -0.0115 -0.4769 -0.3312
11427W        W31707   1.905  14.783  15.949  0.1696  0.3461 -0.0487
11428W        W31708   1.262  15.015   2.672 -0.0917 -0.3423  0.1163
11429W        W31709  16.552  16.384   4.295 -0.0716  0.0590 -0.1778
11430W        W31710   2.530  12.838   3.672 -0.0942 -0.3224 -0.2725
11431W        W31711   7.993   6.788   1.025  0.1178  0.1019 -0.1209
11432W        W31712  11.640  12.025  15.291 -0.1862  0.0879  0.1576
11433W        W31713  16.991   3.384  15.815  0.1669 -0.0318  0.0328
11434W        W31714   2.384   5.494  14.702 -0.1078  0.0424  0.1635
11435W        W31715  10.530   2.724   1.370 -0.0063 -0.0981 -0.1041
11436W        W31716   3.499   3.987   4.646 -0.1870  0.1350  0.3003
11437W        W31717   9.427   0.277   2.036 -0.1070 -0.0949  0.3784
11438W        W31718  15.233   9.596   3.708 -0.0348  0.0680 -0.2373
11439W        W31719  16.725  14.297  15.272  0.0324  0.0272 -0.0121
11440W        W31720  15.382   2.004   1.329  0.0406  0.0732  0.3796
11441W        W31721   5.598  11.267  12.742 -0.2426 -0.0298 -0.2323
11442W        W31722   3.847  17.088  14.620 -0.2242  0.2360  0.0902
11443W        W31723  14.533   9.577   1.218 -0.3250  0.0830 -0.0531
11444W        W31724  16.997   0.851  15.394 -0.0844  0.0873 -0.0641
11445W        W31725   3.862   0.504  13.420 -0.0692 -0.0667  0.0400
11446W        W31726   2.479  17.425   0.716 -0.1726 -0.0212  0.3907
11447W        W31727   2.397  11.601  15.353  0.1789  0.0008  0.4215
11448W        W31728  14.629  16.691   3.545 -0.1802  0.2901  0.1653
11449W        W31729  10.766   8.382  15.688 -0.0740  0.2143  0.2381
11450W        W31730   6.436   5.550  15.306 -0.0503  0.2115 -0.3454
11451W        W31731  16.438  17.620   1.784 -0.0359 -0.0307 -0.2941
11452W        W31732   3.812   8.212   3.140  0.0327  0.0411 -0.0274
11453W        W31733  15.620  15.916   2.770 -0.2618  0.2895  0.0896
11454W        W31734   9.760  17.168  14.437  0.0834 -0.1794 -0.2955
11455W        W31735   5.301   6.994  15.302  0.3633 -0.1461  0.1484
11456W        W31736   6.192   5.882  11.842 -0.1216  0.0846  0.2869
11457W        W31737  17.115   6.783   2.373 -0.1971 -0.1967 -0.0898
11458W        W31738  15.206   7.856  14.750 -0.2019  0.0765  0.1586
11459W        W31739   8.993   7.164   2.699  0.1864  0.0442  0.1852
11460W        W31740   9.424  17.361   3.942 -0.1179  0.1960  0.0697
11461W        W31741   4.000  15.320  13.654 -0.0754  0.0331 -0.1507
11462W        W31742  15.602  12.979   4.564 -0.0795  0.1418 -0.3606
11463W        W31743  14.457   3.419   1.726  0.2230 -0.0778 -0.2224
11464W        W31744  15.878   9.981   1.710 -0.0045  0.2523 -0.1562
11465W        W31745  14.897   2.748  12.444 -0.0282 -0.3207  0.0853
11466W        W31746   4.444   4.231  16.831  0.2866  0.0710 -0.2948
11467W        W31747   2.468  17.256  13.915  0.0240 -0.0445 -0.0456
11468W        W31748   3.710   9.661  15.237  0.0143 -0.2430  0.1902
11469W        W31749  15.830   2.290  13.082 -0.0964 -0.1625  0.0057
11470W        W31750   8.601  17.482  14.734  0.2224  0.1495 -0.0326
11471W        W31751  13.486   9.658   2.407  0.2289 -0.0065 -0.0333
11472W        W31752   4.263   7.431   4.258  0.1018  0.2463 -0.0350
11473W        W31753  16.524   4.202  15.639  0.0118 -0.0085  0.2238
11474W        W31754  16.852   2.203  15.420  0.1332  0.0785 -0.1583
11475W        W31755   9.431  13.482   2.434 -0.0132  0.2222  0.2666
11476W        W31756   1.062  11.194  15.166 -0.0158  0.0543 -0.1564
11477W        W31757  10.206   6.172   3.020  0.0014  0.1539 -0.1373
11478W        W31758   5.617  12.511   2.395 -0.3440  0.2464  0.3403
11479W        W31759  12.197   9.707  15.674  0.0676  0.1096  0.1084
11480W        W31760  10.907   2.964   0.943  0.0191  0.0909 -0.0439
11481W        W31761  11.426   9.259  14.070  0.1010  0.1583  0.0665
11482W        W31762  12.587   5.104  14.038  0.2865  0.5163 -0.1715
11483W        W31763   4.547   4.926  15.766  0.1090 -0.0502  0.1953
11484W        W31764  12.446  15.649   2.089  0.0409  0.1196  0.3115
11485W        W31765   4.824   8.693   0.384 -0.0212 -0.2777  0.1020
11486W        W31766  10.406   5.114  15.213  0.0408 -0.1147  0.0321
11487W        W31767   5.397  14.918  14.762  0.0122  0.0369 -0.0657
11488W        W31768   1.944   2.796  12.232  0.0918  0.2657 -0.1886
11489W        W31769   4.377   6.138   1.579  0.0880  0.0796 -0.0942
11490W        W31770  13.994   6.196   0.524  0.1237  0.2722 -0.2104
11491W        W31771  12.870   0.682   0.807  0.0554 -0.0659 -0.1785
11492W        W31772  13.238  11.555   4.191  0.0214 -0.1878  0.2148
11493W        W31773   8.401  15.905  15.995 -0.0524  0.2039 -0.0552
11494W        W31774  12.912  12.564  12.475 -0.0570  0.1070  0.1768
11495W        W31775  14.129   1.630  13.499  0.0567 -0.1226  0.0384
11496W        W31776   3.312  15.346  15.512 -0.1243  0.1905 -0.1083
11497W        W31777   9.399   6.696  11.853 -0.1507 -0.0461 -0.1144
11498W        W31778   4.870   1.753  12.813 -0.1068 -0.2252  0.0301
11499W        W31779   0.695  16.336   4.422 -0.1381  0.0106  0.0793
11500W        W31780  13.593   0.997  13.577 -0.1935 -0.1489  0.2517
11501W        W31781   0.184   9.875  14.638  0.0488  0.0426 -0.1430
11502W        W31782   3.689  10.979  14.175  0.0080 -0.5347  0.2160
11503W        W31783  16.811  14.019   0.714 -0.1456 -0.1978 -0.0249
11504W        W31784  11.345   5.273   0.522  0.1484  0.1891 -0.2348
11505W        W31785   2.224   5.406  12.447 -0.0486 -0.1220 -0.1460
11506W        W31786   8.307  10.303   1.495 -0.1804  0.0803  0.0529
11507W        W31787   7.060  13.814  13.779  0.1382  0.3121  0.1912
11508W        W31788   5.655   1.329   3.897  0.1197  0.0587  0.0220
11509W        W31789  10.296   7.355   0.450 -0.1856  0.0684  0.0163
11510W        W31790  17.176  16.821  13.953 -0.0619 -0.2500 -0.1362
11511W        W31791  12.423   2.796   3.872 -0.0305 -0.2406  0.2643
11512W        W31792   6.447   0.968   4.941  0.0730 -0.2292 -0.0896
11513W        W31793  11.242  17.405  14.349  0.0117 -0.4111  0.2068
11514W        W31794   9.298  10.172  11.045  0.1242 -0.0253 -0.0574
11515W        W31795   6.676  10.936   0.229  0.0791  0.0183  0.1419
11516W        W31796  11.121  10.816  15.255 -0.0487  0.0571 -0.0101
11517W        W31797   4.105  14.999  15.609  0.0348  0.0245  0.1622
11518W        W31798   6.422   4.993  14.264 -0.0611 -0.1545 -0.1658
11519W        W31799   3.894   2.826  15.010  0.2181 -0.0545 -0.2413
11520W        W31800   4.896  15.529  13.668  0.2588  0.0195  0.0533
11521W        W31801   8.241  16.405   4.985  0.0395  0.3997 -0.1497
11522W        W31802   0.561  10.198  13.801  0.1451  0.5065 -0.1677
11523W        W31803   4.714   1.902   3.320  0.1569  0.0106  0.0804
11524W        W31804   7.544   1.893  13.578 -0.2838  0.0981 -0.0023
11525W        W31805   3.319  17.354   2.849 -0.2984 -0.1390  0.0106
11526W        W31806  14.076  11.718   5.545  0.0213 -0.0593  0.1301
11527W        W31807  13.482   3.781   2.356 -0.1714 -0.0726 -0.1362
11528W        W31808  12.693  10.889   4.798  0.1257  0.2594  0.0604
11529W        W31809   9.708  16.663  14.799  0.0786 -0.2155  0.0503
11530W        W31810  10.934   3.210   0.164  0.2541 -0.0024  0.1515
11531W        W31811  10.980  16.403  12.362  0.0369 -0.0951  0.0111
11532W        W31812   7.036   8.078  16.769 -0.0496  0.0630  0.0635
11533W        W31813   2.767  13.173   4.015  0.1589  0.3133  0.2238
11534W        W31814  12.728   3.973   1.718  0.4467  0.1767  0.0896
11535W        W31815  11.697  15.053   0.074 -0.0376 -0.1682  0.0087
11536W        W31816   2.285   7.708   1.792 -0.0885  0.0359  0.0326
11537W        W31817  15.350   0.735  14.892 -0.0456 -0.0074 -0.1659
11538W        W31818   2.965  11.938   3.393 -0.4818 -0.1423  0.0506
11539W        W31819   1.622  12.092   1.644 -0.1471 -0.0785 -0.0231
11540W        W31820   9.386   7.044   1.853 -0.0546 -0.0002  0.0628
11541W        W31821   1.232   1.320   4.541  0.3338 -0.0347 -0.1056
11542W        W31822  11.950  17.309   2.214 -0.0098  0.1579 -0.0297
11543W        W31823  15.623  11.817   2.807  0.2296 -0.0555 -0.0883
11544W        W31824  12.151   3.389   1.477  0.1736  0.0547  0.1929
11545W        W31825   6.023  13.990   3.426 -0.0366  0.1391  0.0559
11546W        W31826  15.749  10.096   1.095  0.2309  0.0069 -0.4319
11547W        W31827  10.516   8.517  16.484 -0.0714  0.1572 -0.1991
11548W        W31828   6.721   5.476  15.842  0.0566 -0.1433  0.1651
11549W        W31829  16.404   9.760   3.765 -0.1354 -0.1833  0.1798
11550W        W31830  10.830  17.528   0.661 -0.0940 -0.2001 -0.0624
11551W        W31831  10.133  16.643  16.710  0.2957  0.0893  0.1593
11552W        W31832   1.841   4.854   1.897 -0.1320  0.2343 -0.0569
11553W        W31833  12.069   6.018  16.587  0.0041  0.1196 -0.2913
11554W        W31834   8.555   1.006   1.125  0.0313  0.0040 -0.1825
11555W        W31835   0.667  17.413  13.876 -0.1335 -0.2050  0.0517
11556W        W31836   0.941  15.735  14.196 -0.0352 -0.1505  0.0243
11557W        W31837   2.351  10.922   1.116  0.1046 -0.0287  0.1055
11558W        W31838   8.444   8.884   4.376  0.0565 -0.2691 -0.2498
11559W        W31839   4.985   9.960  16.112 -0.1776 -0.0645 -0.2203
11560W        W31840   6.617  13.622   0.410  0.1443 -0.2440 -0.0441
11561W        W31841  10.640   0.318  12.997 -0.0432 -0.1732 -0.1041
11562W        W31842  17.161   5.390   2.086  0.0780  0.0952 -0.2864
11563W        W31843   9.731  12.968  16.815 -0.0311 -0.0224 -0.0378
11564W        W31844   5.811   2.672   3.924  0.1537  0.1527  0.0535
11565W        W31845  12.466   5.284  12.712  0.0673  0.4964 -0.4570
11566W        W31846   0.221   1.393  13.130 -0.0684  0.2048 -0.2197
11567W        W31847   3.069   2.909   0.371  0.0804  0.0925 -0.0535
11568W        W31848  16.432  10.481  12.603 -0.0194  0.0545  0.1526
11569W        W31849   6.130  11.490   4.747 -0.2139  0.2917 -0.0079
11570W        W31850  16.198  12.300   4.512  0.1127 -0.1422 -0.0321
11571W        W31851   5.940   9.693   0.440 -0.0570  0.0139  0.1809
11572W        W31852  12.620   1.672   0.806 -0.0836  0.3111 -0.1870
11573W        W31853  12.621   0.676   3.039  0.1926 -0.2750  0.1192
11574W        W31854  11.388   1.873  14.379  0.3096 -0.0970  0.0071
11575W        W31855  10.412  13.977   1.608  0.1969 -0.0943  0.0640
11576W        W31856   9.450   8.728   2.862 -0.2432 -0.4224 -0.0570
11577W        W31857  12.014   5.853  13.114 -0.0461  0.0963 -0.0320
11578W        W31858   2.637   5.778   3.746  0.1420  0.0145  0.1112
11579W        W31859  16.553  10.664  15.090 -0.0214  0.1386  0.0188
11580W        W31860   5.093   5.980   2.715  0.1402 -0.0937 -0.0653
11581W        W31861   5.317   6.646  13.796  0.1655 -0.0087  0.0150
11582W        W31862  10.493  16.534  15.258 -0.0525  0.0272  0.1621
11583W        W31863  16.881  13.834  13.462  0.3302 -0.2927 -0.0743
11584W        W31864  11.176  13.750  16.168  0.0304 -0.3830 -0.2219
11585W        W31865  16.335   8.095   2.275  0.0081  0.0761 -0.0268
11586W        W31866   8.665   9.512  14.994  0.1075  0.1302  0.2892
11587W        W31867   3.935   6.948  14.139  0.3071  0.0005  0.0096
11588W        W31868  17.365   4.164  16.731  0.4551  0.0781  0.1844
11589W        W31869   0.940  14.368  14.544 -0.2866  0.4360 -0.0837
11590W        W31870  13.771   2.540   3.638 -0.0495  0.4131  0.1885
11591W        W31871  10.325   7.650  13.601 -0.1783 -0.1495 -0.1573
11592W        W31872  16.560  13.394  12.804  0.1832  0.2081  0.2227
11593W        W31873   7.860   2.420   2.347  0.0794 -0.1575  0.0722
11594W        W31874   9.219   2.643  15.808  0.2719 -0.0740  0.2431
11595W        W31875   9.998   6.597   2.830 -0.0104  0.0736  0.0375
11596W        W31876  10.075   3.796  15.736  0.1058 -0.0004  0.5322
11597W        W31877  17.483   3.049  14.165  0.2702  0.2783  0.4670
11598W        W31878   4.218   5.354   3.878 -0.4682 -0.1401  0.0886
11599W        W31879   6.947  14.096  14.253  0.1506 -0.0162  0.1083
11600W        W31880   0.922   7.338  13.440  0.1121  0.0650  0.0453
11601W        W31881  10.879  14.467   4.145  0.0116 -0.0479  0.1406
11602W        W31882  12.882   0.078   3.224 -0.0687 -0.2003 -0.1643
11603W        W31883  16.547   6.060   4.660 -0.1068  0.3012  0.1886
11604W        W31884   6.397  11.293  13.097 -0.2176  0.0742 -0.1522
11605W        W31885   5.552  16.718   0.708 -0.2383  0.2472 -0.0893
11606W        W31886   4.408   4.378  15.400 -0.0282  0.0313  0.2395
11607W        W31887   6.741   1.761   0.053  0.1287  0.0489  0.2374
11608W        W31888   2.453   0.686  13.171  0.1928  0.0950 -0.0817
11609W        W31889  11.353   0.504   4.012  0.2603 -0.1963  0.2247
11610W        W31890   9.925   5.324  16.545  0.4593 -0.2555 -0.1872
11611W        W31891   4.622   3.408   4.487 -0.2252 -0.0049  0.0355
11612W        W31892  11.661   3.497  12.433 -0.1185  0.3136 -0.1047
11613W        W31893   0.072   0.699   4.384 -0.2067  0.2849  0.0296
11614W        W31894   0.707  16.030   1.401  0.3665 -0.3394 -0.0088
11615W        W31895  17.357  14.731  14.732 -0.0924  0.1724  0.1411
11616W        W31896   5.942   3.318  15.677  0.2633 -0.2809 -0.0679
11617W        W31897   4.127   9.550   3.463  0.0575  0.4545  0.1860
11618W        W31898   5.872   7.532   4.220 -0.2690  0.0445 -0.2979
11619W        W31899   8.283   4.568  16.582  0.2977  0.2239 -0.1840
11620W        W31900   8.528   2.731  14.239  0.3849  0.0085 -0.0039
11621W        W31901   4.899   8.152   2.798 -0.3537  0.1480 -0.0642
11622W        W31902   8.278  17.687   0.796 -0.1450 -0.2003  0.0719
11623W        W31903  13.812   8.314   1.342 -0.0524 -0.2857 -0.2591
11624W        W31904  16.950   8.853   2.800 -0.2436  0.1475 -0.3005
11625W        W31905  14.298   2.453  14.544  0.0198 -0.0841  0.0107
11626W        W31906   7.412  10.724  15.603  0.0158  0.3846 -0.0542
11627W        W31907  13.605  17.337   3.087  0.0013 -0.0272 -0.1077
11628W        W31908  16.782  15.288   1.269 -0.2081  0.0180  0.1543
11629W        W31909   1.482  17.514  15.488 -0.1875 -0.1255 -0.0132
11630W        W31910   5.140  11.155   0.769  0.1105  0.0542  0.1922
11631W        W31911   3.750   3.842  15.833 -0.1028 -0.0075 -0.2212
11632W        W31912   0.833   5.541  12.881  0.2233  0.5464 -0.1047
11633W        W31913  11.839  12.428   0.890 -0.1262 -0.1099  0.2440
11634W        W31914   5.401   3.024  14.372 -0.0245  0.1733  0.1481
11635W        W31915  14.003   4.874   1.885  0.1953  0.0462 -0.0286
11636W        W31916   8.053   1.579  14.499  0.0557  0.1538 -0.1227
11637W        W31917  13.085  10.392   2.337 -0.1703 -0.2902  0.0982
11638W        W31918   0.511   7.594  15.482 -0.0104  0.1387  0.0239
11639W        W31919  12.743  15.217  14.300 -0.0258  0.3029  0.0611
11640W        W31920   3.764  17.552  15.537  0.1671 -0.3132  0.2505
11641W        W31921  15.204  16.256   0.525 -0.1067  0.1643  0.1496
11642W        W31922   2.785  13.014   5.133  0.0318  0.1287 -0.0275
11643W        W31923   9.587   3.771   2.748 -0.2091 -0.1336 -0.1239
11644W        W31924   7.041  17.222  14.604  0.0170 -0.2134  0.0655
11645W        W31925  16.850   5.616   1.632  0.0411 -0.3426  0.2943
11646W        W31926   7.494   3.838   0.521  0.0320 -0.1602  0.2332
11647W        W31927   8.114   3.261  15.596 -0.3222  0.1334 -0.0766
11648W        W31928  13.153  13.688  13.955 -0.2508  0.1924  0.0297
11649W        W31929  14.615   2.989  15.877  0.3131  0.0025 -0.1152
11650W        W31930  17.273   4.365   2.143  0.0294 -0.0273 -0.2344
11651W        W31931  16.289   2.905  11.911  0.0545  0.2875 -0.1284
11652W        W31932  16.056  16.619   2.627  0.0534 -0.1965 -0.1254
11653W        W31933  15.759  17.722   3.510 -0.1066  0.1303 -0.2414
11654W        W31934   3.227  11.342  16.047 -0.0147  0.0179 -0.3247
11655W        W31935   3.203  15.724   3.448 -0.1084  0.2766  0.1113
11656W        W31936  12.797   5.697  14.988  0.0572  0.0270  0.2608
11657W        W31937  16.998   1.863  12.127 -0.1398 -0.0824 -0.0304
11658W        W31938  12.413   8.243   4.920  0.0090 -0.0136  0.1769
11659W        W31939  11.222  14.528   1.046 -0.0516 -0.1227  0.1475
11660W        W31940   1.154   1.650   3.103 -0.0666  0.0777  0.0648
11661W        W31941  13.925   1.479   4.548  0.1879  0.1028 -0.3114
11662W        W31942   8.293  12.328   2.435  0.0655 -0.0909  0.1267
11663W        W31943  17.416   3.603  15.022 -0.0615  0.1758 -0.3206
11664W        W31944   1.107  14.623   0.200 -0.1661  0.0033  0.1964
11665W        W31945  14.186  16.626   3.756  0.3558  0.1372  0.2060
11666W        W31946   5.992  14.079  12.192  0.3039 -0.3593  0.0290
11667W        W31947   4.631   2.420   3.347 -0.2490  0.3953 -0.1222
11668W        W31948  10.924   3.585   1.202  0.2005  0.0028  0.0354
11669W        W31949   8.530   7.214  14.341 -0.0421  0.3284  0.0769
11670W        W31950   4.257   6.075   3.061 -0.1408  0.1088 -0.1755
11671W        W31951   8.098   4.667  12.392 -0.1055 -0.0378 -0.0698
11672W        W31952   7.683   4.892  14.251  0.0293 -0.4136 -0.2309
11673W        W31953   9.273   2.969  16.791 -0.1030 -0.0051  0.3159
11674W        W31954   8.916   9.584   0.846 -0.3537  0.0144  0.1156
11675W        W31955  13.677   4.374  14.287  0.0957  0.0422  0.2251
11676W        W31956  10.081   1.116  15.004  0.0110  0.1794 -0.2713
11677W        W31957   4.787   8.718  15.118  0.1603 -0.0437 -0.0907
11678W        W31958   3.324  12.339   1.290 -0.1049 -0.1776 -0.2211
11679W        W31959   8.639   1.137  12.918  0.1386  0.2479  0.2809
11680W        W31960  11.141   2.282   2.641 -0.0830  0.0612 -0.1226
11681W        W31961   6.083   8.658  15.816 -0.3848  0.0668  0.0513
11682W        W31962  10.797   9.876   4.334  0.1605 -0.0498 -0.0680
11683W        W31963   9.761   6.532  12.135 -0.0923 -0.0092 -0.0643
11684W        W31964  10.498   5.500  14.759 -0.0117  0.0062  0.0978
11685W        W31965   4.254   9.764  15.386  0.0358 -0.1978  0.0433
11686W        W31966  14.575   7.904  13.815 -0.0462  0.0088 -0.0599
11687W        W31967  12.970   5.681  15.476  0.0505 -0.0891 -0.2031
11688W        W31968  16.287   4.168   5.286 -0.0691  0.2611 -0.1034
11689W        W31969  14.729   4.185   0.118 -0.1412 -0.1020  0.1047
11690W        W31970   0.012   3.163   0.690 -0.1897  0.1830  0.1111
11691W        W31971  10.566  13.803   0.323  0.0905 -0.0813  0.2066
11692W        W31972   0.415  11.338  13.069 -0.1501 -0.1785 -0.1839
11693W        W31973   3.275   2.112  16.213 -0.1673  0.0388  0.1690
11694W        W31974   7.550   7.806  14.836  0.1956 -0.1000  0.3794
11695W        W31975  11.848  13.833   3.928 -0.1553  0.0842 -0.3561
11696W        W31976   0.006   9.762   2.059 -0.1186 -0.0620 -0.0475
11697W        W31977   4.714  16.681  15.250  0.2866  0.0462  0.2749
11698W        W31978   3.220   5.360   4.112 -0.0600 -0.0810 -0.1378
11699W        W31979   4.330   9.063   3.487  0.3324  0.0497  0.0548
11700W        W31980   0.371  14.099  12.414  0.1547  0.0456 -0.2518
11701W        W31981   8.064   0.606   2.621  0.0251  0.0279  0.3096
11702W        W31982   9.422  13.258   0.710 -0.1739  0.1335  0.0661
11703W        W31983   6.184   7.936  13.586 -0.4902  0.0837  0.0602
11704W        W31984   6.688   5.562   3.476 -0.3018 -0.1077 -0.0319
11705W        W31985   2.995   4.872  16.336 -0.1720  0.0030 -0.2659
11706W        W31986  17.710  17.731  15.789  0.0476  0.0485 -0.0894
11707W        W31987   1.805   3.364   3.013 -0.0437 -0.0605 -0.0142
11708W        W31988  15.977  13.244  15.018 -0.0614  0.0499 -0.2042
11709W        W31989   4.377   3.715   0.546  0.0979 -0.0656 -0.1753
11710W        W31990  15.162  12.130  14.524 -0.0619 -0.1720 -0.1308
11711W        W31991   5.249   8.297  14.181 -0.0855  0.2538  0.0821
11712W        W31992  16.000  14.255   6.267  0.0957 -0.3243 -0.0691
11713W        W31993   3.748   4.276  14.445 -0.0346 -0.0918 -0.0210
11714W        W31994   9.166   4.186   1.709  0.0465 -0.1197  0.0471
11715W        W31995  12.492  17.594   3.590  0.3047  0.0445  0.4007
11716W        W31996   7.628   2.059   2.080  0.2142 -0.1337  0.0250
11717W        W31997  13.263   3.298   2.818 -0.4206  0.0596  0.0486
11718W        W31998   4.192  10.100   0.257 -0.2974 -0.0573 -0.0564
11719W        W31999   1.928   3.905  13.554 -0.2210 -0.0033 -0.1830
11720W        W32000   4.831   5.495   0.398 -0.2675  0.2105  0.4009
11721W        W32001   9.018  12.824   3.172  0.0070 -0.3354  0.3052
11722W        W32002  17.418  10.070   4.712  0.0996  0.2204  0.2948
11723W        W32003  16.917  10.117   0.192  0.2075 -0.2780  0.1158
11724W        W32004   2.698   5.110  14.611 -0.2302  0.2368  0.0081
11725W        W32005   2.648   0.481   4.729 -0.0967  0.1494 -0.0289
11726W        W32006  13.373   6.072  16.143 -0.0092 -0.2897 -0.2290
11727W        W32007   2.149   4.219  13.896 -0.1210 -0.1603 -0.0584
11728W        W32008  12.653  12.834  16.520 -0.0124 -0.3403 -0.1155
11729W        W32009  16.422  10.053   1.674  0.0826  0.0192  0.2689
11730W        W32010  15.044  14.599   2.519  0.3346  0.0433 -0.0480
11731W        W32011  11.728  17.571   4.330  0.3135  0.1108  0.1185
11732W        W32012   8.470   2.373   2.634 -0.0830 -0.1120 -0.0378
11733W        W32013   5.045  12.626   3.730 -0.1288 -0.0466 -0.2385
11734W        W32014   6.042   7.676   3.314  0.1266  0.2097 -0.2071
11735W        W32015   1.164  11.532  13.686 -0.1087 -0.0116 -0.2177
11736W        W32016   3.371  12.894  12.250 -0.1492 -0.3068  0.1591
11737W        W32017   3.177  14.205   3.948  0.0275  0.1701 -0.2519
11738W        W32018  17.608   6.772  14.123 -0.0864  0.0220 -0.2516
11739W        W32019   8.738   4.656  13.427 -0.1571 -0.2736 -0.3265
11740W        W32020   2.523   1.597   1.485  0.0346 -0.0622 -0.0023
11741W        W32021   9.525  14.755  16.583  0.0395  0.1210 -0.0771
11742W        W32022  14.765   6.998  14.121 -0.0378  0.1232  0.0716
11743W        W32023  11.522   1.803   5.168 -0.1021 -0.0032  0.1321
11744W        W32024   3.794  11.320  11.473  0.1664 -0.1976  0.0395
11745W        W32025  15.526   5.035  16.267 -0.0636 -0.0155 -0.4251
11746W        W32026   2.195  14.248  16.366  0.0936 -0.1830  0.1652
11747W        W32027  14.890   9.111  12.633  0.2072  0.0456 -0.1174
11748W        W32028   7.198   0.577  15.563 -0.0102 -0.1381 -0.0469
11749W        W32029   7.024   5.982  12.324  0.1234 -0.2813  0.0755
11750W        W32030   6.757   1.295  13.245 -0.2120  0.0835 -0.0887
11751W        W32031  13.485   2.778   1.457 -0.1102  0.1279  0.2416
11752W        W32032  10.750  12.806   0.009 -0.2144 -0.1304 -0.0476
11753W        W32033  16.490  14.591   4.201  0.3695 -0.1657 -0.1286
11754W        W32034  12.425  13.328  16.423  0.2094 -0.0808  0.3035
11755W        W32035   2.935  15.603   0.697 -0.0624 -0.2030 -0.3479
11756W        W32036  14.551  15.735   2.701 -0.0348 -0.1722 -0.1488
11757W        W32037   5.105   6.314  14.117 -0.2513 -0.1448 -0.0726
11758W        W32038   8.936   7.670   0.239 -0.1146 -0.0715 -0.0386
11759W        W32039  13.180   2.537  15.448 -0.0772  0.0616 -0.3515
11760W        W32040   7.192   7.930   4.714 -0.1744  0.1545  0.2027
11761W        W32041   2.354   4.631  12.824  0.0194  0.0655  0.0507
11762W        W32042  15.330  10.474   2.246 -0.0090  0.3223  0.0117
11763W        W32043  11.835   5.935  12.122 -0.1378  0.4925 -0.0911
11764W        W32044   8.144  13.208  16.037 -0.0758 -0.2698 -0.0415
11765W        W32045  15.757  11.008   2.713 -0.2901 -0.0209 -0.1841
11766W        W32046   6.432  10.177  13.974  0.3295  0.1395 -0.1923
11767W        W32047   8.308  16.261   1.356  0.1186 -0.0398 -0.1753
11768W        W32048   5.247  16.912  15.905 -0.0720 -0.2261  0.1551
11769W        W32049  15.403   1.536   4.869  0.0625 -0.0432  0.0153
11770W        W32050   8.632   7.308   0.080 -0.3345  0.0421 -0.0206
11771W        W32051   4.924   4.290  15.197  0.0838  0.0164  0.1117
11772W        W32052  11.418   4.257  14.060  0.0324 -0.0582 -0.1967
11773W        W32053   2.043   0.399  12.311 -0.2429 -0.1131 -0.1789
11774W        W32054  12.978   8.680  15.377  0.2137 -0.1161  0.2956
11775W        W32055  10.830  12.122  14.757 -0.0347 -0.0168  0.2689
11776W        W32056  13.426   0.613  15.575 -0.0195 -0.3363  0.0978
11777W        W32057   3.746  14.121   5.234  0.0842 -0.1368  0.3665
11778W        W32058  11.390  10.831   2.463  0.1584  0.3191 -0.4225
11779W        W32059  14.727   1.978   4.604  0.0486  0.0456  0.0208
11780W        W32060  10.532  15.107  13.372  0.0758 -0.1029  0.0295
11781W        W32061  11.754  11.499   2.288  0.1808 -0.0923  0.0490
11782W        W32062  10.627  16.526   0.559  0.0773 -0.3025 -0.1527
11783W        W32063   2.479  14.789  13.932 -0.0087  0.2628  0.1538
11784W        W32064  10.163   6.489  14.296 -0.1462  0.0288  0.0825
11785W        W32065  15.309  10.079  15.805  0.0184  0.4261  0.0682
11786W        W32066  11.229   5.129  14.700 -0.0279 -0.0884 -0.0311
11787W        W32067   2.376  14.215  12.401  0.2105  0.2607  0.1446
11788W        W32068  13.119  12.583  15.030  0.0831  0.1099  0.2087
11789W        W32069   1.305   8.135  14.150  0.3057  0.0109 -0.0669
11790W        W32070   6.525  11.044   3.892 -0.0882 -0.0422  0.1785
11791W        W32071  12.532   6.984   2.823 -0.0518  0.1339  0.1255
11792W        W32072  14.341   0.836   1.922 -0.0423 -0.2192  0.0151
11793W        W32073   5.219   4.244  15.678 -0.0487  0.0537 -0.3684
11794W        W32074  16.881   4.852  13.633  0.0959 -0.1012 -0.1959
11795W        W32075   4.361   3.069   2.245  0.3483 -0.1223 -0.0400
11796W        W32076  14.536   4.966   4.203  0.2786  0.0602 -0.1132
11797W        W32077  17.423  11.965   0.896 -0.0889  0.0499  0.1835
11798W        W32078   1.093  12.221   2.748 -0.0669  0.0100  0.3442
11799W        W32079  10.776   1.154  12.878  0.0534 -0.0753 -0.2676
11800W        W32080   2.781   1.958   0.042  0.0453 -0.0192 -0.3873
11801W        W32081   4.280   4.883   3.530 -0.1303 -0.0130 -0.0278
11802W        W32082  16.055   6.799   5.110 -0.0825  0.2024 -0.1064
11803W        W32083   9.647  13.410   0.230 -0.1097 -0.1405 -0.1335
11804W        W32084  17.495   3.333   1.141  0.1097 -0.0874  0.0288
11805W        W32085   5.345   8.207  16.155  0.2037  0.1270  0.2006
11806W        W32086  10.336  14.804  16.311 -0.1039  0.0127 -0.0962
11807W        W32087   0.095  12.029   3.862  0.0759  0.0594 -0.0218
11808W        W32088  14.780   9.038   0.037 -0.2867  0.1022 -0.0576
11809W        W32089  14.897   2.552  16.108  0.3177 -0.2507 -0.0832
11810W        W32090  15.990   5.123  15.403  0.3458  0.3883 -0.0654
11811W        W32091  14.182   6.410  14.647  0.0066 -0.0123 -0.1396
11812W        W32092   9.522  15.341  14.127  0.0128 -0.3477  0.2326
11813W        W32093  11.733  15.085   2.982  0.0238  0.0712 -0.1762
11814W        W32094   1.698  12.416   2.832  0.0315 -0.3692  0.0280
11815W        W32095   4.834  10.024   4.815  0.3308  0.0887  0.1500
11816W        W32096   5.259  11.423  16.324  0.0573 -0.1293 -0.0332
11817W        W32097  12.311   3.777   3.181 -0.0413 -0.1262  0.2190
11818W        W32098   4.704   0.372   3.448 -0.1950  0.0983  0.0671
11819W        W32099   9.493   5.219  12.273  0.1389  0.0158  0.1386
11820W        W32100  13.061  15.669   4.018 -0.2028 -0.2501  0.0204
11821W        W32101  14.244   9.967  14.452  0.0668 -0.0938 -0.3727
11822W        W32102   7.828   2.096  16.753  0.0941 -0.0328 -0.0615
11823W        W32103   1.224  17.518  14.487 -0.4175  0.0290  0.3823
11824W        W32104  14.083   2.068  16.426  0.0232 -0.1670  0.1167
11825W        W32105  14.233  16.747   0.856  0.2386  0.0155  0.2016
11826W        W32106  12.026   5.229  15.327  0.1006 -0.2551 -0.1857
11827W        W32107   3.006   7.879   3.944 -0.2288  0.1045  0.0216
11828W        W32108   0.222   9.947  13.512 -0.0795  0.2376  0.1983
11829W        W32109  17.409  16.971  13.364 -0.0132 -0.2074 -0.3489
11830W        W32110  14.378   4.222   2.783 -0.0395 -0.1472 -0.2328
11831W        W32111   8.530  17.033   1.574 -0.0209  0.0810  0.0323
11832W        W32112   4.993   2.026   0.227  0.2512 -0.2451 -0.3439
11833W        W32113  11.280  10.868  12.293 -0.1367  0.1243  0.1392
11834W        W32114  12.767  17.661  14.150  0.2309  0.3040  0.2332
11835W        W32115  16.237   2.896  14.358  0.0231  0.0823  0.0163
11836W        W32116  11.289  15.905  14.090  0.0599  0.0555  0.0353
11837W        W32117   1.320  15.059   0.837 -0.0274  0.2131  0.1288
11838W        W32118   9.400   4.648  11.639 -0.4582  0.2513  0.2396
11839W        W32119  16.848  13.058   5.050 -0.0749 -0.4322 -0.0704
11840W        W32120   2.122   7.738  13.796 -0.2592 -0.2902 -0.1299
11841W        W32121  17.299   2.456   3.910  0.1223 -0.0434  0.0674
11842W        W32122   9.947   6.232   1.104 -0.0794 -0.1417  0.1281
11843W        W32123   7.073   8.786   3.449  0.1238 -0.0451  0.0218
11844W        W32124  12.284   6.664  15.994  0.1189 -0.0829  0.2830
11845W        W32125   9.381   7.545   1.849  0.3569  0.0944  0.0935
11846W        W32126   8.632   8.306   1.951 -0.0203 -0.1112 -0.1172
11847W        W32127   0.495  13.416  16.462 -0.3515 -0.1311 -0.0084
11848W        W32128   7.256  15.261  13.739  0.1768 -0.0523 -0.0451
11849W        W32129  11.485   6.710  15.871 -0.1380  0.0048  0.0969
11850W        W32130  15.400   4.466   0.664  0.0963  0.0014 -0.2416
11851W        W32131   9.578  13.982  15.305 -0.0241 -0.2603 -0.1006
11852W        W32132  10.764   5.530  16.372 -0.1317  0.0127  0.1548
11853W        W32133  15.448   4.648   2.220 -0.4129 -0.4150 -0.1211
11854W        W32134   9.531  14.546   1.955  0.2564 -0.1579 -0.1005
11855W        W32135  10.337   3.383  15.782 -0.0992 -0.0485 -0.2593
11856W        W32136  11.073   6.657  13.202  0.2618  0.1275  0.1024
11857W        W32137   5.356   6.926  12.874 -0.0080  0.0163  0.0011
11858W        W32138  15.008   2.581  13.484  0.0282  0.1165 -0.0191
11859W        W32139   6.742  11.129   1.047  0.3276  0.2846  0.1778
11860W        W32140   6.571   9.140  16.055  0.0169 -0.2135 -0.0218
11861W        W32141  14.190  15.175   0.483  0.1692  0.0876 -0.0914
11862W        W32142  12.233   8.085   0.726  0.0457  0.0758  0.0835
11863W        W32143  14.108   1.242   1.185 -0.1428 -0.0066  0.2638
11864W        W32144  11.917   8.350   2.770  0.0857  0.2407 -0.0753
11865W        W32145  13.473   0.790   4.952 -0.0521 -0.0149 -0.0072
11866W        W32146  15.785   0.183  13.939 -0.2772  0.0431 -0.3568
11867W        W32147   4.898  12.558  14.024 -0.0048  0.0710  0.0089
11868W        W32148  11.865  11.995  14.848  0.0893 -0.1103 -0.0000
11869W        W32149  11.844  14.980  14.225  0.4192  0.3689 -0.0650
11870W        W32150   5.332  16.387   4.421  0.1799  0.0655  0.0862
11871W        W32151   7.819   3.040  16.574 -0.1680 -0.3014 -0.2518
11872W        W32152   8.489  11.256   2.731  0.0929 -0.0181 -0.1009
11873W        W32153   9.858  12.296  13.968 -0.0107  0.2060 -0.1185
11874W        W32154  10.536   0.683  12.224  0.1633 -0.0403 -0.2161
11875W        W32155   2.092  15.457  13.458  0.1239 -0.1590 -0.0599
11876W        W32156  17.485   1.020   4.521  0.1676 -0.1495  0.0492
11877W        W32157   1.273   1.918   0.971 -0.0646  0.1704 -0.0524
11878W        W32158   8.588   1.563  15.935  0.0270 -0.2886 -0.1043
11879W        W32159   6.589   2.283   0.132 -0.2966  0.2142 -0.1793
11880W        W32160   4.501  12.018   4.175  0.0543 -0.1247 -0.0739
11881W        W32161   5.967  12.882  15.029 -0.0267  0.2373 -0.1175
11882W        W32162  10.016  12.250  15.731  0.0181  0.2143 -0.1209
11883W        W32163  11.310  12.216  12.929  0.2001  0.3676 -0.0324
11884W        W32164   2.994   2.839   4.557  0.2697  0.2435  0.1158
11885W        W32165  10.652  16.457  15.975 -0.3534 -0.3272  0.0581
11886W        W32166   7.550   7.606   4.797  0.0158  0.1606 -0.0065
11887W        W32167   4.857   1.585   1.285  0.1836  0.0534 -0.0097
11888W        W32168  10.845   7.930  13.459 -0.0378 -0.3441  0.1620
11889W        W32169  11.729  17.668  14.212 -0.3362  0.2093 -0.3109
11890W        W32170  15.344   8.976   0.014  0.0257 -0.0581  0.2186
11891W        W32171  14.564  12.591   0.996 -0.0325  0.2272 -0.4881
11892W        W32172   0.575  13.007   5.342  0.2156  0.0210  0.1139
11893W        W32173   2.277   5.107   3.103  0.0584 -0.1106 -0.2171
11894W        W32174   8.131  13.491   4.577 -0.0801 -0.2597 -0.1668
11895W        W32175   8.898  16.062  15.995  0.0697 -0.1130 -0.0486
11896W        W32176  13.358   9.254   4.655  0.0213 -0.2639 -0.0463
11897W        W32177  17.262   3.219  15.402 -0.2125 -0.2247  0.2162
11898W        W32178   7.859  12.920  15.075  0.2058 -0.2208 -0.3893
11899W        W32179   7.154   5.598  12.038  0.1173  0.2071  0.0724
11900W        W32180   9.614   0.029   4.261 -0.0288  0.1788 -0.2266
11901W        W32181   1.709  11.249   0.831 -0.2561  0.1078 -0.0344
11902W        W32182   6.714   5.750   0.369  0.1214 -0.6735  0.1464
11903W        W32183   6.633   4.968  13.224  0.2404  0.0263 -0.0356
11904W        W32184  10.653  17.222   0.071 -0.1186 -0.0091  0.0286
11905W        W32185   2.933  15.870   3.965 -0.0436  0.0318  0.2569
11906W        W32186   3.460   0.768  12.506  0.0443 -0.0352 -0.0333
11907W        W32187  13.360   6.997   4.688 -0.1284 -0.0213  0.1874
11908W        W32188  15.412   0.209   4.590  0.4031  0.0285 -0.0746
11909W        W32189   4.190   5.284   2.507 -0.0227  0.1497  0.1825
11910W        W32190   4.373   5.443  15.120  0.1198  0.0615 -0.1322
11911W        W32191   3.212  14.053   2.804  0.1805  0.0888  0.1088
11912W        W32192   8.691  17.157   3.435 -0.0765  0.0763  0.1983
11913W        W32193   7.480  11.228   2.967 -0.2612  0.2269 -0.1028
11914W        W32194   6.970   1.122   0.995  0.0869 -0.2062  0.2111
11915W        W32195   3.110  13.019   0.513 -0.2806  0.1344 -0.0882
11916W        W32196   7.459  10.539   0.997  0.0944  0.1337  0.1173
11917W        W32197   6.418   6.527   1.920 -0.0796  0.2072  0.0455
11918W        W32198  15.253   7.157  16.327  0.1717 -0.2103  0.1198
11919W        W32199   8.374  12.818  13.129  0.2275 -0.1847  0.1167
11920W        W32200  12.242  10.734  13.986  0.0151 -0.0108 -0.2579
11921W        W32201   9.506   9.769   3.517  0.2557 -0.0199  0.3915
11922W        W32202   6.068  16.869   0.726 -0.0295  0.3365  0.2387
11923W        W32203   0.794  10.390  16.574  0.0400  0.1016  0.1556
11924W        W32204  13.046   2.628   0.508 -0.0174  0.1803 -0.0007
11925W        W32205   8.581  15.091   4.469 -0.0690 -0.3610 -0.0481
11926W        W32206  12.166   7.486  13.283 -0.0804 -0.0365 -0.0121
11927W        W32207   4.609   5.027  12.128 -0.0150 -0.2320 -0.0950
11928W        W32208  15.998   7.240   4.265  0.0388  0.0539 -0.0914
11929W        W32209  11.447   1.665   4.681  0.0669  0.0454  0.2701
11930W        W32210   3.806  17.275  13.684  0.0280  0.0613 -0.1437
11931W        W32211  12.364   6.490   4.686 -0.3992 -0.0583 -0.3080
11932W        W32212  11.984   1.956  15.344 -0.2439 -0.3337 -0.2760
11933W        W32213  15.806  17.134   2.391  0.2082  0.1959 -0.0511
11934W        W32214  16.800  11.284  16.147  0.2892 -0.1268  0.1597
11935W        W32215  14.679   2.238   2.613 -0.0776 -0.1940  0.0617
11936W        W32216   9.437   6.512   0.072  0.2702 -0.1273 -0.2160
11937W        W32217  14.757  15.384  13.996 -0.2139  0.0710 -0.3838
11938W        W32218   2.185  13.917   2.438 -0.1756  0.0171  0.1721
11939W        W32219   2.575   2.997  15.491  0.3080  0.0765 -0.0049
11940W        W32220  12.957  11.042   0.508 -0.0652 -0.2489 -0.0357
11941W        W32221  10.891   6.737   2.477  0.0822 -0.0170  0.0211
11942W        W32222   4.590  12.215  12.916  0.0053  0.1041 -0.2086
11943W        W32223   9.270  16.413   4.280 -0.0829  0.4169  0.0707
11944W        W32224   9.370   5.771  16.321 -0.0572  0.4822 -0.2291
11945W        W32225   0.078  11.660   0.182  0.0210 -0.2372  0.0144
11946W        W32226  17.371  11.135   4.124 -0.1111 -0.1969 -0.1107
11947W        W32227   3.388  10.773   1.157  0.0516  0.4631 -0.3435
11948W        W32228   8.868   5.966  12.270 -0.2009  0.0557 -0.0256
11949W        W32229   5.106  16.210   4.806 -0.1645  0.3203  0.3164
11950W        W32230  15.977   6.326   5.196 -0.1748  0.3803  0.0212
11951W        W32231  15.349   4.249   1.230 -0.1070 -0.3433 -0.1172
11952W        W32232   7.480  13.862   2.536  0.1980  0.1378  0.2738
11953W        W32233   8.292  15.911  13.118 -0.1467  0.0618  0.0506
11954W        W32234   5.011   5.591   1.833 -0.0143 -0.0436  0.0047
11955W        W32235   2.063  11.642  13.393  0.1003  0.0986 -0.3274
11956W        W32236  15.964  10.301  13.488  0.0497  0.0683 -0.0457
11957W        W32237   8.190  10.455   2.095  0.0147 -0.0056  0.0175
11958W        W32238  13.979   6.435   1.593 -0.2593  0.1773 -0.1453
11959W        W32239  12.802  12.070   4.138  0.2283  0.0493 -0.1949
11960W        W32240   1.442  12.086   3.206  0.0781 -0.1180  0.0690
11961W        W32241  11.795   6.870  16.782 -0.0566 -0.2494 -0.1410
11962W        W32242  12.323  14.901  14.443 -0.1297  0.0598  0.2157
11963W        W32243  10.362  10.137   0.274  0.3205 -0.1252  0.0462
11964W        W32244   7.025   8.277  12.034 -0.1191  0.3325  0.0129
11965W        W32245   8.286  13.796  13.090 -0.1017  0.1387  0.0184
11966W        W32246   5.183   0.437  12.364  0.1147 -0.1135 -0.0723
11967W        W32247   3.848   6.653   1.504  0.1382  0.4190  0.0015
11968W        W32248   7.141   2.888   3.727  0.2771  0.2392 -0.2133
11969W        W32249  14.177   0.192   0.882 -0.1820 -0.0347  0.2264
11970W        W32250   9.383   6.493  15.713 -0.1388  0.2276 -0.1203
11971W        W32251   7.072   9.489   1.231 -0.1208  0.0558 -0.0832
11972W        W32252  15.903  13.791   4.000  0.0988 -0.0162  0.0779
11973W        W32253  15.510   5.542  16.438 -0.1055 -0.3047  0.1321
11974W        W32254   6.411   1.776  12.475 -0.2818 -0.3860 -0.0211
11975W        W32255   2.603   6.659  15.274 -0.0840  0.0477  0.0027
11976W        W32256   6.695   1.321   1.936 -0.2319 -0.0257 -0.1959
11977W        W32257   3.390   0.788  14.733 -0.0013  0.1726  0.2534
11978W        W32258  16.175   0.699  16.690 -0.1220 -0.3868  0.0463
11979W        W32259   4.049   5.274  15.444 -0.0354 -0.2310  0.2662
11980W        W32260  12.292   1.436  16.700  0.2204 -0.0206  0.0093
11981W        W32261  10.533  10.264   4.619 -0.6156 -0.1772  0.1290
11982W        W32262  15.185   9.963  15.273 -0.0828  0.0025 -0.0371
11983W        W32263   7.961  16.039   0.311  0.0559 -0.0141  0.1927
11984W        W32264  11.320  11.345   2.613 -0.0473 -0.0754  0.0458
11985W        W32265  17.238   9.080   1.781  0.2899  0.2833  0.1209
11986W        W32266   9.018   4.306   2.164  0.2829 -0.3277 -0.2895
11987W        W32267   9.358  12.018   2.431  0.0878 -0.1256 -0.0785
11988W        W32268   9.105   7.794   2.725 -0.0625 -0.4265  0.1504
11989W        W32269   3.057   7.777  12.721  0.0276 -0.1247  0.1099
11990W        W32270   1.415  16.069  13.041 -0.2923 -0.0383 -0.0855
11991W        W32271   7.745   2.966  15.882  0.1685 -0.0884 -0.2097
11992W        W32272   4.448  15.162   3.732 -0.2370  0.2662  0.0483
11993W        W32273   0.673   1.438   4.681  0.1079  0.2304  0.2237
11994W        W32274   8.091  17.421   0.067 -0.2689  0.1447  0.0861
11995W        W32275   0.523   6.452  13.183  0.0499 -0.2773  0.3551
11996W        W32276   4.385   0.885   2.768 -0.0786 -0.0676 -0.0216
11997W        W32277   4.115   7.931   3.429  0.2191  0.2542  0.0680
11998W        W32278   2.869  15.853   2.801  0.0657 -0.1859  0.6036
11999W        W32279  15.998   3.470  12.943 -0.0597  0.3157  0.0535
12000W        W32280   1.848   4.790   4.254  0.2758 -0.0589 -0.0839
12001W        W32281  12.638  12.405   0.757  0.2066  0.1435 -0.0892
12002W        W32282   0.714   6.427   0.680  0.0473 -0.4331 -0.1178
12003W        W32283   0.813   5.978   0.844  0.1287 -0.3481  0.2967
12004W        W32284   1.500   5.361  13.438 -0.2333 -0.1142 -0.2950
12005W        W32285  16.024  14.020   0.251  0.1183  0.0176 -0.0835
12006W        W32286   3.094  14.877  12.664 -0.1869  0.0210  0.2980
12007W        W32287  14.500  15.233  15.228 -0.0955  0.1923  0.0561
12008W        W32288  17.609   5.202   1.766  0.0639  0.0927  0.0652
12009W        W32289  16.453   7.045   0.794 -0.2069  0.2249  0.0848
12010W        W32290   2.926  10.666  13.089 -0.1834 -0.1270  0.1231
12011W        W32291   4.316   3.480  15.616  0.5080  0.1115  0.2168
12012W        W32292   7.910  16.259  14.574  0.0753 -0.0232 -0.1254
12013W        W32293   1.611   4.326  14.367  0.1496  0.0192 -0.0898
12014W        W32294  14.419  15.861   3.170  0.2034 -0.1138 -0.3587
12015W        W32295  13.066   2.282   2.465 -0.2593 -0.0710 -0.1601
12016W        W32296  15.739   6.324  11.092 -0.0226  0.1007  0.2580
12017W        W32297   6.108   8.949   4.101  0.0114 -0.1440 -0.3098
12018W        W32298  15.146   8.277   1.403  0.0555 -0.1749 -0.0841
12019W        W32299   8.582   3.511   2.939  0.1488 -0.1606  0.0071
12020W        W32300   0.162   9.445   0.884  0.3550 -0.1827  0.1474
12021W        W32301  14.619   1.549  13.829 -0.0684  0.0560  0.0141
12022W        W32302   2.243   9.276  15.239 -0.0298  0.0250 -0.0110
12023W        W32303   9.176  11.823  12.289  0.4383  0.1878  0.0212
12024W        W32304   6.851  13.600  15.145 -0.0308  0.1459 -0.0527
12025W        W32305   7.795  12.234   4.249 -0.1028 -0.0487  0.0066
12026W        W32306  16.669   8.390   2.423  0.2638  0.0581  0.0173
12027W        W32307   2.686   8.593  15.506  0.2684  0.1292 -0.0480
12028W        W32308   3.814   4.578  16.186 -0.2631 -0.2568 -0.0004
12029W        W32309   5.029   9.925   0.703 -0.0582 -0.1221 -0.0557
12030W        W32310  10.513   7.412  14.004 -0.2623 -0.2550 -0.1026
12031W        W32311  12.266   4.947   1.480  0.0001 -0.2067 -0.2094
12032W        W32312  15.495   0.425  15.276 -0.1263 -0.1694  0.1319
12033W        W32313   1.956  14.519  14.635 -0.2571  0.0701  0.1904
12034W        W32314   0.227  12.105   3.318  0.0986  0.0048  0.0650
12035W        W32315  14.620  16.714  14.927 -0.2864 -0.0468 -0.1655
12036W        W32316  16.119  10.871  12.377  0.0700 -0.3438  0.1759
12037W        W32317  13.215  14.953   2.561  0.2466 -0.1422  0.0521
12038W        W32318   7.016  13.485   0.710  0.4531  0.1162  0.1653
12039W        W32319  16.036   6.685  15.790  0.0175 -0.5639 -0.0365
12040W        W32320   3.894   5.610   0.220 -0.1760 -0.0346  0.0891
12041W        W32321   8.796  13.647  13.093  0.1872  0.0079 -0.0336
12042W        W32322   4.753   4.612  16.408  0.1510  0.1297  0.0445
12043W        W32323  15.480   4.970  15.703 -0.0753  0.2115 -0.1348
12044W        W32324   6.530  14.688   3.447 -0.0869 -0.1689 -0.1065
12045W        W32325  14.766   7.663   2.704 -0.3379 -0.1055 -0.0577
12046W        W32326  15.075   7.538   6.038 -0.1126 -0.2350 -0.0280
12047W        W32327   1.812   3.082  13.779  0.2454  0.0516  0.0291
12048W        W32328  12.247   2.639  12.784  0.1691 -0.2566 -0.0032
12049W        W32329  13.536   1.613  15.515 -0.2816  0.4094  0.1336
12050W        W32330   4.731  16.302   0.514 -0.0689 -0.3753 -0.1117
12051W        W32331  17.382  12.520  14.864 -0.1045  0.2742  0.0513
12052W        W32332   2.338   4.380  14.370  0.1472  0.0443  0.2140
12053W        W32333  16.808  11.213   4.871 -0.2056 -0.0325 -0.2998
12054W        W32334   6.308  12.256  16.605 -0.0191 -0.1988  0.1280
12055W        W32335   7.796   7.509   1.948 -0.0863  0.1850  0.1691
12056W        W32336   1.321   1.756  16.562  0.0079 -0.0003 -0.2760
12057W        W32337  12.250  13.627  16.862  0.1071  0.1409 -0.2895
12058W        W32338   7.587  11.532  14.570 -0.3195 -0.3355 -0.0239
12059W        W32339   1.738   6.273  13.906 -0.0863 -0.3609  0.1711
12060W        W32340   6.692  12.501   4.679 -0.0783 -0.1460 -0.1411
12061W        W32341   7.835   2.911   0.607 -0.0458  0.1243  0.0212
12062W        W32342   2.900  17.720  15.330  0.2986  0.0006 -0.1454
12063W        W32343  14.843   1.638  12.403 -0.2338 -0.3032  0.0253
12064W        W32344  11.835   5.468  11.888 -0.0318  0.0591  0.1485
12065W        W32345   0.686  13.316  15.962 -0.0160  0.2242  0.0595
12066W        W32346   7.813  16.172   4.614 -0.3393 -0.1015 -0.1424
12067W        W32347   1.102  15.346   1.212 -0.0238  0.0286 -0.0420
12068W        W32348  13.799   1.442   5.129 -0.3453 -0.3005  0.0420
12069W        W32349  14.412   2.579   0.381  0.0005 -0.1343  0.1434
12070W        W32350   5.191  10.402  16.244  0.3606  0.0248  0.0547
12071W        W32351   3.617   0.633  12.969  0.3854 -0.0313 -0.1715
12072W        W32352   2.776  15.328  13.004 -0.3147  0.1170 -0.1798
12073W        W32353  17.364   3.747  12.507  0.0578  0.2551  0.1027
12074W        W32354  14.339  15.869   0.237  0.1165 -0.0142  0.3368
12075W        W32355  14.926  13.476  12.650  0.1466  0.1638  0.0488
12076W        W32356  13.354  13.728  15.088 -0.1298 -0.0858  0.3366
12077W        W32357   9.059   3.766   2.813 -0.1252  0.1919  0.2170
12078W        W32358   4.539  12.968  14.568 -0.3530  0.0765  0.1533
12079W        W32359  10.036   5.843   2.329  0.1404 -0.0596  0.2162
12080W        W32360  17.027   6.890   1.878 -0.2159 -0.0696 -0.1177
12081W        W32361   0.651  15.630   2.510 -0.1659  0.0145 -0.1714
12082W        W32362   5.526  14.568   0.466 -0.2102  0.0898  0.0462
12083W        W32363   6.323   1.957  16.536  0.0448  0.1410 -0.3901
12084W        W32364   1.601  13.817  12.698 -0.0878 -0.0485 -0.2341
12085W        W32365   0.168   3.346  13.366 -0.0069  0.1819  0.0198
12086W        W32366   9.714   2.795  16.037  0.0673 -0.4917  0.0023
12087W        W32367  12.225   0.585  14.195  0.0004  0.1923 -0.0219
12088W        W32368  11.109  12.593  14.848  0.3173  0.2702  0.2502
12089W        W32369   9.445   8.089   1.046 -0.0531 -0.0068 -0.0647
12090W        W32370  16.459  16.107   3.773 -0.1206 -0.0106  0.0939
12091W        W32371   6.976  16.606  13.040 -0.0167  0.3195  0.0812
12092W        W32372  14.379   7.908  12.869 -0.1104 -0.1078 -0.0749
12093W        W32373  16.836  14.149   1.215  0.1862 -0.0671  0.0471
12094W        W32374  14.032   4.262  15.298 -0.0495 -0.2718  0.2697
12095W        W32375   5.913   8.007   0.947  0.3365 -0.0505  0.1638
12096W        W32376  11.788  11.440   1.169  0.1835 -0.1235  0.0148
12097W        W32377  11.641   6.140  12.898  0.2525 -0.1399 -0.2459
12098W        W32378  11.387  11.850   2.116 -0.0643  0.0142  0.2069
12099W        W32379   4.244  11.006   3.532 -0.0523  0.0538  0.3242
12100W        W32380   7.921  11.558  14.232 -0.2164 -0.0292 -0.1494
12101W        W32381   9.587   4.019   1.986 -0.2121 -0.0142 -0.0778
12102W        W32382   0.440  10.958   3.204  0.1504  0.0372 -0.1723
12103W        W32383   9.223  17.503   0.395  0.0309  0.0590  0.0895
12104W        W32384   7.577   8.936  13.300  0.0939  0.3015  0.1622
12105W        W32385   5.697  12.463  15.642  0.0158 -0.0570 -0.0448
12106W        W32386  16.990   9.303  16.228  0.2570  0.1671  0.1883
12107W        W32387   5.962   1.983   2.790  0.3874  0.1170  0.2144
12108W        W32388   5.304   5.358  16.095  0.2296 -0.0567  0.1357
12109W        W32389   9.749  13.137  15.364 -0.1017  0.0100  0.1397
12110W        W32390  11.197  14.598  14.766  0.0237  0.1699 -0.0093
12111W        W32391  11.197   0.136  14.107 -0.0049  0.0717 -0.2353
12112W        W32392   6.972   9.977   2.079  0.1271 -0.1840 -0.0104
12113W        W32393  10.891   3.075   3.101 -0.1025 -0.1649 -0.1537
12114W        W32394   3.376   5.054   0.713 -0.3739  0.2245 -0.1724
12115W        W32395   1.246   8.879  13.830  0.1842 -0.1946  0.0108
12116W        W32396   8.599   6.568  16.360 -0.3493 -0.2407  0.1599
12117W        W32397   7.119   9.035   4.184  0.1279 -0.0334  0.0336
12118W        W32398  13.011  11.025   1.112 -0.0082  0.0115 -0.3313
12119W        W32399  15.530  16.507  15.068 -0.1093 -0.0987  0.2428
12120W        W32400  11.630  14.796   1.198 -0.0826  0.0363 -0.1086
12121W        W32401   4.209  10.139  13.169 -0.2208  0.0873  0.1673
12122W        W32402   9.255   8.692   1.221  0.2908 -0.1377  0.3010
12123W        W32403  10.983   9.999   3.259 -0.2057  0.0415 -0.0479
12124W        W32404   7.051   6.534   0.928  0.2238 -0.0961  0.0227
12125W        W32405  17.414  12.980   5.038  0.1468  0.1414 -0.2198
12126W        W32406  11.487  15.545  13.808  0.2773  0.2383  0.2930
12127W        W32407  17.409   2.385  13.778  0.2207 -0.2650 -0.1388
12128W        W32408  12.237  15.703  13.155  0.0237 -0.1267 -0.3346
12129W        W32409   3.947   4.157  14.937 -0.0745  0.2529  0.1397
12130W        W32410   8.475   8.833  13.084  0.1105 -0.2154  0.1882
12131W        W32411   4.083  10.038  14.371  0.0432  0.2092  0.0289
12132W        W32412  15.464   7.406  13.580 -0.1441  0.0995  0.1306
12133W        W32413  12.136  16.577   1.909 -0.1935 -0.0467 -0.0623
12134W        W32414  16.498  17.145  15.419  0.0159 -0.1647 -0.3801
12135W        W32415   1.732   8.545   2.901  0.1716  0.0207  0.3237
12136W        W32416   1.814   3.607  16.761  0.3286 -0.2509  0.2468
12137W        W32417  14.406   3.813   2.462 -0.0149  0.3429  0.1406
12138W        W32418  13.806  14.907   0.113 -0.2700 -0.0746 -0.3338
12139W        W32419  14.157  10.753  15.215  0.1963 -0.1225  0.2964
12140W        W32420  11.423  14.057   1.240 -0.2525  0.0623  0.1375
12141W        W32421   7.005   9.416  16.279 -0.1226 -0.1838  0.0225
12142W        W32422  14.311   0.860  12.350 -0.1861 -0.0701 -0.1193
12143W        W32423   1.904   8.033   4.961  0.3540  0.1273 -0.1618
12144W        W32424   2.874  13.966  13.681  0.0982  0.0775  0.1862
12145W        W32425   3.302  10.414  14.653 -0.0487  0.1275  0.0571
12146W        W32426   3.502   2.584   2.791  0.0932 -0.0886 -0.1063
12147W        W32427   2.438   7.964   1.375  0.3508 -0.0809 -0.2430
12148W        W32428  10.520  11.738   2.350 -0.0512 -0.0180 -0.1342
12149W        W32429   8.013   1.210  14.093  0.0685  0.1613  0.0633
12150W        W32430   9.312   4.886   4.670 -0.1230  0.0631 -0.2205
12151W        W32431   7.348   3.893  14.690 -0.5156  0.2209  0.2218
12152W        W32432   5.226  11.591   0.279 -0.1107 -0.1008 -0.2416
12153W        W32433  14.885   0.131  13.704  0.0937 -0.1404 -0.0460
12154W        W32434  14.640  14.168  12.108  0.1273 -0.3482 -0.0084
12155W        W32435   8.611  10.978   0.849 -0.1259  0.2225 -0.2566
12156W        W32436   3.136   7.030  13.514 -0.0603  0.0646  0.2461
12157W        W32437  10.005  16.725   4.950  0.1286  0.1410  0.2491
12158W        W32438   1.865   1.325  15.960  0.0970 -0.0525 -0.0847
12159W        W32439  12.924  13.230   0.590 -0.2579  0.0913  0.0608
12160W        W32440  12.707  10.257   6.035  0.2736 -0.2379 -0.1373
12161W        W32441   9.889   3.138   0.471  0.0842  0.3786  0.2366
12162W        W32442   7.959  11.129   4.881 -0.0964  0.0565  0.3024
12163W        W32443  15.510   0.292   0.226 -0.1177 -0.0435 -0.1194
12164W        W32444  17.610   1.180  13.551 -0.2743 -0.3419 -0.0959
12165W        W32445   5.509  12.901   0.264  0.3763  0.2838  0.1502
12166W        W32446  17.160   3.502   2.510  0.1197  0.2696  0.0700
12167W        W32447   0.142   8.881  12.536 -0.1365  0.0209  0.2761
12168W        W32448   5.342   8.061  13.752 -0.3823  0.2645 -0.0652
12169W        W32449  12.364   6.145   4.254 -0.3870  0.2212 -0.0210
12170W        W32450   6.242   8.314  14.046  0.0308 -0.1161  0.0137
12171W        W32451   9.849   1.983   3.271 -0.0803 -0.0190 -0.1211
12172W        W32452   0.142  17.537   2.323 -0.1499 -0.0048 -0.1334
12173W        W32453   2.636   7.737  12.221  0.0481  0.0027  0.2665
12174W        W32454   1.193   9.393  13.847 -0.2220 -0.1859 -0.0213
12175W        W32455   7.665   4.737  15.201 -0.1072  0.3350  0.1406
12176W        W32456  14.680   0.117  16.621  0.2675 -0.0945  0.2934
12177W        W32457   6.725  15.245  16.388 -0.0594 -0.0484 -0.1153
12178W        W32458   6.280   9.668  12.768 -0.0768  0.3853  0.4041
12179W        W32459  11.876   3.637  14.737 -0.1151 -0.1509 -0.0212
12180W        W32460  11.079   3.734   6.185  0.0823 -0.0639  0.0860
12181W        W32461   5.389   1.118  14.100  0.1596  0.2855 -0.1462
12182W        W32462   8.670  12.466   0.565 -0.1177 -0.2987 -0.0001
12183W        W32463   5.192   3.083  15.272 -0.0887 -0.1152 -0.0148
12184W        W32464  16.073   3.963  15.463  0.0745 -0.2459 -0.2180
12185W        W32465   4.107   6.726  15.387  0.1061  0.0352 -0.2409
12186W        W32466   8.681   7.135   3.158 -0.2843 -0.2838 -0.0992
12187W        W32467  13.560   6.009  16.620  0.0932  0.1870  0.0301
12188W        W32468   7.359   2.392  12.001 -0.0324  0.1444  0.0427
12189W        W32469  17.528  17.217  13.893 -0.0967  0.0436 -0.1042
12190W        W32470  11.271  10.643   4.193  0.0546 -0.0759 -0.0088
12191W        W32471  10.911  10.534   1.691  0.0469 -0.0141  0.0115
12192W        W32472   7.871   9.715  13.732 -0.1725  0.2126 -0.0044
12193W        W32473   0.948   3.976   1.271 -0.0290 -0.0228 -0.0288
12194W        W32474   3.872  11.598  11.951  0.3299  0.2164  0.0774
12195W        W32475  10.063   7.860  13.231 -0.0998 -0.2603  0.0751
12196W        W32476   0.517   6.739  14.986 -0.1393 -0.1578 -0.0060
12197W        W32477  14.947   8.477  14.073  0.0157 -0.1921 -0.1869
12198W        W32478   6.263  10.221   4.498  0.1735 -0.2813  0.0439
12199W        W32479  10.044   1.402  12.335  0.2479 -0.0472  0.0755
12200W        W32480  13.719  11.760  15.985  0.2035  0.1092 -0.0403
12201W        W32481  15.545  16.957  12.866 -0.1344  0.0651 -0.0903
12202W        W32482  16.144   7.181  14.603 -0.0220 -0.2562 -0.0509
12203W        W32483  16.687  10.159   1.249 -0.0278  0.1739 -0.1200
12204W        W32484   9.182   8.846  13.577  0.0425 -0.1318  0.0491
12205W        W32485  13.248  14.306   4.322  0.1728  0.0910 -0.0266
12206W        W32486   6.805  12.657   2.049 -0.3529  0.0452 -0.2222
12207W        W32487   2.540   5.070  13.462  0.1428  0.1518  0.0278
12208W        W32488  14.730   1.693   2.384  0.3888 -0.1275 -0.1334
12209W        W32489   5.865  16.042  12.905  0.0873 -0.1281 -0.1318
12210W        W32490   8.733  15.119  14.925 -0.0855 -0.2975 -0.1770
12211W        W32491  12.107   4.930  14.825 -0.1040  0.0679  0.0402
12212W        W32492   7.645   9.767  15.158 -0.1873  0.2593  0.0522
12213W        W32493   9.639  14.423  13.781  0.1796 -0.1494  0.2931
12214W        W32494  10.174  16.853  13.489 -0.2861 -0.1797  0.1804
12215W        W32495  16.694   5.786  13.932 -0.0607 -0.1939  0.3101
12216W        W32496   4.917  14.005  15.730 -0.1944 -0.0424  0.0368
12217W        W32497   7.286   2.935  16.590  0.1563  0.1815  0.2192
12218W        W32498   5.721  11.888  15.498  0.0229  0.0383 -0.3153
12219W        W32499  14.691  16.973  16.457  0.1688 -0.1264  0.0519
12220W        W32500  15.713   1.588  15.901  0.0862 -0.2420 -0.1901
12221W        W32501  10.659   9.602   0.675  0.0381  0.1756  0.0007
12222W        W32502   5.981  15.602  14.556 -0.0186  0.1166  0.0444
12223W        W32503  15.052  16.867   0.725  0.1662 -0.0763  0.3603
12224W        W32504  14.259   1.780  14.580  0.1774  0.1521  0.0348
12225W        W32505  11.727  10.275  16.244  0.0621  0.3463  0.1975
12226W        W32506  14.916   5.923   1.741 -0.2700  0.0985  0.3610
12227W        W32507   8.504  12.341  13.330  0.3269  0.1477  0.1746
12228W        W32508  17.129  13.079   1.923  0.1231  0.1105 -0.3624
12229W        W32509  17.694   0.626   3.270 -0.0192 -0.0669 -0.1377
12230W        W32510   5.719   8.765  16.635  0.1827  0.0388 -0.1978
12231W        W32511   6.949  11.449  15.020  0.3010 -0.3371 -0.1692
12232W        W32512   3.819  12.878   1.350  0.2040  0.2308  0.0577
12233W        W32513   6.522  14.905  13.262  0.1856  0.2565 -0.2707
12234W        W32514  15.368  17.526  13.844  0.1077  0.2029 -0.2946
12235W        W32515   5.044   8.771   3.864  0.0902  0.1777 -0.1329
12236W        W32516  12.655  13.163  11.945  0.0333  0.1810 -0.0786
12237W        W32517  12.605   9.940  14.873 -0.1245 -0.2556 -0.2677
12238W        W32518  10.167   9.794   2.813 -0.0042  0.0917 -0.2021
12239W        W32519  11.533   0.155  13.713  0.1354 -0.0571  0.0370
12240W        W32520   4.538   5.415   4.391  0.0374  0.1640  0.5791
12241W        W32521  17.735   3.628   5.257 -0.0097 -0.0765 -0.2826
12242W        W32522   7.063  16.435  14.870 -0.0913  0.1349 -0.0634
12243W        W32523   1.731   9.811  15.918  0.0126 -0.0548  0.0278
12244W        W32524   1.966   6.201  15.645  0.2108  0.2879 -0.1495
12245W        W32525   3.694   6.222  13.067 -0.3487 -0.0280  0.0235
12246W        W32526  17.698  12.564  16.461 -0.1510 -0.1395 -0.2732
12247W        W32527   9.455   1.721   2.452  0.1012  0.0561 -0.2751
12248W        W32528  10.968   8.714   1.261 -0.1722 -0.0205  0.1953
12249W        W32529  10.925   0.697   0.942 -0.1160  0.0439 -0.2377
12250W        W32530  12.574  17.685  14.673 -0.1354 -0.0887 -0.1176
12251W        W32531   3.456  17.019  14.984 -0.2015  0.2471 -0.1564
12252W        W32532   0.735   2.869  12.912  0.2440  0.1081 -0.4629
12253W        W32533  11.324   3.888   1.393 -0.0411 -0.0083  0.1420
12254W        W32534   8.742  10.700  12.671  0.2372 -0.0698 -0.1541
12255W        W32535  11.962   1.808  14.469  0.1103  0.1937 -0.1674
12256W        W32536  11.528   7.590  12.378 -0.2845  0.0944  0.0089
12257W        W32537   4.523  17.207   3.332 -0.3353  0.1835  0.2460
12258W        W32538  14.727   8.474  15.042  0.0706  0.0211 -0.0162
12259W        W32539   5.464  10.863  12.181  0.0208 -0.1550  0.2181
12260W        W32540   0.749   5.598   0.490 -0.1446  0.0976 -0.1725
12261W        W32541   1.553  12.187  12.269  0.2170 -0.0122  0.0733
12262W        W32542   4.313   3.223  11.922  0.1073  0.0314  0.1633
12263W        W32543  10.900   5.380  12.156 -0.1231  0.5188 -0.1066
12264W        W32544  15.025   8.901   1.501 -0.0291  0.0932  0.0274
12265W        W32545   3.735   9.701  12.679 -0.0412 -0.1573  0.0313
12266W        W32546   5.763   7.626   1.227 -0.2863  0.0378  0.0488
12267W        W32547   6.121   3.405  15.182  0.1589  0.2034 -0.0998
12268W        W32548   9.436   8.120  15.657  0.1533 -0.2522  0.0962
12269W        W32549   7.938   8.377   3.047  0.3348 -0.1397 -0.1124
12270W        W32550   6.116  11.328   1.141  0.3012 -0.0982  0.0687
12271W        W32551   1.541   0.046   2.852  0.0288 -0.4507  0.0580
12272W        W32552  15.498   7.807  12.546 -0.3015  0.3573 -0.2527
12273W        W32553   0.788   0.931   3.788 -0.1242  0.1266 -0.2046
12274W        W32554  16.693  15.084  12.105 -0.0571  0.2330  0.0782
12275W        W32555   2.657   0.176   3.740 -0.0470 -0.2645 -0.4474
12276W        W32556   4.251  15.553   2.151 -0.0831 -0.0003 -0.1587
12277W        W32557  12.014   6.651   0.430  0.2783 -0.0261  0.1519
12278W        W32558   6.710   3.596   1.211  0.2228 -0.2315  0.3847
12279W        W32559   2.668   5.767  15.724 -0.2158  0.2250  0.2370
12280W        W32560   5.130  11.657   0.749  0.1053 -0.3349 -0.0656
12281W        W32561  10.454   0.205   0.680  0.0610  0.4813 -0.2003
12282W        W32562   8.224   8.358   1.523 -0.1993  0.2200 -0.2200
12283W        W32563   1.058   3.131  14.588  0.1585  0.0203  0.0852
12284W        W32564   2.513   5.247  11.896  0.1506  0.1486  0.3066
12285W        W32565   9.936   5.986   0.589  0.1341 -0.1372  0.1350
12286W        W32566   3.525   8.404   3.798 -0.2006  0.0150 -0.4627
12287W        W32567  15.297  11.338   2.049 -0.1916 -0.0419 -0.1026
12288W        W32568  13.278  17.075  12.930  0.0137  0.1287  0.1014
12289W        W32569   0.197  16.270   2.700 -0.3668 -0.4355  0.2567
12290W        W32570  10.965  11.156  15.606 -0.1902  0.1767 -0.0798
12291W        W32571   7.602  15.921  14.442  0.0467  0.0340 -0.0242
12292W        W32572   2.998  17.341  14.256  0.2165  0.1194 -0.1182
12293W        W32573  15.594   4.611  13.757 -0.0858 -0.1255 -0.2181
12294W        W32574   3.472   6.672   4.194  0.1337  0.0442 -0.1437
12295W        W32575   5.266   2.006  14.870  0.0056 -0.0007  0.1711
12296W        W32576  10.030  13.406   4.521  0.0165  0.0622  0.1162
12297W        W32577  14.193   7.522  14.638 -0.0059 -0.1966  0.1928
12298W        W32578   7.893  11.548  15.696 -0.0529  0.0308 -0.0116
12299W        W32579   9.187  16.473   1.098 -0.2481  0.0010  0.1929
12300W        W32580  16.598  11.430   0.834  0.0469  0.1969  0.1184
12301W        W32581   8.697  14.237   4.687  0.0098  0.3758 -0.1279
12302W        W32582  11.915  14.338   4.053  0.0355 -0.1083 -0.2700
12303W        W32583   7.847   4.595   4.490 -0.1863  0.0239 -0.0458
12304W        W32584   1.028   4.570   2.153 -0.1062  0.3304  0.5659
12305W        W32585  14.839  11.537  13.594  0.1451  0.1218 -0.3308
12306W        W32586   6.254   3.612  13.845 -0.2383  0.0384 -0.1969
12307W        W32587   1.436  14.315   4.003  0.0827  0.0826 -0.0913
12308W        W32588  14.873   7.375   2.276  0.3446  0.0010  0.0324
12309W        W32589   8.681   7.530   2.739 -0.0007 -0.1013  0.1390
12310W        W32590   3.468   4.189  16.232 -0.2081  0.1009  0.1089
12311W        W32591  15.503   7.398  14.682 -0.0275  0.1310 -0.2356
12312W        W32592  11.538  10.459  12.551  0.2501  0.1037 -0.1983
12313W        W32593  16.961   8.306  15.874 -0.1198 -0.1416  0.1348
12314W        W32594   4.067  12.678  14.593  0.1754  0.1133 -0.2447
12315W        W32595  16.494   9.725  13.015 -0.1990 -0.1004  0.0005
12316W        W32596  11.078  12.024   0.096 -0.0118 -0.0949  0.2555
12317W        W32597   9.608   5.190  14.813 -0.1658  0.5634  0.0311
12318W        W32598  14.999  15.229   2.978  0.1408 -0.1803  0.0450
12319W        W32599  13.395  16.258  14.403  0.2110 -0.0525  0.0210
12320W        W32600   6.247   3.764  14.717  0.1826  0.0316 -0.0002
12321W        W32601   1.015  12.523   0.539  0.0592  0.4355  0.2424
12322W        W32602   0.137   0.879   0.593 -0.0074 -0.0435  0.0201
12323W        W32603   6.664   8.872  14.812 -0.1001  0.3247  0.1135
12324W        W32604  11.990   4.919  12.595 -0.0236 -0.1379  0.0537
12325W        W32605  15.392  16.939  14.851  0.1232 -0.0559 -0.0858
12326W        W32606   4.222   8.100  16.789 -0.3492 -0.5240 -0.2161
12327W        W32607   3.799   4.722  12.010 -0.0457  0.1682 -0.0187
12328W        W32608  10.034   1.738   4.098 -0.1473  0.0065 -0.1189
12329W        W32609   5.766  14.421  15.943 -0.0482  0.4367 -0.0180
12330W        W32610   0.553  17.165  15.329 -0.2344  0.1914 -0.0057
12331W        W32611  14.461   5.073   1.565 -0.0795  0.0057  0.0301
12332W        W32612   5.929  10.434  13.254 -0.0977 -0.0690  0.1820
12333W        W32613  14.658   3.410  16.177 -0.0144  0.2691 -0.0804
12334W        W32614  17.429   1.136  15.994  0.2171  0.0408  0.0940
12335W        W32615  17.256  16.234   3.966 -0.2265  0.1392  0.1233
12336W        W32616  14.260   9.098   2.280 -0.1417  0.1425  0.0047
12337W        W32617  13.176   7.665  14.520  0.2499 -0.0508  0.0538
12338W        W32618  13.180   8.839   4.388 -0.0674  0.1389  0.0429
12339W        W32619   6.257  13.103   4.178  0.0555  0.0061  0.2021
12340W        W32620   2.252   6.766   0.928 -0.0707 -0.1212 -0.1058
12341W        W32621   9.348   6.082  16.720 -0.1813 -0.0532 -0.0401
12342W        W32622   1.730   6.487   5.044  0.0584  0.1658  0.0211
12343W        W32623   1.037  16.119   1.732  0.0956 -0.3881  0.0729
12344W        W32624   4.116   5.849   0.841  0.2128  0.0492  0.1333
12345W        W32625  10.767  15.599  13.300 -0.3322  0.2698  0.0123
12346W        W32626   3.033  11.187  12.220 -0.0097 -0.1762  0.0705
12347W        W32627  11.194   2.919   2.491  0.3212  0.0008 -0.1020
12348W        W32628   9.009  12.415   4.735 -0.0084 -0.1085 -0.0555
12349W        W32629   1.511   7.188   2.819 -0.1284 -0.0197 -0.2492
12350W        W32630  10.983  10.654   2.207 -0.1046  0.1266 -0.3099
12351W        W32631  15.874   0.641  14.936  0.2337 -0.3583 -0.0507
12352W        W32632   1.964  11.312   3.325 -0.0011 -0.0472 -0.0011
12353W        W32633   9.806   2.973   2.959 -0.2620 -0.2889 -0.3510
12354W        W32634  11.437   3.614   0.778 -0.4186  0.0152  0.1998
12355W        W32635  10.914   1.353  16.612  0.2283 -0.1100 -0.1396
12356W        W32636  10.281  15.713  14.227 -0.0043 -0.2139 -0.0195
12357W        W32637  11.542   6.180   3.176  0.0180 -0.1584  0.1885
12358W        W32638  10.769  13.137   4.018  0.1758 -0.2370  0.0500
12359W        W32639   4.087  12.115   1.038 -0.0387 -0.2314  0.0877
12360W        W32640   9.554  17.114   2.399 -0.2660 -0.1365  0.1134
12361W        W32641  11.383   5.069  12.136 -0.0070 -0.2408 -0.2421
12362W        W32642   4.047  11.690  14.614  0.1909  0.0368 -0.2499
12363W        W32643   1.752   0.727  11.982  0.0230 -0.0666 -0.1680
12364W        W32644   1.995   8.005   3.839  0.3535  0.0991 -0.1858
12365W        W32645  16.708  11.656   4.955  0.0558 -0.0806  0.0505
12366W        W32646   6.354  15.485  15.517  0.1905  0.1177  0.0380
12367W        W32647  13.888   9.169   3.289  0.1340  0.0831  0.1036
12368W        W32648  17.197   6.755   2.989 -0.0291 -0.0868  0.0990
12369W        W32649   8.062  13.040  13.563  0.1276 -0.1731  0.2231
12370W        W32650   7.030  12.514   4.187 -0.1748 -0.0299  0.2502
12371W        W32651   0.746   0.316   2.339 -0.0929  0.1967 -0.0823
12372W        W32652   2.967   2.518   1.316 -0.2050 -0.1176  0.0593
12373W        W32653  14.174  12.359   1.193  0.4945  0.0110  0.3724
12374W        W32654  16.395  12.646  16.390  0.0724  0.0591  0.1907
12375W        W32655  11.754  13.786  16.781  0.0771 -0.1960  0.0046
12376W        W32656  10.942   4.047  14.582  0.1915 -0.1650  0.0928
12377W        W32657   3.637  14.589  14.529  0.3224  0.1680 -0.1127
12378W        W32658   0.416  10.682  16.829  0.1822  0.0278 -0.1575
12379W        W32659   9.728  15.230   1.117 -0.2148  0.0761 -0.0335
12380W        W32660  17.565   0.708  13.467 -0.1382  0.0240  0.2501
12381W        W32661  16.238  17.291   2.159  0.0925 -0.1320  0.1267
12382W        W32662   4.599  14.528   0.416 -0.1458 -0.0724  0.0537
12383W        W32663  16.026   2.537   4.575 -0.0207  0.0307  0.4809
12384W        W32664   9.827   4.886  11.466 -0.0417  0.0744 -0.2937
12385W        W32665   7.100   5.278  16.171 -0.1172  0.2269 -0.1028
12386W        W32666   9.091   5.941   3.427 -0.1343  0.1580 -0.1052
12387W        W32667  14.936  10.296   1.953 -0.2812  0.0569  0.1094
12388W        W32668   6.604   6.785   2.447  0.0694 -0.2462  0.0914
12389W        W32669  16.024  17.111  13.029  0.0749  0.0362  0.1442
12390W        W32670   3.368   8.999  13.688  0.1437  0.1083  0.0743
12391W        W32671   3.962   0.852   2.404 -0.2642 -0.3224 -0.0736
12392W        W32672   1.575  15.455   3.235  0.0601 -0.1033  0.2583
12393W        W32673  14.915   0.238  16.158 -0.0890 -0.1696 -0.0064
12394W        W32674   9.258   4.980  13.535  0.2745  0.2869  0.1763
12395W        W32675   2.475  15.862   4.880  0.0314  0.0831 -0.1089
12396W        W32676   7.491  10.792  13.842 -0.0033 -0.1814  0.1168
12397W        W32677   4.410  12.542  14.219  0.1301  0.2733 -0.2443
12398W        W32678  14.715   1.361  15.208 -0.0084  0.2635  0.0723
12399W        W32679   1.970   9.869   1.945 -0.0362 -0.2639  0.3791
12400W        W32680  13.418   4.390  13.299 -0.1196  0.1195 -0.0433
12401W        W32681   8.875   4.250   4.055 -0.2390 -0.1677  0.1066
12402W        W32682  15.270  13.113  16.723  0.2746 -0.1480 -0.1368
12403W        W32683  10.719   6.912   2.924 -0.0152 -0.0095  0.1716
12404W        W32684  11.557   6.695  12.968  0.0680  0.0066  0.1047
12405W        W32685  14.241  17.625  15.622 -0.3505  0.2041  0.2048
12406W        W32686   9.879   8.485   2.859 -0.1324 -0.0997 -0.1154
12407W        W32687  12.892  16.745  15.996  0.0580  0.2761  0.0628
12408W        W32688   0.684   3.412   3.944 -0.0927  0.0716  0.0830
12409W        W32689   5.751  10.016   3.282  0.3044  0.0860 -0.0176
12410W        W32690  15.526  14.666  14.763  0.0469  0.1641  0.0011
12411W        W32691   4.240  11.316   2.495 -0.0026  0.0195 -0.2159
12412W        W32692   7.614  15.378  14.214  0.1081  0.1081  0.2122
12413W        W32693  12.640   1.253   4.665 -0.1181 -0.5228  0.1384
12414W        W32694  16.540   0.830  15.093  0.0008 -0.4279  0.1789
12415W        W32695   5.042   7.232   3.889 -0.0093  0.0028 -0.4087
12416W        W32696  12.652   0.353  14.895 -0.1405 -0.1866  0.1681
12417W        W32697  13.554   7.339  15.601 -0.0111  0.2624 -0.1498
12418W        W32698   7.695  17.723   3.396 -0.1252  0.0752  0.2260
12419W        W32699   9.930  15.590   1.864  0.2299  0.0448  0.1617
12420W        W32700   1.446   3.808  13.452  0.1264  0.0906  0.0744
12421W        W32701   9.821  16.069   0.190  0.0235  0.1029  0.2007
12422W        W32702   9.892  13.685   2.465 -0.0644  0.0793 -0.0843
12423W        W32703  16.625   9.627  12.558  0.0593 -0.1903  0.3626
12424W        W32704  14.662   1.264   3.010 -0.2465 -0.0725 -0.0138
12425W        W32705  12.654   7.511   2.761 -0.1045 -0.1367 -0.0268
12426W        W32706   4.245   8.201  11.873 -0.2176  0.0920  0.0145
12427W        W32707   7.202  13.400   4.315 -0.1104 -0.3051  0.0859
12428W        W32708  11.839   6.366  12.416  0.0308 -0.0501  0.0633
12429W        W32709  16.836   8.612  15.024 -0.0404 -0.0618 -0.0891
12430W        W32710   5.974  17.156  15.183  0.1428  0.0946 -0.0564
12431W        W32711  15.158  10.194   1.494  0.1480  0.0372  0.0819
12432W        W32712  11.338  13.115   1.888  0.2929  0.0924 -0.0721
12433W        W32713   3.665   8.322  11.911 -0.1549  0.2514  0.4566
12434W        W32714  15.015  11.419  15.974 -0.1368 -0.1167 -0.0230
12435W        W32715  13.469  15.347   4.752  0.3372  0.1966 -0.2135
12436W        W32716  15.400  11.358   2.686  0.1238 -0.1646 -0.1814
12437W        W32717  17.572   5.042  14.468  0.1457  0.1854 -0.0073
12438W        W32718   2.249   8.800  15.298  0.0817  0.0296  0.1364
12439W        W32719   3.775   8.822  12.911 -0.0132  0.1850 -0.0549
12440W        W32720   2.680   9.330   1.739  0.1502 -0.0294  0.0364
12441W        W32721  14.137  13.662   0.461  0.1014 -0.2163  0.3500
12442W        W32722  14.214  16.339  14.143  0.1400  0.0716  0.3282
12443W        W32723   0.587   4.563   1.340  0.0685  0.1611 -0.2073
12444W        W32724   6.413   7.753   2.270  0.0294  0.0556  0.2227
12445W        W32725  10.072   0.869   2.023 -0.1188  0.0816  0.0684
12446W        W32726   4.073   3.122  16.849  0.1236  0.1039  0.0526
12447W        W32727   8.318  13.791   1.896  0.0808  0.0942  0.0765
12448W        W32728  14.657   7.837   2.225  0.1172 -0.1417 -0.2135
12449W        W32729   9.461   4.404  14.326  0.1302  0.1427 -0.2611
12450W        W32730  10.711   3.046   5.345  0.1267 -0.1422 -0.3344
12451W        W32731   0.653  12.806  15.868  0.1248  0.1624  0.0790
12452W        W32732  15.504   3.741  16.445 -0.1630  0.1175  0.0769
12453W        W32733   7.223   3.425  12.990 -0.0405  0.0294  0.1337
12454W        W32734   9.548  14.519   3.487  0.1007  0.1965  0.1063
12455W        W32735  13.276  12.106  12.609 -0.0853  0.1602  0.1001
12456W        W32736   8.269   8.978  13.537 -0.1090 -0.0734  0.0949
12457W        W32737   8.452  17.571   3.617  0.1364 -0.1950 -0.0319
12458W        W32738   6.609  10.106  14.399 -0.2687 -0.3518 -0.0113
12459W        W32739  11.167   8.192  14.803 -0.1640  0.0539  0.3672
12460W        W32740   9.838   9.258  14.154 -0.0462 -0.0379 -0.0839
12461W        W32741   2.354   2.617  14.725 -0.2176 -0.0513 -0.0915
12462W        W32742  12.907   9.706  14.486  0.2037 -0.1230 -0.0036
12463W        W32743   1.577   8.372  15.976 -0.3546  0.0982  0.1921
12464W        W32744   2.828  11.447  13.925  0.1509  0.3213  0.2121
12465W        W32745   1.577   0.951   0.726  0.0522 -0.0777  0.2425
12466W        W32746  12.702  10.312  12.682 -0.2933 -0.1660 -0.1848
12467W        W32747  17.124   0.829  14.398 -0.1481 -0.2725 -0.0089
12468W        W32748   1.045   4.615  12.355  0.0099  0.1757 -0.2171
12469W        W32749   5.451   7.344   2.106  0.1270  0.0803 -0.1457
12470W        W32750   3.745   4.426   2.494 -0.0718 -0.0415 -0.2665
12471W        W32751  14.638   5.804  12.833  0.0956 -0.2391  0.0497
12472W        W32752   3.719  13.536  14.297  0.3212 -0.3800  0.0538
12473W        W32753   0.078  16.965  16.328 -0.1565  0.1064 -0.1952
12474W        W32754  10.521   5.548   3.540 -0.1283 -0.1183  0.0141
12475W        W32755   9.176  10.102  14.093  0.0561 -0.2798 -0.0021
12476W        W32756  16.265   4.219   3.183  0.1352  0.2619 -0.1451
12477W        W32757   4.171  12.519   1.484 -0.0138  0.0284 -0.1133
12478W        W32758  16.871   4.078   2.208 -0.0672  0.2776  0.0278
12479W        W32759   5.328   4.737   1.895 -0.0725  0.0660  0.1317
12480W        W32760   8.383  13.355   3.747  0.0779  0.1224 -0.0306
12481W        W32761  16.963   9.605  15.465  0.1946  0.1971 -0.1227
12482W        W32762  11.577  13.760  12.433 -0.0612 -0.0655  0.0790
12483W        W32763  11.041  14.821  13.267 -0.0241  0.1804 -0.0520
12484W        W32764   7.326  15.878   2.626 -0.0217  0.1838 -0.0810
12485W        W32765   5.430   4.145  16.493 -0.0589 -0.3705  0.5825
12486W        W32766   5.058  13.078   0.095  0.1263  0.0144 -0.2021
12487W        W32767  17.315   0.422  15.205 -0.2310  0.0821 -0.1326
12488W        W32768  13.521   5.102  12.544  0.0956 -0.2153  0.1246
12489W        W32769  12.200  11.323  16.831  0.1407  0.3269  0.1659
12490W        W32770   1.459   4.228  12.228 -0.2028  0.2669  0.1939
12491W        W32771  11.409  14.460   4.864 -0.2558 -0.0879  0.2696
12492W        W32772  11.539  12.580   3.195  0.0632  0.1775  0.3549
12493W        W32773   4.557  17.575   1.820 -0.1721  0.0240 -0.3428
12494W        W32774   4.203  11.029  15.409 -0.1418  0.1169  0.2765
12495W        W32775   0.915   8.866   4.364 -0.0677  0.2156  0.1573
12496W        W32776   0.013  17.284   0.283 -0.0648  0.3619 -0.0761
12497W        W32777  15.475   1.295  15.600 -0.1085  0.0423  0.2384
12498W        W32778   7.894  16.839  12.871  0.1788  0.0914  0.0876
12499W        W32779   0.513   1.087   2.010 -0.1395 -0.1086 -0.0458
12500W        W32780   7.711  13.888   3.965  0.1538 -0.0345  0.0003
12501W        W32781   5.459   8.541  13.780  0.0214 -0.2036  0.0085
12502W        W32782  13.139   0.778   1.347 -0.1525  0.0085 -0.1567
12503W        W32783   9.693  14.225   3.087 -0.0368 -0.0837  0.1410
12504W        W32784  13.413  10.258   0.061  0.3274  0.1549  0.3554
12505W        W32785   4.154  11.662   4.079  0.1529 -0.1638 -0.0925
12506W        W32786   5.366  15.045   4.342 -0.1013  0.0541  0.2724
12507W        W32787  17.281  14.782   3.167 -0.0864 -0.2199 -0.3705
12508W        W32788   5.483  15.025  13.523 -0.0869  0.2363  0.0783
12509W        W32789  14.986   7.602   4.604  0.0595  0.0475  0.0963
12510W        W32790   7.752  12.504  14.770 -0.1726  0.2135  0.0456
12511W        W32791   6.765   5.225   2.489 -0.0157  0.0894  0.2275
12512W        W32792  16.739  13.331   3.613  0.0026  0.1287 -0.0229
12513W        W32793  11.340  16.405  15.506 -0.1774 -0.0896 -0.0648
12514W        W32794  12.751  14.500   1.689  0.2873 -0.2108  0.2570
12515W        W32795   9.367  13.703   3.201  0.0725 -0.0278  0.0415
12516W        W32796  15.724   8.883  15.696  0.2018  0.0016  0.0057
12517W        W32797   5.754   3.786  13.840  0.0228 -0.1483 -0.0308
12518W        W32798   5.368  15.354  12.048 -0.0092  0.0596  0.0917
12519W        W32799  13.899  16.788  15.540  0.2327  0.0042 -0.2385
12520W        W32800  17.401   7.498  14.621 -0.2557  0.1985 -0.0385
12521W        W32801  11.822  12.942   0.895  0.1032  0.0688  0.1902
12522W        W32802   8.590   3.744  15.487  0.0017  0.0501  0.0160
12523W        W32803   0.433   7.422   4.122  0.0575  0.4215  0.1304
12524W        W32804  14.910  10.337  15.543  0.2520 -0.1163  0.1021
12525W        W32805  12.413  12.718   1.829 -0.0215  0.1763  0.0615
12526W        W32806  11.362  13.763  13.026  0.1777 -0.0784  0.3012
12527W        W32807  15.618  11.493   0.643 -0.3217  0.1402 -0.1540
12528W        W32808   4.195   0.220  15.717 -0.0553 -0.2916 -0.1695
12529W        W32809  11.542  10.205   2.008 -0.3088  0.0036 -0.1405
12530W        W32810  11.153  17.260   3.915 -0.0885 -0.3411  0.2237
12531W        W32811   6.032  15.891   5.713  0.1105  0.2316 -0.1479
12532W        W32812   6.874   9.786  11.975  0.0593  0.1718 -0.0602
12533W        W32813   6.683  11.576  14.601  0.1284 -0.0283 -0.1112
12534W        W32814  16.868  15.012  15.920  0.0976 -0.2304 -0.0998
12535W        W32815   7.337   3.293  13.847 -0.0633  0.3616  0.0633
12536W        W32816   9.253   6.127   2.978 -0.2369  0.1243 -0.1975
12537W        W32817  11.106  17.203  12.571 -0.0611 -0.0733 -0.1750
12538W        W32818  15.634   1.893  14.229  0.0047 -0.1857 -0.0888
12539W        W32819  14.572   4.580   1.428 -0.1552  0.2404 -0.1096
12540W        W32820  10.026   9.520  15.100 -0.1141 -0.1845 -0.1771
12541W        W32821  10.448   1.616  12.106 -0.0358  0.1764  0.0513
12542W        W32822  12.835   1.958  13.706  0.3672  0.0999  0.0812
12543W        W32823  10.217   5.178   4.563  0.0422 -0.0175  0.1012
12544W        W32824   1.576  12.047   4.317  0.1010 -0.4443  0.1270
12545W        W32825  11.099   9.012  13.794 -0.0357  0.0303  0.1374
12546W        W32826  12.214  11.038   2.885  0.1939 -0.0266  0.0217
12547W        W32827  10.945  16.205  16.630  0.0782  0.1157  0.0908
12548W        W32828   4.723   7.076  11.864  0.0562  0.1666 -0.0071
12549W        W32829   2.724  14.743   2.102 -0.0985 -0.0909 -0.3945
12550W        W32830   4.282   5.989  15.335 -0.1502 -0.1659  0.0297
12551W        W32831  10.042  12.422  13.425  0.1961  0.2025 -0.0983
12552W        W32832   1.299   4.015   3.998  0.1610 -0.1013  0.1849
12553W        W32833   3.193   2.198  14.928 -0.0814  0.3014  0.2253
12554W        W32834  12.347   1.108   2.518 -0.0137  0.0724  0.1765
12555W        W32835   4.640   7.585  15.301 -0.2588 -0.0588  0.1230
12556W        W32836   2.187   9.372  14.169  0.0835 -0.1298 -0.0671
12557W        W32837  13.428   0.941  12.878  0.0427 -0.0828 -0.2253
12558W        W32838   9.977  15.743  13.830 -0.1992  0.2624  0.2080
12559W        W32839   8.158   0.361  13.504  0.0554  0.0297  0.0059
12560W        W32840  16.188   3.407  15.320 -0.0110  0.4016  0.0873
12561W        W32841   8.153   6.771  15.614 -0.2007  0.0358  0.1443
12562W        W32842   5.056   8.391  12.940  0.1830 -0.0862 -0.1420
12563W        W32843   2.314   7.399   0.716  0.0564  0.4380 -0.1437
12564W        W32844  13.248  11.510   3.163 -0.0589  0.2152  0.3064
12565W        W32845   0.680   5.072   4.804 -0.0812  0.0449 -0.2066
12566W        W32846  12.046  17.466   4.762  0.4592  0.0384 -0.0408
12567W        W32847  12.230   3.719   0.959 -0.1926  0.1238 -0.2369
12568W        W32848  14.444   1.266   4.570 -0.0453  0.0823 -0.0557
12569W        W32849  16.207  15.512  12.790 -0.2067  0.0746  0.1791
12570W        W32850   8.338  14.854   0.104  0.0622 -0.0739  0.0462
12571W        W32851   7.003   6.787   3.006 -0.2284  0.0105  0.0445
12572W        W32852   4.584   8.958  12.533 -0.0270  0.0711 -0.2367
12573W        W32853   9.989   8.826  14.838 -0.2170 -0.1299  0.1245
12574W        W32854  11.593   2.632   3.399 -0.0444  0.3461 -0.3503
12575W        W32855  12.113   4.970  14.012  0.1018  0.0495  0.1995
12576W        W32856   8.391   3.351   4.490 -0.3842  0.0678 -0.1659
12577W        W32857   7.041   0.364  14.249 -0.3225  0.0409  0.0077
12578W        W32858   3.752   7.862   2.724 -0.3827 -0.2931  0.1032
12579W        W32859   7.460   6.232  12.620 -0.0570 -0.0982  0.0378
12580W        W32860   9.136   5.094  14.523 -0.2333  0.1400  0.0039
12581W        W32861   5.012   4.447  12.859 -0.0072  0.0435  0.0316
12582W        W32862  16.901  10.062   2.579 -0.1621 -0.2382 -0.1879
12583W        W32863   3.929   1.597  13.514 -0.2662  0.0576 -0.1720
12584W        W32864   0.367   4.356  16.195 -0.1750  0.0118 -0.1442
12585W        W32865  15.496   7.723  14.292  0.0665  0.0806 -0.0793
12586W        W32866   8.245   3.859   3.159  0.0081 -0.0348  0.3017
12587W        W32867  15.952   5.581  16.174  0.1023  0.0825  0.3343
12588W        W32868   0.472   4.723   2.955 -0.0581 -0.1883 -0.2673
12589W        W32869   2.817   7.422   4.137 -0.0967  0.1184  0.2622
12590W        W32870   8.139  16.137  15.523 -0.0626 -0.1190 -0.0341
12591W        W32871   5.751   0.035   2.267  0.1761  0.0178  0.0958
12592W        W32872  10.068  14.688  12.444  0.1961 -0.1062 -0.1045
12593W        W32873  10.814   3.316   3.983  0.1994  0.2055 -0.0934
12594W        W32874   9.298  12.878  15.376  0.2184 -0.0701 -0.1883
12595W        W32875   0.935   4.085   2.402  0.0028  0.1570  0.1215
12596W        W32876  11.631   5.369  11.477 -0.0010  0.2423  0.3005
12597W        W32877   6.338  13.750  15.947 -0.1677 -0.2822 -0.1639
12598W        W32878  12.555   4.646  14.885  0.1300  0.0293  0.0425
12599W        W32879   6.267   5.336  11.853 -0.0014  0.2058 -0.0498
12600W        W32880   9.414   9.969  16.216 -0.1839  0.3028 -0.0865
12601W        W32881  10.354  16.786  14.443 -0.3242  0.1318  0.2628
12602W        W32882  15.436  13.025  13.752  0.0736 -0.2513  0.0362
12603W        W32883   0.234  15.727  16.575 -0.0407 -0.3694  0.1552
12604W        W32884   4.811  11.324   0.430  0.0742 -0.1348  0.2124
12605W        W32885   5.969  12.003   4.847  0.4036  0.3428 -0.1556
12606W        W32886  13.056  13.996   2.381 -0.1168 -0.0431 -0.0348
12607W        W32887  14.503   9.846   2.295 -0.1180 -0.1692  0.1298
12608W        W32888   9.619  11.151  16.281  0.0622  0.2534 -0.4372
12609W        W32889  13.489  10.452   4.895 -0.0666 -0.0151  0.2023
12610W        W32890  15.440   9.300  16.421 -0.0327  0.1232 -0.1780
12611W        W32891  15.478  11.981  12.063  0.0301 -0.0711 -0.0498
12612W        W32892  11.839   3.388  15.170  0.0721  0.1237 -0.0240
12613W        W32893  14.007   1.918   2.960 -0.1348 -0.0480 -0.1475
12614W        W32894   1.306   3.716   4.781 -0.0151 -0.3287  0.1709
12615W        W32895  13.234  16.350   4.888 -0.2183  0.4481 -0.0996
12616W        W32896   2.213   2.453   3.088 -0.0158  0.0742  0.0007
12617W        W32897   1.320   5.118   3.153 -0.1648  0.0502 -0.2089
12618W        W32898   0.771  11.624   1.111  0.2715 -0.0677  0.0903
12619W        W32899   3.180   0.229   3.753 -0.2076  0.0133 -0.1443
12620W        W32900   1.355   1.347  14.947 -0.0869  0.1608  0.0007
12621W        W32901   6.239  12.172  13.481  0.2936  0.2632 -0.1456
12622W        W32902   1.267   0.097   0.355 -0.1689 -0.1693  0.0749
12623W        W32903   8.362  11.523  14.859  0.1554  0.3745 -0.0356
12624W        W32904  10.231  12.152  13.083 -0.2190  0.2676  0.1541
12625W        W32905   2.263  13.238  15.166 -0.3294 -0.0068  0.2520
12626W        W32906   4.690  13.272  16.202  0.0730 -0.0615 -0.1975
12627W        W32907  11.039   9.943   4.818 -0.0652  0.0470  0.0952
12628W        W32908   9.203   0.417  16.224 -0.2142  0.1140  0.2544
12629W        W32909   3.164  16.436  16.373  0.0690 -0.2365  0.0516
12630W        W32910   2.794  14.888   0.235 -0.0521 -0.3612  0.1699
12631W        W32911   0.779  15.259  14.137 -0.1401  0.1397  0.0107
12632W        W32912  15.706  10.116  13.961  0.0734  0.0182 -0.1838
12633W        W32913   0.095  12.799   4.165  0.0608 -0.0558  0.0498
12634W        W32914   3.390   9.573   0.521  0.1316  0.1956 -0.2208
12635W        W32915  16.640  10.131   4.536 -0.1485 -0.1739 -0.0511
12636W        W32916  17.265   9.392  13.398  0.0925  0.1237 -0.0563
12637W        W32917   1.236   9.731  13.316  0.0410  0.0198  0.2479
12638W        W32918   4.696  17.608  12.683  0.0754  0.1546  0.0899
12639W        W32919  11.680   7.733   4.743  0.0036 -0.1456 -0.1405
12640W        W32920   2.776   6.922  14.861 -0.0618  0.0074 -0.2077
12641W        W32921  14.341   3.720  13.387 -0.0194 -0.0345 -0.0276
12642W        W32922  15.081  10.522  12.661 -0.1553 -0.4559 -0.2325
12643W        W32923   9.075   8.379   3.165 -0.0711 -0.0548 -0.1127
12644W        W32924   5.139   1.349   4.521  0.1811 -0.2415  0.3350
12645W        W32925   1.880  10.524   3.985 -0.1896  0.2701  0.1073
12646W        W32926   1.332   0.363  15.766 -0.0392 -0.2149  0.1319
12647W        W32927   1.787  16.905  12.784 -0.1660  0.0142  0.3951
12648W        W32928   4.374  13.044   1.216 -0.2648 -0.0142  0.2152
12649W        W32929  11.074  16.876   2.492 -0.2662  0.0050 -0.1210
12650W        W32930   2.152  10.081   4.136  0.2538 -0.1288 -0.3119
12651W        W32931  13.716  17.304  14.294 -0.0090  0.4020 -0.3906
12652W        W32932   6.691   5.522  11.918 -0.0466  0.1711  0.1242
12653W        W32933   9.840   9.662   1.763  0.0046 -0.1822 -0.0547
12654W        W32934   6.087   3.813  15.702  0.3055 -0.2898  0.0561
12655W        W32935   3.614   8.277  15.743  0.0449  0.1645 -0.0654
12656W        W32936   8.233  17.480   1.551  0.0294  0.1979 -0.1019
12657W        W32937  16.403   3.623   1.870 -0.1231  0.1264  0.3945
12658W        W32938   1.047  15.752  12.980 -0.1918  0.1638  0.1291
12659W        W32939   1.524   4.779  12.293 -0.0689  0.5255 -0.1120
12660W        W32940   9.596   5.987  11.315  0.1031 -0.1822  0.1780
12661W        W32941  10.422   8.665  14.567  0.2076 -0.0866  0.3318
12662W        W32942   7.851   6.730  13.288  0.2898 -0.2817 -0.3001
12663W        W32943   0.837  12.425  13.628  0.0386  0.0940 -0.0223
12664W        W32944  10.554   4.410   2.935  0.0859 -0.0590 -0.1673
12665W        W32945   0.524   9.590   1.236  0.1054  0.1075 -0.1060
12666W        W32946  16.887   1.211   2.385  0.0680  0.1539  0.0273
12667W        W32947   7.926  10.265  12.247 -0.0425 -0.1619  0.0050
12668W        W32948  13.680  12.327  13.372 -0.0848 -0.1381 -0.1731
12669W        W32949  16.268   7.797   1.353 -0.1241  0.2227 -0.0170
12670W        W32950   9.404   5.091   3.508 -0.0993  0.4189  0.0767
12671W        W32951   9.289  15.246   3.815  0.1565  0.1747  0.0395
12672W        W32952   0.451  12.832  14.766 -0.2145 -0.1618 -0.1803
12673W        W32953  14.798   8.802  15.484  0.1087 -0.0699  0.0701
12674W        W32954   4.890   0.059   2.444  0.0629 -0.1077 -0.2337
12675W        W32955  16.703   6.951  11.194 -0.0473 -0.4002 -0.2259
12676W        W32956   2.088   2.395   1.059 -0.1955  0.4990 -0.0332
12677W        W32957  14.512   9.298   3.312  0.1353 -0.0521  0.1711
12678W        W32958  11.143  13.093   0.345 -0.2688  0.0395 -0.0127
12679W        W32959  10.726   0.803  13.785  0.0075 -0.0862 -0.0654
12680W        W32960  15.980   5.496   0.122 -0.1640  0.1423 -0.0204
12681W        W32961   2.698   0.199  13.413 -0.1020 -0.0864  0.0356
12682W        W32962   8.752  10.744  16.354  0.1065  0.0429  0.2531
12683W        W32963  17.165   6.919  13.884  0.1278  0.1190 -0.1571
12684W        W32964   3.295   2.970  16.214 -0.1410 -0.0607 -0.0815
12685W        W32965   5.262  16.089   3.972 -0.1846  0.3223 -0.0712
12686W        W32966   8.275  13.810  11.965  0.0424 -0.2480 -0.0455
12687W        W32967   2.344   7.943   0.815  0.0068  0.0983  0.2101
12688W        W32968   7.315   5.450   3.750  0.1724  0.2142 -0.2209
12689W        W32969   8.828  14.800  13.994  0.1645  0.0398  0.0249
12690W        W32970   0.520   3.492  15.594 -0.0507 -0.1524 -0.0409
12691W        W32971   5.717  15.592  12.572  0.1134 -0.0417 -0.0968
12692W        W32972  15.924   2.167  16.831 -0.1017  0.0401  0.1993
12693W        W32973   1.452  16.381  15.863 -0.1116 -0.3800 -0.0338
12694W        W32974   5.246   6.559   1.455 -0.1817 -0.0281  0.0262
12695W        W32975  15.587  13.886  13.615  0.0698 -0.1256  0.1123
12696W        W32976  14.352   4.613  15.113 -0.0278  0.1289 -0.2063
12697W        W32977   8.747   4.229  12.925 -0.1761 -0.0738 -0.1410
12698W        W32978  16.907   0.023  12.248 -0.3050  0.0030 -0.0061
12699W        W32979  14.704   0.550   2.128 -0.2675 -0.2944  0.0282
12700W        W32980   3.342  13.057  14.769 -0.0477  0.1035  0.2730
12701W        W32981  14.985   8.032  11.783  0.1120 -0.0597 -0.2045
12702W        W32982  14.638  16.152  15.307  0.0127  0.0358 -0.3681
12703W        W32983  13.245   5.284   4.987  0.0982 -0.1324  0.1568
12704W        W32984   7.127  12.532  12.524 -0.1178  0.2490 -0.0638
12705W        W32985  14.048  14.938  13.947  0.1619  0.2610  0.2077
12706W        W32986   5.666  16.540   2.767  0.0493 -0.1853 -0.3325
12707W        W32987  12.997  17.662   3.673  0.1151  0.0568 -0.2050
12708W        W32988   3.183   1.001  15.287  0.2105 -0.0623  0.0970
12709W        W32989  16.656   6.018  15.588 -0.0176 -0.1348  0.2036
12710W        W32990   5.110  15.957   2.325  0.0055  0.0780 -0.3031
12711W        W32991   4.877  11.042  16.456  0.3547 -0.0007  0.1879
12712W        W32992  14.366  12.012  13.981 -0.0159 -0.0900 -0.1510
12713W        W32993   9.466   6.312   3.523  0.2309 -0.0884  0.0696
12714W        W32994  10.649   9.089  16.083 -0.0324  0.1338  0.1687
12715W        W32995  16.756  15.020   0.789  0.1323 -0.0921 -0.1239
12716W        W32996   9.284   8.326  15.080 -0.0701 -0.0022 -0.0202
12717W        W32997   3.608  12.069   3.543  0.0921 -0.1518  0.1368
12718W        W32998  10.873  14.608  12.868  0.3227  0.0977  0.0452
12719W        W32999   6.892  12.162  16.547  0.1490  0.2173 -0.0419
12720W        W33000   5.126  13.541   2.459  0.1469 -0.2428 -0.0716
12721W        W33001   8.019  12.287   5.171 -0.0359  0.3546  0.1960
12722W        W33002   8.881  10.396  16.709 -0.0351 -0.1002 -0.0173
12723W        W33003  14.768  15.686  15.875 -0.1024  0.0597  0.1552
12724W        W33004  13.808   5.338   2.136  0.2686 -0.3122  0.0342
12725W        W33005   3.579  14.356   2.966  0.0881 -0.1810 -0.1714
12726W        W33006  12.303   6.895   3.305  0.1551 -0.0900  0.1374
12727W        W33007   6.322  14.328   3.109  0.3578 -0.0159  0.0309
12728W        W33008  17.464   8.948  13.488 -0.0856  0.1536 -0.3395
12729W        W33009   4.357   7.893   2.600 -0.4154 -0.1552 -0.1078
12730W        W33010   8.126  17.309  13.839  0.0178 -0.0500 -0.0204
12731W        W33011   6.162  16.250  13.305  0.0831  0.1130  0.1430
12732W        W33012   0.435   5.774   3.719 -0.0446 -0.2166 -0.0257
12733W        W33013   6.776   6.076   4.366  0.5185 -0.2819 -0.0171
12734W        W33014  10.589  14.350  13.187  0.3127 -0.0306  0.1373
12735W        W33015  14.107   9.260   1.770 -0.1968  0.1525 -0.1643
12736W        W33016  10.800   8.536   3.755 -0.1457  0.0793  0.1976
12737W        W33017   4.013   4.850   5.809 -0.1712 -0.0804  0.0033
12738W        W33018   4.544   1.091   0.463  0.3523 -0.4260  0.1434
12739W        W33019  13.343   0.614  13.280 -0.1445 -0.0094  0.0468
12740W        W33020  13.194   8.522   3.163 -0.2392 -0.1426  0.0948
12741W        W33021  15.093   5.220  15.667  0.1232 -0.4135 -0.0550
12742W        W33022  10.604  17.097   0.578 -0.2058 -0.1629 -0.3215
12743W        W33023   7.765  15.810   3.308 -0.1605 -0.1211  0.1756
12744W        W33024  16.920   9.078  13.633  0.0156 -0.0022  0.1152
12745W        W33025   3.460  15.778  12.529  0.0202  0.0298 -0.3682
12746W        W33026  13.636  14.218   1.556 -0.1111  0.2769 -0.2040
12747W        W33027  16.267   8.615  16.495 -0.0044  0.1157  0.0402
12748W        W33028  14.683   2.239  16.515  0.0662  0.2341  0.0413
12749W        W33029   8.995  15.184   0.752 -0.0427  0.0317  0.0295
12750W        W33030   8.901  10.519   2.648 -0.1623  0.0528 -0.0609
12751W        W33031   0.478  16.916  14.487  0.1889 -0.0280  0.2987
12752W        W33032   4.184   1.089  15.118  0.0920 -0.0420  0.0850
12753W        W33033   3.960  15.087   2.408 -0.1052 -0.1253 -0.2529
12754W        W33034  15.402  11.310   0.196 -0.1038  0.0716  0.2173
12755W        W33035   0.641   0.184  14.137 -0.2189 -0.0549  0.0778
12756W        W33036  16.204   3.578  12.480  0.2177 -0.2114 -0.0664
12757W        W33037   3.583  15.810  15.540  0.1858 -0.0403 -0.0504
12758W        W33038  15.144  12.313  15.923 -0.0711 -0.0764  0.3174
12759W        W33039   6.550  17.595   1.788 -0.1443  0.1079  0.1944
12760W        W33040  15.741   5.985  16.218  0.0156  0.3388  0.1394
12761W        W33041  11.693   7.525   1.022  0.0296 -0.0277  0.1346
12762W        W33042   4.594  17.312  16.381  0.1081  0.1360 -0.0138
12763W        W33043   9.419   0.574   4.165  0.4397 -0.1716 -0.1523
12764W        W33044  16.531   1.326  14.905 -0.1077 -0.1810  0.2429
12765W        W33045   6.980  15.153  13.347 -0.3534 -0.0912 -0.1529
12766W        W33046   0.236  13.732   2.013 -0.0657  0.2290 -0.0202
12767W        W33047   7.966   9.212   4.399 -0.0374  0.1224 -0.0102
12768W        W33048   5.720  10.394  12.238  0.3399  0.0328  0.1210
12769W        W33049   8.452   8.639   0.618  0.2434 -0.0760 -0.1209
12770W        W33050   0.654  12.082   0.464 -0.1373  0.2265 -0.1789
12771W        W33051   4.471   8.881   4.705  0.0042  0.0030 -0.2934
12772W        W33052   6.795   7.195  14.710 -0.0257  0.3352  0.0959
12773W        W33053  11.020  10.483  13.754  0.0213 -0.0811 -0.1707
12774W        W33054   9.985   7.756   1.629 -0.0750 -0.2297  0.0563
12775W        W33055  10.271   9.131  15.666  0.0987 -0.0883 -0.1882
12776W        W33056  15.726  14.482   0.530 -0.1071 -0.0459 -0.0237
12777W        W33057  12.751   2.594  16.461  0.0630  0.0470 -0.0126
12778W        W33058   0.236   1.778  12.435  0.0008  0.0892  0.0968
12779W        W33059  15.796  11.933   1.484 -0.3249 -0.1411  0.1514
12780W        W33060   0.935   8.702   1.043  0.0150 -0.1182  0.1222
12781W        W33061   7.790   2.911   1.502  0.0410  0.0114 -0.0663
12782W        W33062  11.568   2.452   1.486  0.2677  0.3550  0.1569
12783W        W33063  10.455  16.777  16.262 -0.0167 -0.1326  0.1354
12784W        W33064   0.085   5.765  14.490  0.0222 -0.0947  0.4704
12785W        W33065  10.062   8.817  14.286 -0.0300  0.4902 -0.0427
12786W        W33066  16.572   6.888   3.735 -0.2390 -0.1504 -0.0763
12787W        W33067   9.156  12.846   0.727  0.2177  0.2889 -0.0740
12788W        W33068   1.970   9.937  14.015  0.0039  0.1073  0.1679
12789W        W33069   2.520   9.233   0.399 -0.2365 -0.2196 -0.1974
12790W        W33070  13.414   9.587  16.164 -0.2846  0.0455  0.2132
12791W        W33071   7.936  12.009  12.967  0.1874 -0.1083 -0.0946
12792W        W33072  10.332  14.610  14.956 -0.3201 -0.2343  0.0633
12793W        W33073  17.228  16.462  16.031  0.2752  0.0837 -0.0184
12794W        W33074   9.060   3.321   2.208 -0.1663 -0.0389  0.0865
12795W        W33075  16.270   4.386   0.471  0.0089  0.0831 -0.0802
12796W        W33076  16.922   9.508   2.537 -0.1226  0.2008  0.0823
12797W        W33077   4.481   7.338  14.853 -0.3413  0.2462 -0.0694
12798W        W33078  13.480   7.474  12.706 -0.2772 -0.2124  0.0665
12799W        W33079  13.668  16.172  12.807 -0.0118  0.1186 -0.1394
12800W        W33080  12.744   4.585   1.711  0.1826  0.1052  0.1892
12801W        W33081   7.067   3.600   0.684 -0.2671  0.0314 -0.1422
12802W        W33082   7.559   8.052  16.747 -0.0392 -0.0386  0.2224
12803W        W33083  12.183   0.785   3.523 -0.0459  0.2349 -0.0451
12804W        W33084   1.008   2.599   4.916  0.0260 -0.0155 -0.3673
12805W        W33085   4.868  17.037   1.097 -0.2864  0.1288 -0.3600
12806W        W33086   9.755   4.757   3.667  0.0730  0.0751  0.3052
12807W        W33087  10.147   8.279  14.525 -0.0715  0.1466  0.1885
12808W        W33088   7.866  14.021  13.298  0.0274 -0.1612 -0.2391
12809W        W33089  12.619   9.125  12.431  0.1508  0.0358 -0.2546
12810W        W33090   1.991   8.921   1.076  0.1717 -0.1503  0.1122
12811W        W33091   2.579   6.800  16.831 -0.0983 -0.0005 -0.0197
12812W        W33092   3.715  10.801   4.160 -0.1934  0.0590 -0.1220
12813W        W33093   1.273  10.514   1.981 -0.1361 -0.4455  0.3336
12814W        W33094   2.087  12.189   0.302 -0.1381 -0.1840  0.0910
12815W        W33095   7.872   1.079  16.406 -0.2847 -0.0470  0.1307
12816W        W33096   3.581   6.349   0.132 -0.1802 -0.0476  0.1281
12817W        W33097   8.699   4.082   2.540 -0.2035 -0.0010 -0.1428
12818W        W33098  13.735   2.319   1.104  0.3274  0.5097 -0.4245
12819W        W33099  17.101   9.921  12.479 -0.0235 -0.0787  0.1841
12820W        W33100  11.306  10.802  13.963  0.0094 -0.0388  0.0682
12821W        W33101   3.257   3.014   3.567  0.1893 -0.0902  0.1519
12822W        W33102   6.357   1.009  16.535  0.0856 -0.0243 -0.2577
12823W        W33103   9.686   1.231   2.631 -0.1445 -0.1171 -0.1560
12824W        W33104   8.121   8.997  16.473  0.0207  0.3621  0.1099
12825W        W33105   1.949   7.239   4.626 -0.0360  0.1459 -0.2365
12826W        W33106  13.892  13.943  12.281 -0.0721  0.0104 -0.1353
12827W        W33107  14.929  14.185  16.443 -0.0954  0.1110 -0.4289
12828W        W33108  15.723  10.504   4.643  0.2043 -0.1519  0.0273
12829W        W33109  11.625  14.269   3.541  0.2040  0.0685  0.0400
12830W        W33110   7.447  13.319  12.953  0.3069  0.0642 -0.0874
12831W        W33111   5.494   2.451   3.118  0.1576 -0.1327 -0.2101
12832W        W33112  16.725   7.069  14.131  0.1319 -0.1805  0.2069
12833W        W33113   2.524  15.755   3.582  0.1309  0.2519 -0.0601
12834W        W33114   2.735  11.537   3.644 -0.0579 -0.0330 -0.0376
12835W        W33115   6.058   6.648   3.114  0.0194 -0.1068  0.0065
12836W        W33116   5.382   2.766   4.788 -0.1639  0.0150  0.2390
12837W        W33117   5.026  10.187   3.948  0.2438  0.1695 -0.2753
12838W        W33118   6.989  15.992  13.583 -0.1445  0.3289  0.1100
12839W        W33119   8.528   2.702   0.185  0.1328  0.0310 -0.3166
12840W        W33120  11.929  15.021  14.759 -0.0926  0.3370  0.2067
12841W        W33121   3.048   5.500   2.043  0.0548 -0.0886  0.0171
12842W        W33122   9.267  10.326   0.381 -0.0337  0.0640  0.1626
12843W        W33123   8.524   8.962   3.014  0.1490 -0.2688 -0.1725
12844W        W33124  16.621  13.554   2.138 -0.0081 -0.1534 -0.1041
12845W        W33125   8.424   0.528  12.159  0.0339 -0.2234  0.0986
12846W        W33126  15.207  13.517  13.410  0.0027 -0.1143  0.1485
12847W        W33127   9.024  12.795  14.957 -0.1820  0.0118 -0.1126
12848W        W33128   0.625  17.583  12.829  0.1101  0.0382  0.0358
12849W        W33129  12.570   1.579   1.693 -0.0355  0.3035  0.2818
12850W        W33130   9.813  16.898   0.606  0.1654 -0.2294  0.2086
12851W        W33131  16.840  17.136   2.725  0.2991  0.0280 -0.1726
12852W        W33132  10.212  14.209   3.945  0.3914  0.1773 -0.1006
12853W        W33133  11.955  11.617   2.972 -0.0040  0.1093  0.1165
12854W        W33134   3.998  16.312  16.722  0.3774 -0.0874  0.0373
12855W        W33135  17.236   5.782  13.054 -0.3334 -0.2574  0.0158
12856W        W33136   6.738   7.008  16.128  0.0124  0.1207 -0.1996
12857W        W33137  16.928   2.619   3.531  0.1890 -0.2065 -0.4271
12858W        W33138   1.373  17.347   1.978 -0.0912 -0.2643  0.0159
12859W        W33139   5.799  14.891   4.636  0.3080  0.1429 -0.0537
12860W        W33140  13.440  12.151  16.768  0.4754  0.1246  0.1103
12861W        W33141   9.982   3.343  11.825  0.0254  0.1109  0.1964
12862W        W33142   9.577   0.140   4.739  0.1510  0.1250 -0.3418
12863W        W33143  11.886  15.132   0.835  0.0200 -0.3174 -0.1313
12864W        W33144   8.262  14.135  14.309  0.2460 -0.0625  0.0577
12865W        W33145   0.138   6.725   2.218  0.0764  0.0003 -0.2798
12866W        W33146  17.688  10.830   3.152 -0.0867  0.0435  0.3980
12867W        W33147   0.441  16.106  13.876 -0.1573 -0.1012  0.2056
12868W        W33148  15.367   8.678  13.045 -0.0255  0.0006  0.2463
12869W        W33149  16.932  10.543  12.563  0.2347  0.0018  0.2507
12870W        W33150   7.627   4.276   3.242 -0.1295  0.1726  0.1188
12871W        W33151  14.278  16.557  13.398  0.0398 -0.1110  0.1407
12872W        W33152  16.580  12.583  12.827  0.2460 -0.2346  0.2046
12873W        W33153   5.811   1.390  13.715 -0.0101 -0.3129 -0.2415
12874W        W33154  17.598   6.934  15.263  0.2396 -0.0875  0.0440
12875W        W33155  16.839  13.664   0.342  0.0152 -0.0070  0.0980
12876W        W33156  13.427   8.122   4.093 -0.1380 -0.0308 -0.0066
12877W        W33157  12.093  11.547  14.864  0.6090 -0.1815  0.1799
12878W        W33158   3.688  16.845   2.046 -0.0906  0.3530 -0.2091
12879W        W33159  16.595  14.892  13.124  0.1577  0.0549 -0.2155
12880W        W33160   5.011  12.859   4.203 -0.2730  0.2217  0.0411
12881W        W33161  14.410   5.236   0.240  0.1071 -0.0558 -0.1664
12882W        W33162  10.308   4.916   3.768  0.0530  0.0967  0.2558
12883W        W33163   7.021   3.916   1.148 -0.0282 -0.2392  0.1091
12884W        W33164  12.923   7.478  12.768 -0.2594  0.1249  0.0440
12885W        W33165  12.817   6.457   3.653 -0.1178  0.0255  0.3176
12886W        W33166  15.943   7.566  11.977  0.2075 -0.3056  0.0806
12887W        W33167   4.714   4.456  15.912  0.1052  0.1533  0.1752
12888W        W33168   6.016  11.821  12.441  0.0718  0.0835  0.1297
12889W        W33169   0.356  14.508   4.243  0.0981  0.2732 -0.1396
12890W        W33170   0.463  10.258  12.757 -0.0512 -0.1780  0.0436
12891W        W33171   6.462  12.717   0.142  0.3148  0.2806  0.1353
12892W        W33172  17.159   6.493   1.556 -0.1610 -0.0419 -0.0261
12893W        W33173  10.849   6.569   4.453 -0.2373 -0.2276  0.1341
12894W        W33174   5.952   5.709   3.910 -0.3151  0.3035 -0.0222
12895W        W33175   0.523  16.743  12.547 -0.2511 -0.1265  0.1455
12896W        W33176   9.881   8.085   2.446  0.1506  0.2744  0.1370
12897W        W33177  12.141  16.448   4.732  0.1378 -0.0300  0.0632
12898W        W33178   3.495   5.927   2.074  0.0861  0.1179  0.1436
12899W        W33179   7.656  12.699   2.668 -0.1340  0.0602  0.0051
12900W        W33180   6.222  12.456   0.569 -0.1049 -0.3067  0.2123
12901W        W33181  15.515   2.709   4.109 -0.0211  0.4169 -0.1904
12902W        W33182   0.878   1.574  14.796 -0.2077  0.0793 -0.1605
12903W        W33183   3.039  16.826  14.060  0.0319  0.1924  0.0419
12904W        W33184  13.705  14.567   3.249  0.0718 -0.0538  0.1051
12905W        W33185   1.176  15.253  15.663 -0.0893  0.1672 -0.1057
12906W        W33186  16.102   1.109  14.942 -0.0179  0.1817 -0.0671
12907W        W33187   5.776   6.424  15.254  0.0735  0.2535  0.1337
12908W        W33188  13.648  10.318  12.467 -0.1005  0.1760  0.1255
12909W        W33189  15.477   4.001  14.265  0.0671  0.3859  0.0026
12910W        W33190   7.827   8.213   3.555  0.1339  0.1181 -0.0644
12911W        W33191   0.077  16.065  15.186  0.0600 -0.1611  0.4097
12912W        W33192   1.735  14.337   2.910 -0.1091  0.1404  0.1558
12913W        W33193   5.644   7.784  16.368 -0.1707  0.1225  0.3673
12914W        W33194  16.113  10.488   1.871  0.0755  0.0275  0.0536
12915W        W33195   5.703  13.251   4.258  0.0794 -0.0957 -0.0046
12916W        W33196   3.844  14.055  16.801  0.3899 -0.4329  0.0370
12917W        W33197   4.124  14.111   2.378 -0.0660  0.1094  0.0532
12918W        W33198   7.206   4.254  16.346 -0.2783 -0.0315 -0.2750
12919W        W33199   3.589  14.736  16.133  0.0856  0.1085  0.0979
12920W        W33200  16.779   3.932  13.136  0.2805  0.2880 -0.0612
12921W        W33201  13.111   8.056   0.115 -0.2432 -0.1773 -0.0582
12922W        W33202  14.101   5.666  14.163  0.1205  0.2638  0.0309
12923W        W33203   8.451   6.254   4.642  0.0055 -0.0257  0.0884
12924W        W33204  12.749   1.257  15.523 -0.0358 -0.0140 -0.0759
12925W        W33205  15.345  14.932  16.012  0.2276 -0.4687  0.1025
12926W        W33206  13.253  13.331   2.765 -0.0123  0.0309 -0.0852
12927W        W33207  10.324   3.511   2.478  0.1081  0.1443 -0.0099
12928W        W33208  12.096   2.486  15.275 -0.0446 -0.1181  0.0056
12929W        W33209   1.923  14.541  16.696  0.1223 -0.1001 -0.3567
12930W        W33210  11.578  17.167  12.357 -0.1483  0.0072  0.3125
12931W        W33211   2.121  11.960  15.154  0.1039  0.0869 -0.0097
12932W        W33212   0.770   5.983  13.158  0.2529 -0.2118 -0.0235
12933W        W33213  15.987  13.005   3.537 -0.3737 -0.0693 -0.0302
12934W        W33214   3.754   8.531  15.298  0.2237 -0.3142 -0.0859
12935W        W33215  17.120   3.712   4.486 -0.0706 -0.0238 -0.1949
12936W        W33216   7.932  11.754  16.163 -0.1070  0.0103 -0.2182
12937W        W33217   6.987   8.954   2.866 -0.3059  0.1119 -0.2985
12938W        W33218   6.654   3.659  16.754  0.1546  0.0900 -0.1115
12939W        W33219  16.125   1.469  16.289  0.3394 -0.0696  0.1114
12940W        W33220   5.442   5.643   0.915 -0.0405  0.0679 -0.1749
12941W        W33221   0.340  13.291  14.950  0.0024  0.1149 -0.3519
12942W        W33222   2.316  14.540   3.979 -0.0998 -0.0408  0.2748
12943W        W33223   0.143   5.215   3.635 -0.1067  0.0052 -0.0978
12944W        W33224  11.173  16.979   3.380 -0.0310 -0.1895  0.2084
12945W        W33225  12.793   0.267   2.755  0.0053  0.1241 -0.1663
12946W        W33226   2.933   7.196   5.088  0.1289  0.0063 -0.0214
12947W        W33227   9.786  16.549   0.193 -0.0808 -0.0684  0.0027
12948W        W33228   0.250  10.535  16.380 -0.1389  0.1748  0.3541
12949W        W33229   2.946   4.815  16.843 -0.0636  0.0241 -0.0161
12950W        W33230  10.620  10.562  14.097 -0.0431  0.1251  0.3741
12951W        W33231  13.949  10.365   4.653  0.0702  0.1758 -0.4211
12952W        W33232   2.659  13.508  14.877 -0.0843  0.3144  0.0152
12953W        W33233  16.787  16.047   1.733 -0.2216  0.0128 -0.2443
12954W        W33234   5.812   5.956   0.999  0.1114 -0.1513  0.1871
12955W        W33235   0.909  12.694   1.684 -0.3792  0.2492 -0.0099
12956W        W33236  10.850  12.057   4.383  0.1183  0.1926 -0.0846
12957W        W33237  13.146  12.535  16.251 -0.0261  0.3594  0.3888
12958W        W33238   4.557   5.562   0.961 -0.1731  0.1258  0.1498
12959W        W33239   0.254   4.902   3.990  0.1593  0.4133 -0.2426
12960W        W33240   0.910  13.696  13.878  0.0871 -0.0595  0.0521
12961W        W33241   1.846   1.594  13.231  0.0851  0.1657  0.1630
12962W        W33242   8.279  13.879  16.666  0.1913 -0.2487 -0.1471
12963W        W33243   5.671   8.285   2.677 -0.0311  0.0748  0.1545
12964W        W33244   5.174  15.891   2.846  0.0517  0.2343  0.1059
12965W        W33245   8.828  17.649  15.505 -0.0324 -0.3453  0.0808
12966W        W33246   0.720   9.921  14.300  0.2116  0.2535  0.0098
12967W        W33247   5.800   7.196   0.313 -0.0627  0.0221 -0.1204
12968W        W33248  10.159   9.216   2.817  0.1066 -0.2479  0.3274
12969W        W33249   3.116   5.720  13.952 -0.2029 -0.3896 -0.0139
12970W        W33250   5.137   2.976  16.549 -0.0120 -0.0441  0.1693
12971W        W33251   3.804   9.610   3.855 -0.0155 -0.0396 -0.0766
12972W        W33252  16.352   4.868   0.661 -0.0115 -0.0812  0.0297
12973W        W33253  11.936   2.022  16.155 -0.0106  0.0678 -0.0225
12974W        W33254  13.185   4.307  14.172 -0.2778 -0.0638  0.2819
12975W        W33255   6.988  15.646  12.469 -0.1089 -0.0010 -0.1844
12976W        W33256   9.585  17.025  12.861  0.1910 -0.1220 -0.1761
12977W        W33257   0.698   4.314  12.543 -0.0127 -0.3272  0.1122
12978W        W33258   6.208   3.709   0.264 -0.1181  0.3417 -0.2182
12979W        W33259  13.317   6.965  12.662 -0.0838 -0.0654  0.1091
12980W        W33260   5.072  10.173  11.543 -0.2047  0.2549  0.0597
12981W        W33261   1.963   5.148  14.274 -0.2248  0.1022 -0.2355
12982W        W33262   6.839  14.497  13.230 -0.0875 -0.0977 -0.1321
12983W        W33263  14.150   7.458   4.640 -0.1084 -0.4610  0.2940
12984W        W33264   2.930   6.198  15.373  0.0212 -0.2846  0.0598
12985W        W33265  15.447   9.581  14.311  0.2263  0.2672  0.1370
12986W        W33266   9.537  13.125  13.564  0.0415 -0.0271 -0.2506
12987W        W33267  15.745   5.386   3.672  0.0832  0.1063  0.2234
12988W        W33268   0.598   3.945  14.639 -0.0733  0.2844  0.2288
12989W        W33269   4.305   2.361  13.922  0.2419 -0.1447  0.0355
12990W        W33270  14.684  12.586   3.263 -0.1651 -0.0546  0.2575
12991W        W33271   2.404  12.331  15.361 -0.1630 -0.1329 -0.5151
12992W        W33272   2.271  11.023   4.787  0.2108 -0.0371 -0.0668
12993W        W33273  16.165   5.731   2.153 -0.0880 -0.0122  0.2406
12994W        W33274   6.627   4.744  13.883  0.0035 -0.2166  0.0870
12995W        W33275  16.670   9.566   1.103  0.1431 -0.1476  0.1370
12996W        W33276   8.773  13.374  14.252 -0.4189  0.2505 -0.6120
12997W        W33277   8.471  11.562  13.158  0.0392 -0.0007  0.2181
12998W        W33278   7.838   2.404  15.771 -0.3184  0.0162 -0.1269
12999W        W33279  13.933  16.829   0.129 -0.1689 -0.0739  0.0128
13000W        W33280  16.429   6.564   0.641  0.0368  0.0843  0.1567
13001W        W33281   8.483  17.607  14.220 -0.1520  0.0902 -0.1215
13002W        W33282   0.752   5.236  14.919 -0.3249  0.2148  0.1176
13003W        W33283   7.573   3.012   2.398 -0.1810 -0.0619  0.0084
13004W        W33284   1.194  15.926   0.158  0.3064  0.1248 -0.0311
13005W        W33285   7.429   0.518  14.724 -0.1227  0.0794  0.0670
13006W        W33286   2.044  15.831   1.143 -0.2770  0.3062 -0.1597
13007W        W33287  10.575   3.758   2.831 -0.0191  0.0698  0.3118
13008W        W33288   9.137  14.160   3.155 -0.0432 -0.0704  0.1300
13009W        W33289  15.094  17.401   3.833  0.0890 -0.0051 -0.1567
13010W        W33290  12.263   0.216  15.818  0.0890  0.0397  0.0310
13011W        W33291   5.862   6.631  14.730 -0.1307  0.1196  0.0407
13012W        W33292  10.874   4.256  14.134  0.3050  0.1921 -0.1567
13013W        W33293   7.876   0.235   4.187 -0.1840 -0.1821  0.0599
13014W        W33294   1.796   0.722  12.567 -0.0766  0.1645  0.2043
13015W        W33295  16.526   3.277  12.243  0.2659 -0.0097 -0.1031
13016W        W33296  17.702  13.485   4.822  0.0433 -0.1411 -0.2597
13017W        W33297   2.468  13.709   3.354  0.1045  0.5501 -0.2269
13018W        W33298  10.593  17.124  15.747 -0.2596 -0.3220  0.0344
13019W        W33299  10.873  16.242   0.217 -0.3376  0.4380 -0.1771
13020W        W33300   4.758   3.438   1.357 -0.1135  0.1622  0.0520
13021W        W33301   6.462   2.329   4.599 -0.1045  0.2586  0.2846
13022W        W33302  14.621  17.550   3.988  0.2964 -0.1479  0.0042
13023W        W33303   5.325   4.593  12.539 -0.0723 -0.0387  0.4221
13024W        W33304   6.417  11.134   0.660  0.2601 -0.1691  0.0677
13025W        W33305   1.042   3.300  14.010 -0.2934  0.0274  0.1225
13026W        W33306  15.256  15.685  16.453  0.1030 -0.0128  0.1058
13027W        W33307  16.342   0.543  12.830 -0.1448  0.1403 -0.0156
13028W        W33308   7.843   2.923   3.095  0.2934  0.1168  0.2079
13029W        W33309   9.957  16.144   1.653  0.1952  0.0356  0.2800
13030W        W33310  17.299   7.788  13.371 -0.0735 -0.2186  0.3104
13031W        W33311  10.451  12.324  16.048  0.0431  0.1044  0.0270
13032W        W33312  15.983   6.791  14.197 -0.2974  0.1538  0.0669
13033W        W33313  14.988   5.700   3.153 -0.1329  0.0249  0.1966
13034W        W33314   6.618   4.592   4.763  0.4160  0.1102 -0.1216
13035W        W33315  15.500   8.399   2.201 -0.0526 -0.1642  0.1955
13036W        W33316  12.656   1.565  10.969  0.3180 -0.4392 -0.1760
13037W        W33317   6.278   1.561   3.789 -0.1581  0.0231  0.0095
13038W        W33318   9.400   4.346  15.108  0.3050 -0.0741 -0.0001
13039W        W33319  14.537   5.953   3.255 -0.0670  0.0244  0.2731
13040W        W33320  14.313  14.971  12.927  0.2817 -0.0751  0.0523
13041W        W33321  14.858   3.037  15.085 -0.1911  0.1870  0.0840
13042W        W33322  10.125  16.112   4.528 -0.1469 -0.0160 -0.0570
13043W        W33323   1.394  16.140  13.977 -0.1366 -0.2975  0.2706
13044W        W33324  14.924  16.708  13.704  0.2338 -0.1379 -0.0955
13045W        W33325  10.486  11.098   0.030  0.1214 -0.0338  0.0266
13046W        W33326   1.521   9.834  13.740 -0.1346 -0.1103  0.1572
13047W        W33327   4.177  12.794  16.734  0.3011 -0.2063 -0.0725
13048W        W33328  13.082   3.660   0.404  0.0904 -0.0302 -0.2008
13049W        W33329   2.553   2.559   0.865 -0.1439 -0.0273 -0.1543
13050W        W33330  12.879   6.840   0.815 -0.0870  0.1928  0.0103
13051W        W33331   8.184  12.525   4.314  0.2722 -0.0509  0.1018
13052W        W33332   5.737  11.718   0.818  0.3300 -0.1948 -0.0477
13053W        W33333   8.321   2.602   3.858 -0.4432  0.0101 -0.0939
13054W        W33334   0.030  12.479   1.741 -0.1777 -0.2153  0.2183
13055W        W33335  14.024   0.463   4.190 -0.1838 -0.3684 -0.1821
13056W        W33336  15.643   4.261  16.258 -0.1078  0.0037  0.0102
13057W        W33337  12.514   5.948   3.426 -0.0713  0.1298  0.2500
13058W        W33338   7.766   6.225   3.652 -0.2258  0.1571  0.0647
13059W        W33339   8.988   0.683   4.788 -0.2149 -0.0781  0.0634
13060W        W33340  11.418   3.595  14.957 -0.0656 -0.0015  0.2862
13061W        W33341  16.448   7.708  12.958 -0.1038 -0.1585 -0.0304
13062W        W33342   6.863   2.499  12.072 -0.0727  0.1018 -0.2509
13063W        W33343  12.255   4.773  16.194 -0.0012  0.3430 -0.1310
13064W        W33344   4.362  13.591  12.262  0.2156  0.2367 -0.1019
13065W        W33345   6.734  10.593  12.046  0.0708 -0.0248  0.3449
13066W        W33346   5.600   4.072   5.047  0.1569  0.2637 -0.0220
13067W        W33347  17.371   5.195  15.369  0.4768 -0.1775  0.1123
13068W        W33348  14.754   8.976  15.023  0.1123 -0.2481 -0.0993
13069W        W33349   4.614  14.560   0.928  0.2725  0.0817 -0.0617
13070W        W33350   0.714   6.225   2.791  0.4443 -0.0985 -0.3135
13071W        W33351   8.009  16.935   0.727 -0.0596  0.2782 -0.1141
13072W        W33352  16.040   4.964  13.063 -0.2510 -0.2228 -0.3092
13073W        W33353  11.135   8.979   0.326  0.4096  0.0645 -0.0778
13074W        W33354   3.054   9.607   4.500 -0.0179 -0.3228 -0.2990
13075W        W33355  11.556  14.670   2.778 -0.1113 -0.2539  0.0511
13076W        W33356  12.645   6.172  16.581 -0.2360  0.3128  0.0321
13077W        W33357   5.972   1.155   0.095  0.0646  0.0081  0.0679
13078W        W33358  14.382  10.197   1.966 -0.1927 -0.1216  0.2561
13079W        W33359   0.723   7.414   1.236  0.1084  0.2276 -0.0710
13080W        W33360   8.940  13.479   4.374  0.2524  0.1975 -0.1665
13081W        W33361   0.654  11.319  13.668 -0.0112  0.1539 -0.1662
13082W        W33362   2.484   4.648  14.780 -0.0893  0.1100 -0.0870
13083W        W33363   4.879   7.644  14.859 -0.0567 -0.1078  0.1220
13084W        W33364   6.352  15.074   4.689 -0.0222  0.2429 -0.2554
13085W        W33365  10.348  15.859   4.930  0.1792 -0.0469  0.0010
13086W        W33366   9.000  15.159  15.983  0.1039 -0.1247  0.1427
13087W        W33367  12.469  17.014  16.221 -0.1427 -0.2370 -0.1459
13088W        W33368   4.742   0.825   1.802 -0.4424 -0.3701 -0.0567
13089W        W33369  16.537  16.068  13.619  0.0653 -0.0525  0.1819
13090W        W33370   4.645  13.363   5.650  0.3160 -0.1329 -0.1667
13091W        W33371  11.227  13.597  14.830 -0.1246  0.1251  0.1316
13092W        W33372  12.401  17.131   4.698  0.1694 -0.2193 -0.0356
13093W        W33373  11.102  14.707   3.061  0.1563 -0.6620 -0.1300
13094W        W33374   6.991  11.892  14.168 -0.0147  0.1190 -0.1437
13095W        W33375  14.302  16.286   3.396  0.1970 -0.0439  0.5157
13096W        W33376  10.293   4.627  13.128  0.4354 -0.2784 -0.2514
13097W        W33377   0.943  11.128   1.024 -0.3720 -0.0049  0.1903
13098W        W33378   5.964   6.624  12.595  0.1812 -0.2488  0.0856
13099W        W33379   6.024   1.512  12.867  0.2089 -0.2803  0.1827
13100W        W33380  15.468  11.206   3.744 -0.0238 -0.0826 -0.1236
13101W        W33381  17.738  13.092   1.256  0.0377  0.0744 -0.2917
13102W        W33382  11.384   4.941  13.494 -0.0104  0.1884 -0.0831
13103W        W33383  11.717   4.720   1.508 -0.1637  0.0319  0.1171
13104W        W33384   9.153   0.261  15.554 -0.1490 -0.1584  0.0829
13105W        W33385  12.405   7.991  16.118  0.0514 -0.3219  0.0540
13106W        W33386   4.907   3.185  16.147  0.0086 -0.0824 -0.1191
13107W        W33387   0.394   7.571  13.753  0.0344  0.0173  0.0590
13108W        W33388   8.903   5.169  13.277 -0.0909  0.1594  0.1624
13109W        W33389  14.940   1.717  16.409  0.0638 -0.1613 -0.1198
13110W        W33390  15.593   7.891   4.856  0.2306  0.0800  0.1737
13111W        W33391   3.425  17.358  14.510  0.1679 -0.1254 -0.2944
13112W        W33392   3.178   8.728  12.741 -0.1897  0.0594  0.2043
13113W        W33393   3.773  14.308  13.444  0.0497  0.1605  0.1568
13114W        W33394   2.981  12.628  12.214 -0.2217 -0.1276  0.1366
13115W        W33395   1.427   0.877   3.527 -0.1065 -0.0947 -0.0031
13116W        W33396   6.660   4.934   1.500 -0.2051 -0.0953 -0.0512
13117W        W33397  10.239   6.920  13.227 -0.2125  0.1022 -0.1856
13118W        W33398   0.579  16.014  14.376  0.0541 -0.2470 -0.0112
13119W        W33399  14.345   1.661   0.863 -0.0836 -0.2308 -0.2644
13120W        W33400  11.909   4.422  12.354 -0.0700  0.1673  0.1326
13121W        W33401  16.061  16.591  16.365  0.0769 -0.0496  0.0984
13122W        W33402   0.463  13.981  15.310  0.0590 -0.3788 -0.0144
13123W        W33403  16.766   5.886  12.378 -0.0928 -0.2064 -0.0902
13124W        W33404   1.904   8.215   3.420 -0.3788 -0.2551  0.2145
13125W        W33405  14.011   9.426  13.643 -0.0795 -0.0423  0.2259
13126W        W33406  11.342  16.166  15.008 -0.1907  0.2724  0.1793
13127W        W33407  15.367   6.680   1.991  0.1504  0.3126 -0.1063
13128W        W33408   5.430  14.199  15.559 -0.1521  0.0492  0.2548
13129W        W33409   6.581   0.297   4.072 -0.1302 -0.0516  0.0962
13130W        W33410   2.170   1.412   3.067 -0.1724  0.0497  0.3381
13131W        W33411  10.665   0.697   3.611 -0.0767  0.0107 -0.2293
13132W        W33412   0.204   3.912   4.163  0.0785 -0.1357 -0.0820
13133W        W33413   7.037  10.823   3.793  0.0759 -0.2106 -0.0668
13134W        W33414   5.164   7.698  16.531  0.0589  0.2404  0.1071
13135W        W33415  14.608   2.632   3.827  0.1833 -0.0777 -0.2489
13136W        W33416  16.095  13.120   1.228 -0.4392  0.1237 -0.3882
13137W        W33417   2.476  15.440   0.952 -0.1317 -0.3083 -0.1128
13138W        W33418   7.804  15.990   2.413 -0.1501 -0.0581  0.3975
13139W        W33419  17.161  11.296  14.644 -0.0737  0.1780  0.0578
13140W        W33420   2.436  11.195   5.879  0.0412 -0.2791 -0.4016
13141W        W33421  11.803   0.433  13.364 -0.1048 -0.0956  0.0864
13142W        W33422  12.615   3.862  16.043  0.1042 -0.0595  0.0247
13143W        W33423  15.859   6.579   2.010 -0.3095  0.1709 -0.0207
13144W        W33424   5.046   2.964  12.117  0.1694 -0.2494 -0.1847
13145W        W33425  16.493  11.061  15.362  0.3512  0.1453 -0.0740
13146W        W33426  13.397  17.009  13.918  0.0647  0.2032 -0.1813
13147W        W33427   2.650   9.695   2.536  0.3753  0.0202  0.0136
13148W        W33428   3.601   4.145   3.672 -0.1148  0.1526 -0.0090
13149W        W33429  12.329   3.560   1.878 -0.0571 -0.0862  0.2672
13150W        W33430  14.378   8.413   3.729  0.0862  0.2124  0.0424
13151W        W33431  12.881   8.141   1.212  0.0441  0.0360  0.0765
13152W        W33432   9.687  15.593   0.274 -0.1079 -0.3705 -0.3078
13153W        W33433   0.137   3.529  15.955 -0.1237  0.2114 -0.2756
13154W        W33434   4.499   6.112   1.051  0.1820  0.0508 -0.1420
13155W        W33435  14.161   0.699   1.073  0.0638  0.1336  0.3164
13156W        W33436   6.938  14.324  13.727  0.0704 -0.0451 -0.0394
13157W        W33437   9.601  10.615  15.409 -0.0682 -0.0367 -0.1345
13158W        W33438  13.264   6.494   0.938  0.2103  0.1579  0.1088
13159W        W33439  14.885  13.283   4.191 -0.0200 -0.1282 -0.0389
13160W        W33440  12.910   3.865  16.827 -0.0264  0.1368  0.1026
13161W        W33441  14.171  10.055   2.938 -0.1129 -0.1409  0.2405
13162W        W33442   2.925  17.130  13.631  0.1679  0.0375 -0.1818
13163W        W33443   7.763   1.925   1.180  0.0591 -0.1803 -0.3625
13164W        W33444  15.033  13.839   2.623  0.2982  0.0742 -0.1219
13165W        W33445   4.026  17.723   1.870  0.2420 -0.1436  0.1092
13166W        W33446  13.082   3.423  15.530  0.2593  0.1261  0.1103
13167W        W33447   7.507  16.073  16.132  0.1149 -0.0320 -0.0750
13168W        W33448  13.965  11.970  15.199 -0.0532  0.1158  0.1255
13169W        W33449   6.769  13.121   4.195  0.0133 -0.0611  0.0112
13170W        W33450  16.420  13.910  13.941  0.1685 -0.1009 -0.2366
13171W        W33451   2.479  17.619   4.727  0.1289 -0.0315 -0.0373
13172W        W33452   2.603   7.001   3.062  0.1005 -0.0129 -0.2577
13173W        W33453   2.060  13.715   3.719  0.1561 -0.1192  0.2658
13174W        W33454  15.184   0.489   2.980 -0.1353  0.1457  0.2704
13175W        W33455  11.657   1.526  14.794 -0.6601 -0.0381  0.1233
13176W        W33456  15.028   8.495   5.055  0.1694 -0.1633 -0.1070
13177W        W33457   0.745  13.911  12.753 -0.0676  0.1164 -0.0095
13178W        W33458  17.487  13.242  13.322 -0.0087 -0.0472 -0.0345
13179W        W33459  11.639  12.993   2.958  0.2035 -0.3115 -0.0831
13180W        W33460   6.436  16.549  15.023  0.0368  0.0709  0.1871
13181W        W33461   4.177   8.829  13.727  0.2112 -0.1766  0.1094
13182W        W33462   0.568  11.127  12.330  0.1754  0.0826  0.0235
13183W        W33463   1.296  17.511   2.441  0.1515 -0.1789  0.0734
13184W        W33464  10.069   8.686  13.509 -0.1812  0.1376 -0.1192
13185W        W33465   3.856   2.403   4.533  0.2256  0.0767  0.3522
13186W        W33466  12.857  17.201  15.431  0.1458  0.2448 -0.1001
13187W        W33467   9.986   0.650  15.354 -0.0119  0.0711 -0.0534
13188W        W33468  13.789   3.056   4.948 -0.0738 -0.2534 -0.1069
13189W        W33469   7.854  12.539   3.860  0.0301  0.1360  0.3160
13190W        W33470  14.227   2.774   3.373  0.0906  0.1252  0.1148
13191W        W33471   2.979  16.086  16.652 -0.0853 -0.1849 -0.2229
13192W        W33472  15.823   1.324   4.105  0.0952 -0.1049 -0.1483
13193W        W33473   8.007  15.218  12.248 -0.2935  0.0972 -0.0383
13194W        W33474  10.432  17.567   0.323 -0.0100  0.2311 -0.2280
13195W        W33475   4.043  13.983   4.899  0.1331 -0.2644 -0.1393
13196W        W33476  12.571  14.035  16.869  0.3098  0.1285 -0.1319
13197W        W33477   8.949  14.591  13.049 -0.0580  0.2027  0.3721
13198W        W33478   5.351  16.036  16.321 -0.1400 -0.0466  0.2030
13199W        W33479  16.106   1.589   2.670 -0.1431  0.3209  0.0643
13200W        W33480  15.849   8.581  13.687  0.0256  0.1177  0.0340
13201W        W33481   9.764  17.672   2.750  0.0239  0.2675 -0.0245
13202W        W33482   7.700  16.367  12.909  0.0673 -0.1285  0.0393
13203W        W33483   9.159  17.440   4.416  0.0737 -0.2093  0.1190
13204W        W33484   0.912   1.117  15.165 -0.2185 -0.2465  0.2303
13205W        W33485  13.899   9.352  12.172  0.1277  0.1467  0.0470
13206W        W33486   5.639  16.934  16.208 -0.0581 -0.3386  0.2117
13207W        W33487   3.335   0.377  16.665  0.0099  0.4717  0.0935
13208W        W33488   1.792   8.012  13.603 -0.0714  0.0204  0.0253
13209W        W33489  10.938  10.482   3.381  0.5770 -0.0223  0.0961
13210W        W33490  15.448  10.122  13.531  0.1241  0.0720 -0.3123
13211W        W33491  12.035  14.376  16.254  0.0757 -0.2535  0.1685
13212W        W33492   6.014   6.213   1.782 -0.0327  0.1385  0.0654
13213W        W33493   1.228  12.025  13.481 -0.1585  0.0225  0.0689
13214W        W33494   4.402  10.705   5.756 -0.0499  0.2026  0.2553
13215W        W33495   5.421   0.110  16.643 -0.0701  0.0333 -0.1785
13216W        W33496   9.615   8.480   3.289 -0.1285  0.0207  0.4267
13217W        W33497   4.643  13.914   0.325 -0.3583  0.1198 -0.0302
13218W        W33498  13.214  17.701  16.051  0.0354 -0.2446 -0.0432
13219W        W33499   9.602  15.882  16.170  0.0363  0.1772 -0.0439
13220W        W33500   7.818   2.439   3.687  0.1856  0.1449  0.0055
13221W        W33501   7.487  14.992  16.606 -0.1252  0.0731  0.2422
13222W        W33502  17.274   5.341   0.541  0.0902 -0.2443  0.2811
13223W        W33503   0.847   2.419   0.207 -0.1248  0.0636 -0.1868
13224W        W33504   8.089   6.025  12.700  0.1152 -0.2710  0.0086
13225W        W33505  14.698  16.325   0.259  0.1759 -0.0446 -0.0999
13226W        W33506   7.346  13.081   2.887  0.3006 -0.0940  0.1638
13227W        W33507  10.786   2.793  16.865 -0.2264  0.0879  0.1986
13228W        W33508  15.927  13.532  15.570  0.0297  0.1463  0.1285
13229W        W33509  14.317   1.235  14.635 -0.1211 -0.1081 -0.1893
13230W        W33510   8.784   9.561   0.390 -0.2499 -0.1064  0.0143
13231W        W33511   8.311  11.483  16.486 -0.3084  0.1527  0.0430
13232W        W33512   9.694   3.357   1.518  0.1263  0.1298  0.2397
13233W        W33513  17.668  10.294  15.600 -0.2051 -0.3521  0.2840
13234W        W33514  13.348   0.761   0.889 -0.0505  0.0120 -0.0355
13235W        W33515  13.974  17.151  13.750  0.1724  0.1644  0.0745
13236W        W33516   3.440  16.951  16.373  0.2358  0.0749 -0.0352
13237W        W33517   6.424  12.535   1.494  0.3250  0.0445 -0.1355
13238W        W33518  11.693   8.620   3.801 -0.0720 -0.0117  0.0875
13239W        W33519  12.382  16.237   4.196 -0.2220 -0.3473  0.0530
13240W        W33520   2.637   3.550   3.041 -0.2611 -0.1810  0.0641
13241W        W33521  17.509  12.953  16.705  0.0439 -0.1739  0.0013
13242W        W33522  10.181   4.897  11.860 -0.0303 -0.0550  0.0661
13243W        W33523  11.201   8.857   3.699  0.0486  0.0264  0.0862
13244W        W33524   5.757   9.748   2.764  0.1417 -0.0597 -0.3327
13245W        W33525  14.686   3.441  15.661  0.0633 -0.0716 -0.0212
13246W        W33526   6.042   2.242  13.792 -0.1599  0.0752 -0.1684
13247W        W33527  16.700  10.166  14.825  0.3600  0.0862 -0.1063
13248W        W33528   6.567  13.275  15.700 -0.1286  0.0287  0.0480
13249W        W33529  13.232  13.582   0.279  0.0224  0.1167  0.4170
13250W        W33530  10.842  12.841  12.102 -0.0960 -0.0353  0.0389
13251W        W33531  11.023  17.723   3.699 -0.2966  0.1419  0.0506
13252W        W33532   6.761   6.205  13.927  0.3837 -0.2599 -0.0951
13253W        W33533  12.264   1.954   2.077  0.1895 -0.1302 -0.1788
13254W        W33534  12.032   2.914   3.553 -0.0360  0.1583  0.1170
13255W        W33535   0.175  12.043  16.258  0.2434  0.5432 -0.0418
13256W        W33536  15.759   7.852   3.593 -0.4134 -0.1010  0.1162
13257W        W33537   0.165  13.715  14.607 -0.0255  0.0390 -0.1016
13258W        W33538  17.550   0.534   0.560  0.1707 -0.2924 -0.0078
13259W        W33539   5.948  14.669   0.057  0.1882 -0.1369 -0.0173
13260W        W33540  12.043   5.366   0.261  0.1397  0.1470  0.2821
13261W        W33541  14.352   1.279   2.615 -0.0755 -0.1607  0.3316
13262W        W33542   2.109  17.147  16.259 -0.0920  0.2281 -0.0706
13263W        W33543  14.982   9.527  13.484 -0.0006  0.1523  0.0021
13264W        W33544  16.468  16.355   3.131  0.0204 -0.0705 -0.0211
13265W        W33545  14.601   4.289   1.832  0.0857 -0.0270  0.1532
13266W        W33546  10.894  15.198  12.979 -0.0440 -0.0759 -0.0923
13267W        W33547  16.227   0.145  15.959  0.1971 -0.1207 -0.1871
13268W        W33548  16.756  17.098   2.041 -0.0354 -0.0460  0.3048
13269W        W33549   5.747   1.012  15.499  0.1488  0.1896 -0.0030
13270W        W33550   5.984  11.767  14.361 -0.0785  0.2107 -0.1476
13271W        W33551   5.118   4.413  14.222  0.0352  0.2376 -0.0017
13272W        W33552  13.118   6.898  12.129 -0.0105 -0.2223  0.0010
13273W        W33553   4.538  16.016  13.129 -0.1131  0.1024 -0.2021
13274W        W33554  15.149   4.333   2.597  0.0258 -0.2444  0.1929
13275W        W33555  13.045   6.910  13.853 -0.2355 -0.0349  0.2493
13276W        W33556  11.118  15.075  15.496 -0.0965  0.4386 -0.2635
13277W        W33557  16.375  16.392  15.938  0.0485  0.3600  0.0349
13278W        W33558   9.552  14.727  12.570 -0.1145 -0.0963 -0.1887
13279W        W33559  12.595  10.865   0.885  0.0222  0.1983  0.3074
13280W        W33560  10.043  13.994  14.342 -0.2970 -0.1257  0.2695
13281W        W33561   6.724  16.116  15.062  0.0497 -0.0563  0.0474
13282W        W33562  10.716   4.233  12.958  0.2004  0.1880 -0.1585
13283W        W33563   0.116  10.171   1.786 -0.1634  0.0657 -0.0086
13284W        W33564   0.971   3.171   1.961 -0.0311 -0.1681  0.1223
13285W        W33565   1.891   6.246   0.029  0.4757 -0.1529  0.1209
13286W        W33566  16.606  13.379  13.437 -0.1606 -0.4365  0.0974
13287W        W33567   3.071   7.250  12.884 -0.1216  0.0907 -0.0297
13288W        W33568   9.830  16.200  16.573 -0.3747  0.0282 -0.0470
13289W        W33569  10.286  16.661  15.692  0.1416  0.1181  0.2113
13290W        W33570   7.297   9.812  14.802  0.0554 -0.0597 -0.1358
13291W        W33571   2.962  10.939  14.986  0.0886 -0.0048  0.2549
13292W        W33572  11.311  10.533  11.541  0.1676  0.2620 -0.4356
13293W        W33573   9.103   5.059  16.742  0.1340  0.0136 -0.0394
13294W        W33574  15.204   3.444  15.256  0.1672  0.1860  0.0387
13295W        W33575   3.959  17.454   3.636 -0.0798  0.0711 -0.1207
13296W        W33576  13.063   4.164  16.388  0.1198 -0.1462  0.1007
13297W        W33577  14.456   0.129  12.891 -0.0865 -0.0641 -0.1781
13298W        W33578  12.911   3.481   0.961  0.2280  0.1179  0.0108
13299W        W33579  12.554  12.682   2.683  0.3863  0.2480  0.1239
13300W        W33580   8.028  14.110  12.315 -0.0248  0.0145 -0.2638
13301W        W33581  17.011   5.084   4.325 -0.0444 -0.0888  0.1288
13302W        W33582   2.668  17.357  13.193  0.1471 -0.1406 -0.2543
13303W        W33583   0.918  16.279  14.151  0.0878  0.0023  0.2015
13304W        W33584  10.030  15.394  12.025 -0.0715 -0.1732  0.1779
13305W        W33585   9.974   1.241  14.516 -0.1107 -0.2284 -0.0182
13306W        W33586   9.638  13.691   0.717  0.1379 -0.0233  0.1597
13307W        W33587   3.480   0.385  12.195  0.0849 -0.2569  0.0410
13308W        W33588  17.241  10.691   3.348 -0.0193  0.2658  0.0925
13309W        W33589  16.103   5.180   3.293 -0.3256 -0.2364 -0.3144
13310W        W33590  14.959   9.977  13.706 -0.2294  0.1999  0.1969
13311W        W33591   9.027   8.407  14.605 -0.0975 -0.3473 -0.4354
13312W        W33592   7.886  12.991   2.202 -0.1548  0.0255  0.3816
13313W        W33593  11.378  14.144  15.067  0.2493 -0.1503 -0.0533
13314W        W33594   8.922   0.025   1.493 -0.1685 -0.2626 -0.0174
13315W        W33595   2.638   4.670  15.966 -0.1545 -0.0866  0.1939
13316W        W33596  10.878  11.026  16.249  0.1701 -0.0393  0.1957
13317W        W33597  11.848   4.016  15.722  0.1860  0.0386 -0.0754
13318W        W33598   9.658  11.794   4.379 -0.2067  0.0796 -0.1847
13319W        W33599  14.306  13.474   3.692 -0.2088  0.3063 -0.2929
13320W        W33600   2.821  14.674  16.005 -0.2137 -0.0171 -0.1758
13321W        W33601  14.243  14.500  12.865  0.1678 -0.0155  0.0585
13322W        W33602  13.686   6.804  14.689 -0.0226 -0.0145  0.2118
13323W        W33603   3.120   8.712   3.577  0.1215  0.0581  0.1174
13324W        W33604  13.371   5.487  15.702  0.0051 -0.1824 -0.0549
13325W        W33605  12.881   7.837  16.289 -0.0958 -0.1156 -0.0358
13326W        W33606  17.523   2.262   4.297  0.0338  0.1868 -0.2747
13327W        W33607   7.373  15.772  12.850  0.0349 -0.0420 -0.1732
13328W        W33608   9.105   7.019  11.580  0.0566  0.1805  0.0169
13329W        W33609   3.435  17.607  13.590 -0.1176 -0.2598 -0.3641
13330W        W33610   7.738   4.170  14.581 -0.0146 -0.0655 -0.2092
13331W        W33611   6.543  10.688   3.555  0.1312  0.2749 -0.0136
13332W        W33612  11.256   3.284  16.160 -0.0169  0.1799 -0.2314
13333W        W33613   6.484   1.345  12.782 -0.4299  0.0330 -0.1659
13334W        W33614   7.368   3.759  12.064 -0.0374  0.3939 -0.3600
13335W        W33615   1.701   5.091  13.044 -0.0342 -0.0919 -0.0752
13336W        W33616   7.003   4.028  12.458  0.1038 -0.0880 -0.1647
13337W        W33617  11.244  13.480   4.851  0.1308 -0.1960  0.2932
13338W        W33618   8.440  16.581  15.355 -0.1416 -0.1141 -0.1970
13339W        W33619  15.900   4.370  12.940 -0.0527  0.0321 -0.0938
13340W        W33620   8.012   1.000   4.814  0.2859 -0.0698  0.1278
13341W        W33621  13.923  17.041   3.418 -0.0378  0.0530 -0.0901
13342W        W33622   2.092   8.400   0.984 -0.0748  0.1855 -0.0869
13343W        W33623  15.193  11.441  12.801  0.0667  0.0344 -0.1900
13344W        W33624   1.537   3.543   3.384  0.2784 -0.2107  0.2834
13345W        W33625   3.452  15.200  13.841  0.1309 -0.1321 -0.2550
13346W        W33626   1.192  17.341   2.902  0.2242 -0.1494 -0.0923
13347W        W33627   7.537   2.010   0.706 -0.0071 -0.3706 -0.1230
13348W        W33628   3.331   8.413  12.298 -0.2118 -0.0817 -0.0996
13349W        W33629  13.295   8.308   3.648 -0.1171 -0.0454 -0.0368
13350W        W33630   1.463  17.469   0.718  0.2298  0.0811  0.0591
13351W        W33631   0.825  13.186  14.934  0.3147  0.1076  0.0901
13352W        W33632  14.400   4.457  12.378 -0.0198  0.1919 -0.2181
13353W        W33633  11.624   8.753  14.081 -0.0527  0.0870 -0.1562
13354W        W33634   3.729  14.206  14.867  0.5528  0.0274 -0.2157
13355W        W33635   3.189   2.204   2.599  0.0471  0.0269 -0.0053
13356W        W33636  12.521  10.329  16.056  0.1849 -0.0818 -0.1077
13357W        W33637  16.340  13.670  13.132 -0.0610  0.2950 -0.0577
13358W        W33638   7.892  11.213   3.522  0.1538 -0.0172 -0.3278
13359W        W33639   0.765  11.916  12.056 -0.0968 -0.1403  0.0159
13360W        W33640   5.259   6.058   3.377  0.1504 -0.3322  0.3990
13361W        W33641   9.016   2.798   1.378  0.3082  0.0967 -0.0177
13362W        W33642   4.427   7.776   0.277 -0.0447 -0.1044 -0.1194
13363W        W33643  15.594  13.174   1.125  0.2207 -0.2461 -0.1835
13364W        W33644   4.509   3.656   3.257 -0.1930  0.0092 -0.2063
13365W        W33645   9.777  10.275  16.345  0.2770 -0.2605 -0.2279
13366W        W33646  13.156   4.883   1.654  0.0268 -0.2101  0.0015
13367W        W33647   0.036  11.242  12.160  0.1369  0.1006  0.0506
13368W        W33648  11.135   6.710   3.990 -0.2287  0.0055 -0.1404
13369W        W33649  12.434  13.681  13.414 -0.0823 -0.2636  0.1551
13370W        W33650   8.781  16.887  16.572  0.1472  0.0883  0.1169
13371W        W33651  17.437   9.761  14.750 -0.1844 -0.2675  0.1574
13372W        W33652   7.510  15.559   2.244 -0.2165 -0.1052  0.0665
13373W        W33653  12.867   4.510  13.220  0.3843 -0.0486  0.1299
13374W        W33654   8.936   4.135  15.226 -0.2460  0.0314  0.0872
13375W        W33655  13.408  10.153  14.527  0.2764  0.0197 -0.1238
13376W        W33656  10.442  10.288   0.727 -0.2061 -0.0667 -0.0900
13377W        W33657   5.995  11.425  15.534  0.0509  0.0145 -0.1438
13378W        W33658  14.109   8.002  12.495 -0.4161  0.1222 -0.0673
13379W        W33659  13.148  16.650  14.140  0.0994 -0.0899  0.0877
13380W        W33660  16.743   8.335   4.812  0.0346  0.1149 -0.2005
13381W        W33661   0.564   2.097   1.997  0.2354  0.1475 -0.3842
13382W        W33662   6.858  16.547   1.147  0.2677 -0.1179  0.0077
13383W        W33663  11.143  13.552  15.715  0.2041  0.3241 -0.1933
13384W        W33664   4.992  13.177  12.391 -0.4052 -0.0664  0.0023
13385W        W33665  12.733   8.769  16.464 -0.0830  0.1484  0.1757
13386W        W33666  10.341   8.870   4.112 -0.1957 -0.0036 -0.0015
13387W        W33667  16.196  11.159   2.980 -0.1088 -0.4228 -0.0934
13388W        W33668   9.543   7.885   1.508 -0.2205 -0.2701  0.0501
13389W        W33669  12.552  11.465  14.960  0.0750 -0.1094  0.0563
13390W        W33670   1.891  11.936  16.404 -0.1641 -0.1180  0.0082
13391W        W33671  16.286   8.430  13.443  0.0797  0.1464  0.0218
13392W        W33672   3.365   8.778   0.123 -0.0561 -0.1786  0.0069
13393W        W33673  16.748   9.136   4.353 -0.1149  0.0654 -0.0319
13394W        W33674   4.607   7.197   4.698  0.0820 -0.1150 -0.0435
13395W        W33675   8.347   0.889  13.836 -0.1264  0.0682  0.1326
13396W        W33676  15.778  11.046  16.068 -0.1892 -0.2324 -0.0755
13397W        W33677   2.492  16.418  12.538 -0.3244 -0.2214  0.3152
13398W        W33678   2.786  12.196   4.816 -0.0269 -0.1751  0.0432
13399W        W33679   3.031  12.444   2.469 -0.0397  0.4766  0.0509
13400W        W33680  16.224  16.232  12.883  0.0141  0.1228 -0.1593
13401W        W33681  11.743   7.598   4.127  0.0089 -0.1572 -0.1093
13402W        W33682  17.341  11.416  15.541 -0.2996  0.0796  0.1813
13403W        W33683  14.742  12.120  15.016  0.2233 -0.2214 -0.0995
13404W        W33684  12.625  13.893   2.621  0.3475 -0.0538 -0.0550
13405W        W33685   6.824  15.371   3.349 -0.1463  0.1932 -0.0990
13406W        W33686   6.156  15.617  12.711  0.2091 -0.1637  0.1046
13407W        W33687   5.292   0.945  16.530  0.1649  0.0554  0.0472
13408W        W33688   0.135   1.739  14.906  0.0186  0.2611 -0.2141
13409W        W33689   9.772   1.063   1.442 -0.0223  0.0220 -0.0705
13410W        W33690  10.060   2.257  12.602 -0.1237 -0.1224  0.2460
13411W        W33691   0.897  16.248  13.277 -0.2986 -0.1525  0.1398
13412W        W33692   8.088   5.922   1.403 -0.1410 -0.1478  0.2393
13413W        W33693  12.621   1.685  14.066  0.0029  0.0519  0.3287
13414W        W33694  14.244  13.121  13.376  0.1526 -0.3174  0.3181
13415W        W33695  15.210  12.117  14.009 -0.0593 -0.0926  0.1844
13416W        W33696  13.837   8.864  13.323 -0.2451  0.2959  0.0591
13417W        W33697  14.714  12.009  15.929  0.1037  0.0338 -0.0117
13418W        W33698  12.103   6.724   2.830 -0.2237  0.0574 -0.0245
13419W        W33699   1.439  13.060  14.621 -0.0953 -0.0287 -0.1578
13420W        W33700  10.005  12.582   4.339  0.0633 -0.1672  0.0761
13421W        W33701   5.194   8.281  11.970  0.2232 -0.1801  0.0342
13422W        W33702  10.314   6.081  14.037  0.1998 -0.0421 -0.0163
13423W        W33703   4.603   7.357   1.605  0.1364  0.0614  0.0454
13424W        W33704  10.747  16.361  14.862 -0.0308 -0.0884  0.1435
13425W        W33705   3.761  15.518   2.255 -0.1075  0.1483  0.1877
13426W        W33706  10.673   3.972  12.544  0.0212  0.1396 -0.1228
13427W        W33707  14.766  15.516  16.386 -0.0488  0.0440 -0.0235
13428W        W33708  16.510   8.167  12.472  0.2969  0.3213 -0.0733
13429W        W33709   9.641   8.595   0.921 -0.1294  0.3423  0.0705
13430W        W33710  16.651   7.017   4.636 -0.0068 -0.0415 -0.0719
13431W        W33711   3.281  16.745  12.658 -0.2997 -0.1964 -0.1949
13432W        W33712   1.890   5.665   4.534  0.0416  0.1149  0.1699
13433W        W33713   1.722   9.311   0.882 -0.0579  0.1493  0.2161
13434W        W33714  14.388  17.309  16.030 -0.1159  0.0845  0.0069
13435W        W33715  15.763   8.954   1.602 -0.1046  0.1264 -0.1236
13436W        W33716   2.100   8.988  13.581  0.0581  0.3812 -0.0937
13437W        W33717  11.319  10.073  13.880  0.1883 -0.1258 -0.0233
13438W        W33718   5.721   9.108   3.353 -0.2263  0.1314  0.2314
13439W        W33719   6.162  12.484  15.432  0.0922  0.0684 -0.0841
13440W        W33720   5.584   3.758   3.997  0.0977 -0.1164 -0.3205
13441W        W33721  14.624   0.044   1.064 -0.0008 -0.0387  0.2350
13442W        W33722   3.537  10.044  14.412 -0.2795 -0.2058  0.3230
13443W        W33723  17.305   4.782   0.434  0.0519  0.1251  0.1219
13444W        W33724   5.555  13.294  15.643  0.2030 -0.0925 -0.0226
13445W        W33725   6.822  17.623  13.268 -0.0859  0.0357  0.1225
13446W        W33726   0.742  15.221   4.986  0.0488 -0.0612 -0.2101
13447W        W33727   6.673  17.121   3.745 -0.1843 -0.4799  0.0171
13448W        W33728  12.366  12.013   3.070  0.3075 -0.0349  0.1727
13449W        W33729  11.852  15.694   3.571 -0.1192  0.1282  0.0372
13450W        W33730  10.765  15.771  12.810  0.1830  0.1495 -0.0435
13451W        W33731   2.184   7.523   1.231  0.5265  0.1529 -0.0635
13452W        W33732   6.846  12.424  16.106 -0.2228  0.1770 -0.1138
13453W        W33733  12.833   1.411  13.361 -0.0340  0.3487  0.2201
13454W        W33734   1.682   0.121  14.284  0.1319  0.0111 -0.0625
13455W        W33735  17.158  17.562  16.350 -0.2484 -0.0499  0.1201
13456W        W33736   3.695  15.830   0.258  0.1111  0.0110  0.2097
13457W        W33737  17.505   0.233   3.040 -0.0461 -0.0337  0.0356
13458W        W33738   7.454   3.487  16.677 -0.1192 -0.1294 -0.0946
13459W        W33739  10.251  16.384  13.173  0.0064 -0.0767  0.0884
13460W        W33740  10.254  12.043   0.905 -0.1916 -0.2674  0.0563
13461W        W33741  15.605  12.197   3.146  0.0125  0.0409  0.0331
13462W        W33742   7.019   6.550  13.721 -0.1327  0.1791  0.2126
13463W        W33743   8.447   1.520   3.905 -0.1415  0.2191 -0.3071
13464W        W33744   2.816   5.901  12.966 -0.0153  0.0637 -0.2656
13465W        W33745   1.647   8.606  16.536 -0.3552  0.0607 -0.0488
13466W        W33746   8.316   9.785   3.869  0.0422  0.1842  0.0360
13467W        W33747  17.702  16.202   0.866 -0.2724 -0.2600 -0.0551
13468W        W33748   1.894  11.381   4.731  0.2083 -0.0727  0.1795
13469W        W33749  16.401   2.221  13.040  0.0596 -0.4687 -0.3837
13470W        W33750   5.792   1.690  13.295  0.0860  0.1558  0.0249
13471W        W33751   7.572   9.658   2.541 -0.0366 -0.2630 -0.1140
13472W        W33752   0.309  17.585   4.932 -0.1873  0.0379  0.0355
13473W        W33753  10.723   2.860   4.868 -0.0441  0.0393  0.0323
13474W        W33754   1.537   2.979  13.349  0.2015  0.0983  0.0859
13475W        W33755  11.869   1.163  16.133  0.1141 -0.0086  0.0147
13476W        W33756   9.354  14.886   4.960  0.2036 -0.0655 -0.0648
13477W        W33757   1.484  10.882  16.181  0.2356 -0.0299  0.0753
13478W        W33758  15.478   4.759   1.355 -0.1570  0.2209  0.1571
13479W        W33759  15.446   6.590  16.606 -0.3724 -0.1768  0.3106
13480W        W33760  16.375   9.364  14.847  0.1605  0.0819 -0.1469
13481W        W33761   0.147  14.205  15.660 -0.1653 -0.2549  0.0820
13482W        W33762  17.694   2.411   0.259 -0.0030 -0.2038  0.1902
13483W        W33763   9.877   5.006   1.766 -0.2214 -0.1404 -0.2271
13484W        W33764   8.941   5.046   2.227  0.1913  0.2524 -0.2806
13485W        W33765   5.567  13.839   2.587  0.2479 -0.0152  0.2055
13486W        W33766   6.472   7.659  14.667  0.0698  0.1172  0.0503
13487W        W33767   3.359   9.472  12.935 -0.0169  0.1049  0.1780
13488W        W33768   3.796   1.402   2.166  0.1375 -0.0757  0.0459
13489W        W33769   4.673  15.359   1.770 -0.3355  0.1490 -0.1427
13490W        W33770   2.278   3.627  14.778 -0.1315  0.3862 -0.0148
13491W        W33771  13.530  10.909   5.230 -0.0779  0.2715  0.0887
13492W        W33772   8.936  16.893  12.678 -0.1765 -0.0838  0.2095
13493W        W33773   0.359  17.633  16.166  0.0270  0.0459  0.0145
13494W        W33774  14.709   5.047  12.980  0.1383  0.0630  0.1911
13495W        W33775  15.121  17.353  12.943  0.4777  0.1292 -0.3462
13496W        W33776  16.456  11.419   3.993  0.1466 -0.1042 -0.0122
13497W        W33777   9.086  12.342   3.320 -0.3723  0.1529 -0.1260
13498W        W33778   2.538   8.104   2.332 -0.1189 -0.0356 -0.0636
13499W        W33779   9.095   4.901  11.985 -0.0008  0.1909  0.2800
13500W        W33780   7.138   6.310   3.138  0.2649 -0.1369  0.0956
13501W        W33781   6.740   4.450   1.340  0.1768 -0.0805  0.0613
13502W        W33782  11.205   2.094  15.686  0.2634  0.1401  0.1288
13503W        W33783   2.292  16.731  16.599 -0.1602 -0.2964 -0.2249
13504W        W33784   9.403   1.086  15.997  0.0181  0.2602 -0.2377
13505W        W33785  15.179   0.734  15.496 -0.2997 -0.1843  0.1071
13506W        W33786   1.011   0.950   0.696 -0.0802 -0.2017 -0.2181
13507W        W33787   6.166   6.192  13.956 -0.1779 -0.0694  0.1518
13508W        W33788  15.021  14.147   0.698  0.0493 -0.0749  0.1227
13509W        W33789   8.250  13.540   1.436  0.2003  0.4906 -0.0449
13510W        W33790  10.346   3.346  13.221  0.0003  0.1206  0.2364
13511W        W33791  17.155   0.032   4.696  0.0732 -0.1988  0.1704
13512W        W33792   2.882   9.628   3.949  0.2755 -0.0384  0.0614
13513W        W33793  16.419   5.101   4.723 -0.2132 -0.2133 -0.2616
13514W        W33794  16.381  16.372   1.097  0.1292  0.0740 -0.2284
13515W        W33795   2.753   7.662   0.707  0.3192 -0.2116 -0.0061
13516W        W33796  10.271  17.260  16.171  0.1688  0.0538  0.1268
13517W        W33797  12.704   1.480   4.221  0.1056 -0.2570 -0.2390
13518W        W33798  11.049   2.990  12.336  0.2960  0.1079 -0.0454
13519W        W33799  17.472  16.097   2.413 -0.0517 -0.0630 -0.2392
13520W        W33800   5.443   8.774   2.369 -0.1275 -0.0641  0.0221
13521W        W33801  13.313   7.435   1.949  0.1384 -0.0913 -0.0450
13522W        W33802  14.035   2.906  12.749 -0.0457 -0.0562 -0.1067
13523W        W33803  14.268   7.053   0.126 -0.3219  0.1649 -0.0822
13524W        W33804  14.212  17.130  15.339 -0.0367 -0.3769 -0.0823
13525W        W33805   7.545  16.579  16.090 -0.2253 -0.0288  0.3119
13526W        W33806  14.434  10.827   2.965 -0.0042  0.0374 -0.2361
13527W        W33807   0.583  13.088  16.855  0.1128 -0.0304 -0.2574
13528W        W33808   9.794  16.624  13.221  0.2415  0.0960 -0.3375
13529W        W33809  14.862  13.421   1.404 -0.1036  0.0820 -0.0182
13530W        W33810  14.052   8.009  13.898 -0.1006 -0.1695  0.3799
13531W        W33811   8.864   2.904   1.884  0.1464 -0.3089 -0.1674
13532W        W33812   3.067   1.117   4.165  0.0890  0.0379  0.0330
13533W        W33813   7.330   7.995  12.394  0.0159 -0.2791 -0.1163
13534W        W33814   7.512   4.114   2.729  0.0095 -0.2066  0.1853
13535W        W33815   3.474   8.027  14.632 -0.1371 -0.0771 -0.3603
13536W        W33816  10.990   6.307   4.938  0.2102 -0.1918 -0.1722
13537W        W33817   4.318  11.319   4.437  0.1419 -0.0500 -0.0265
13538W        W33818  10.179   3.463   1.559  0.0731  0.2379  0.4686
13539W        W33819   4.492   1.020  11.998 -0.1827 -0.2286  0.1649
13540W        W33820   9.281  15.694   1.271 -0.0930  0.1288  0.0553
13541W        W33821  13.035  12.539  14.437 -0.0157 -0.2037  0.4935
13542W        W33822  15.899   0.032  14.997  0.0022 -0.3381  0.1121
13543W        W33823   3.608   3.522   2.778 -0.1136  0.0220 -0.1027
13544W        W33824  15.414   5.992   3.436 -0.2577  0.0698  0.1878
13545W        W33825   0.671  10.193  14.728 -0.1264  0.2100  0.2075
13546W        W33826  15.986   3.389   2.991  0.0645  0.1443 -0.1672
13547W        W33827  14.328  15.339  14.783  0.0176 -0.1430 -0.2306
13548W        W33828   0.453  17.612  13.391 -0.1559 -0.1870 -0.6226
13549W        W33829  13.349  11.118  12.984  0.0532  0.0572  0.1259
13550W        W33830   0.594  17.148   3.754  0.0588  0.1255 -0.2600
13551W        W33831  16.030  15.155   3.449 -0.0642  0.2077  0.0589
13552W        W33832   6.989   1.325  13.994 -0.2322  0.2052  0.0211
13553W        W33833   7.323  12.099   1.315  0.1827 -0.2367  0.0176
13554W        W33834   2.348   0.172   0.881  0.2825 -0.0349 -0.1901
13555W        W33835   9.575  13.899   0.215  0.1932 -0.1650  0.0674
13556W        W33836  12.080  12.994   0.478 -0.0629  0.0762 -0.0488
13557W        W33837   4.159   7.716   3.011  0.2049 -0.0219  0.0575
13558W        W33838  14.799  15.635   4.722  0.0093 -0.0147  0.1472
13559W        W33839  15.990   0.777   3.905  0.1233 -0.1543  0.0689
13560W        W33840  12.336  16.656  12.878 -0.2692 -0.0236 -0.0714
13561W        W33841  12.012   7.293   0.759  0.1661 -0.1490 -0.2531
13562W        W33842   3.091   1.643  12.481  0.1111  0.4878 -0.0525
13563W        W33843  10.673   3.684  13.857 -0.2983  0.1458  0.3041
13564W        W33844   3.608   6.886   2.967  0.2346 -0.2384 -0.0632
13565W        W33845   9.322   1.188   2.316 -0.2518 -0.1306 -0.0151
13566W        W33846  16.610  14.882   2.778  0.1909  0.1654 -0.2175
13567W        W33847  14.606   5.050  15.872  0.4861  0.1896 -0.1534
13568W        W33848  11.417  16.259   0.309 -0.2391 -0.0281  0.0237
13569W        W33849   7.697   2.234  12.921 -0.2457  0.3449  0.1269
13570W        W33850  16.010   6.658  13.703 -0.1714 -0.0451  0.1153
13571W        W33851  12.179   0.844   2.934  0.0557 -0.1008  0.0658
13572W        W33852   7.215   2.322   2.829 -0.0809  0.1053 -0.3870
13573W        W33853  10.051   0.416   0.848 -0.2988  0.2228 -0.3612
13574W        W33854   9.463   2.940   0.758  0.0068  0.0392  0.1122
13575W        W33855   4.070   5.710  15.820  0.1019 -0.0210 -0.0393
13576W        W33856  10.956   5.579  14.617 -0.3113 -0.0668  0.1115
13577W        W33857   9.369  15.896  12.842  0.0154 -0.1047 -0.2704
13578W        W33858  15.534  11.700  16.740 -0.1674 -0.1300 -0.3988
13579W        W33859  17.650   2.443  16.411  0.3178  0.3188  0.0913
13580W        W33860   8.137  11.149  13.386  0.0888 -0.0715 -0.0043
13581W        W33861  11.551   7.083   0.961  0.0611 -0.1028  0.0816
13582W        W33862   5.636   7.803  13.006 -0.0947 -0.0139  0.0440
13583W        W33863  17.542   5.872   4.162  0.1586  0.0697 -0.0636
13584W        W33864  12.616  15.531  15.114 -0.0907 -0.1788  0.0119
13585W        W33865  12.126   6.128  15.662  0.0085 -0.0914  0.0491
13586W        W33866   8.834  12.171   0.134 -0.0980 -0.0909  0.0111
13587W        W33867   9.980   8.595   1.655 -0.2026  0.0468  0.3486
13588W        W33868  14.147  17.408   0.452  0.3894 -0.3411 -0.2645
13589W        W33869   5.788   5.174   3.703  0.0672  0.1206 -0.0259
13590W        W33870   5.679  16.658  15.348 -0.1108 -0.0259 -0.2349
13591W        W33871   7.366   6.558   3.817  0.1033  0.0383 -0.2542
13592W        W33872   8.343   3.404   0.479  0.2331  0.0760 -0.0408
13593W        W33873   3.732   6.175  13.972  0.1573  0.3665 -0.0482
13594W        W33874  16.976   6.639  14.361  0.0764  0.3117  0.0665
13595W        W33875   4.097  12.969   3.931 -0.1093  0.1467 -0.3925
13596W        W33876   6.564  12.992   1.573  0.1973  0.4360 -0.0454
13597W        W33877  17.295  16.111   4.605  0.0805 -0.0566  0.0243
13598W        W33878  11.309   8.381   3.609  0.2653 -0.2278 -0.1904
13599W        W33879  10.311  11.590   0.121  0.1202 -0.0719  0.2087
13600W        W33880   2.392   4.892  14.306 -0.1430 -0.3943  0.0240
13601W        W33881   6.691  17.686  14.580 -0.2614  0.0262  0.7015
13602W        W33882  12.777  15.471   3.424  0.3818  0.2075  0.2311
13603W        W33883  16.347   7.386  13.556  0.2731  0.1816  0.1595
13604W        W33884   7.435   1.861  13.047  0.1012 -0.1757 -0.0308
13605W        W33885  12.678  13.168   2.743 -0.1028 -0.0122  0.0605
13606W        W33886   4.518  10.721  14.495 -0.0824  0.0894  0.2899
13607W        W33887  17.129  10.345   1.378 -0.1058 -0.0338  0.3041
13608W        W33888  16.511  10.764   1.909 -0.1504  0.2038 -0.1822
13609W        W33889   0.575   1.950  16.866  0.2126  0.3574 -0.1476
13610W        W33890   8.592   7.544  15.559 -0.1260  0.2729  0.1115
13611W        W33891  15.838   4.528   3.906 -0.0531 -0.3275  0.0982
13612W        W33892   9.145  17.128  11.940  0.0076 -0.0281  0.2111
13613W        W33893   9.009   5.939   0.664 -0.2164  0.1762  0.1230
13614W        W33894  17.494  14.499   0.563  0.0764 -0.2567  0.2091
13615W        W33895  16.554   9.204  13.340  0.1092  0.2370  0.1466
13616W        W33896   5.153  12.875  12.764 -0.1352  0.0297 -0.1013
13617W        W33897   1.889  12.798   0.322  0.1097 -0.2634 -0.0357
13618W        W33898  11.894  11.444  12.970 -0.1282 -0.1405  0.1726
13619W        W33899  11.505   0.545   5.239  0.1816 -0.3615 -0.3087
13620W        W33900  11.150  16.464   2.772 -0.0378 -0.0219 -0.3288
13621W        W33901  15.329   8.806  14.223 -0.0344  0.2022  0.2029
13622W        W33902   2.063  13.117  15.608  0.2012 -0.1665  0.1195
13623W        W33903   9.000   6.494  16.031  0.2990  0.0536 -0.1135
13624W        W33904   8.602  17.153   2.350 -0.1433 -0.3258  0.0303
13625W        W33905   8.419  17.183   1.009 -0.1701  0.3408  0.2059
13626W        W33906   4.221   8.389  14.548 -0.2438 -0.1553 -0.0924
13627W        W33907   5.874   4.061   2.025 -0.0712  0.2074 -0.2134
13628W        W33908  12.505   5.516   5.127  0.2989  0.0179 -0.4014
13629W        W33909  17.449   3.611  16.630 -0.0765  0.0077 -0.1051
13630W        W33910   3.422   2.988   4.569 -0.3122  0.2371 -0.2865
13631W        W33911   9.445   5.489  16.737  0.0401  0.2340 -0.1211
13632W        W33912   7.939   4.495  13.288 -0.0541 -0.2511  0.2142
13633W        W33913  13.185   6.501  14.494  0.3786  0.2945  0.0333
13634W        W33914   0.239  14.985   1.910  0.0262 -0.2494 -0.1075
13635W        W33915  11.481  12.617   3.714  0.0494 -0.1357  0.2862
13636W        W33916   3.881   4.731   0.688 -0.1261  0.1603 -0.2176
13637W        W33917   3.179   8.503  13.896  0.1025 -0.0587  0.1402
13638W        W33918   8.842   0.908   2.304  0.1815 -0.0844  0.0783
13639W        W33919   9.971  15.966   2.188  0.1588 -0.0583 -0.0089
13640W        W33920   6.316  13.139   2.309 -0.0302 -0.0712 -0.1896
13641W        W33921   6.008   8.769   3.638 -0.1066  0.0038  0.0665
13642W        W33922   2.231  13.869   1.235  0.1154  0.0578  0.1736
13643W        W33923   7.206   0.265  12.327 -0.0542 -0.0126  0.0543
13644W        W33924   6.237  17.271   1.606  0.1422 -0.0257  0.2559
13645W        W33925   8.195  16.769  13.340 -0.0877 -0.0742  0.5050
13646W        W33926   7.298   6.836  16.544  0.0012 -0.1041  0.0412
13647W        W33927  15.868  12.965   5.191 -0.3329  0.1107  0.0904
13648W        W33928  14.726  17.580  13.296  0.0974  0.0783 -0.2741
13649W        W33929   1.914   4.654  12.994  0.0456  0.2512 -0.0370
13650W        W33930  10.734   7.669   2.625 -0.0453  0.2668 -0.0542
13651W        W33931   7.403   2.641  15.601 -0.1773  0.0087  0.0041
13652W        W33932  10.774  14.455   2.803  0.1118 -0.0516  0.1158
13653W        W33933  15.181   9.192  13.915 -0.1431  0.0423  0.1978
13654W        W33934   3.412   2.737  14.989  0.0944 -0.1324 -0.2579
13655W        W33935   4.866   9.000  16.203  0.1753  0.1656 -0.2210
13656W        W33936  15.995  17.436  16.857  0.0961 -0.0476 -0.1894
13657W        W33937  16.978  12.900   2.443 -0.0400 -0.1808 -0.2152
13658W        W33938   2.205  16.264   4.991 -0.1415  0.2374  0.0991
13659W        W33939  13.527  12.022   3.489  0.2916  0.3119 -0.0010
13660W        W33940   6.483  14.127  14.043 -0.0768  0.2673 -0.0100
13661W        W33941   3.622   8.341   0.305 -0.1399 -0.1028  0.0351
13662W        W33942  15.500  17.042  13.877 -0.0107 -0.2699 -0.0277
13663W        W33943  12.674  11.370   0.851  0.0473  0.3781  0.1687
13664W        W33944   9.543   2.791  13.297  0.0544  0.1663  0.0371
13665W        W33945   3.819   1.139   0.911 -0.2770  0.2313  0.0900
13666W        W33946  12.850  12.086   1.084 -0.1198 -0.0139  0.0184
13667W        W33947   7.003  13.873  16.103  0.2888  0.0521  0.1561
13668W        W33948   1.405   3.345  13.667  0.2609 -0.2758 -0.1228
13669W        W33949   6.798   9.800   3.683 -0.1403  0.0911 -0.3321
13670W        W33950  13.879   4.765  15.336 -0.1700 -0.1608  0.0543
13671W        W33951  14.853   6.602  15.423  0.1816  0.0979 -0.0591
13672W        W33952  17.131   3.997   1.672  0.1519 -0.0104  0.1514
13673W        W33953  11.276   5.547  14.992 -0.2129  0.1851 -0.1376
13674W        W33954  10.527  15.454  13.742 -0.2259 -0.1562  0.1743
13675W        W33955   8.846  12.452  13.860  0.1818 -0.0872  0.1142
13676W        W33956   2.271   8.263  13.823  0.1612  0.3306 -0.2093
13677W        W33957   8.659  13.751   4.662 -0.0756  0.1506  0.1199
13678W        W33958  12.731  15.215   2.665 -0.0989 -0.1636  0.2097
13679W        W33959  14.697  12.932   1.349  0.2717 -0.0733  0.2081
13680W        W33960   7.535  12.375  12.893 -0.0205 -0.1564 -0.1658
13681W        W33961   2.414  14.496   4.481  0.1038  0.2671  0.0115
13682W        W33962  11.108  10.367   0.017 -0.2992  0.2401 -0.3435
13683W        W33963  11.101  14.516  13.724  0.0122 -0.2730 -0.1722
13684W        W33964   4.229  10.528   2.037  0.2475 -0.0999  0.0284
13685W        W33965  14.873   6.165  14.513  0.2258  0.0794 -0.2476
13686W        W33966  16.817   0.325  12.922 -0.1620 -0.2497 -0.4647
13687W        W33967   9.423   9.663  14.914 -0.3241  0.0172 -0.2788
13688W        W33968   7.266  12.706  13.631 -0.0756 -0.0157  0.1205
13689W        W33969   5.326  16.888   2.768  0.0285 -0.0146  0.1393
13690W        W33970   3.905   3.078   2.069  0.2790  0.2602 -0.1912
13691W        W33971   5.867   4.171  14.625  0.1793 -0.1948 -0.0223
13692W        W33972   5.931   6.671   4.165  0.1417 -0.0564 -0.2240
13693W        W33973  10.654   3.976   4.582  0.0122  0.1157  0.0173
13694W        W33974   9.748  11.698  12.417  0.1791  0.0537  0.0203
13695W        W33975  11.159  12.272  15.258 -0.1011  0.0397  0.0537
13696W        W33976  10.904  15.205   1.653 -0.1887  0.2809 -0.1053
13697W        W33977   8.194   3.615   3.997 -0.2520  0.0079 -0.1444
13698W        W33978   3.200  13.628   0.156  0.2764 -0.0101  0.3037
13699W        W33979  13.279   7.409  14.030 -0.0801  0.1928  0.2933
13700W        W33980  15.621  13.519  15.228  0.1714  0.0733  0.0519
13701W        W33981   6.906   3.087  15.915 -0.0432 -0.0570 -0.1321
13702W        W33982  11.042   7.565  14.642  0.1501  0.0885 -0.0171
13703W        W33983   2.428  12.809  15.545 -0.2146 -0.1524  0.1697
13704W        W33984  16.953  14.712  16.414 -0.0758  0.1037  0.0586
13705W        W33985  17.303   9.756  16.388  0.0922 -0.1932 -0.0231
13706W        W33986   5.168   5.290  13.772  0.2500  0.1100 -0.0651
13707W        W33987  16.952   4.973   4.861 -0.1376  0.0537 -0.1115
13708W        W33988  12.894   5.544   2.630 -0.1931 -0.1898 -0.2342
13709W        W33989   5.209   4.038   0.335  0.0264  0.0052  0.0475
13710W        W33990   1.681   7.815   0.207 -0.4125  0.2261 -0.0084
13711W        W33991   9.203   0.925  14.159 -0.0530 -0.0102 -0.0832
13712W        W33992   3.877   6.261   2.295  0.1332  0.3174 -0.2131
13713W        W33993   5.713   8.362   0.130 -0.0021  0.0031 -0.0706
13714W        W33994  15.721  11.910  13.863  0.1062  0.0516  0.0780
13715W        W33995  15.495   9.747   1.403  0.1084  0.1311  0.2063
13716W        W33996   2.433  16.049  12.191 -0.0230 -0.0043  0.2200
13717W        W33997  10.979  12.343   3.545  0.0580 -0.0059  0.0922
13718W        W33998   6.913   0.994  15.453  0.0868 -0.0947 -0.1654
13719W        W33999  14.340   5.229   2.009 -0.0113 -0.1164  0.2162
13720W        W34000   9.269   9.575   4.792  0.1306 -0.0235 -0.0924
13721W        W34001  13.147   8.650   1.015 -0.1391 -0.1545 -0.1103
13722W        W34002   8.957   4.436  11.819  0.1389 -0.1527 -0.2944
13723W        W34003   0.271  15.790   0.427 -0.1491 -0.2656  0.2563
13724W        W34004   3.488   1.943  15.757  0.0703 -0.0252  0.0205
13725W        W34005   9.417   3.001  13.990  0.2179 -0.0848  0.1535
13726W        W34006   9.145   3.902  13.138  0.0187  0.3400 -0.0102
13727W        W34007   7.427   3.802  12.677  0.1800  0.1413  0.0355
13728W        W34008   2.322   2.968  16.102 -0.1710  0.3075  0.1975
13729W        W34009  17.409   3.747  16.111 -0.1159 -0.0608  0.0263
13730W        W34010   5.713  11.724   4.509 -0.0143  0.1890 -0.1951
13731W        W34011   8.527  16.670   3.263  0.0359  0.1299 -0.0962
13732W        W34012   2.835   7.334  12.458  0.0769  0.1713  0.0119
13733W        W34013   4.766   1.744  16.702  0.1284  0.0933  0.3286
13734W        W34014  15.098   6.992  13.625 -0.2266  0.1235 -0.0226
13735W        W34015   4.492   9.029   1.023 -0.1932  0.1385  0.0134
13736W        W34016  11.298  10.751   3.652 -0.0525  0.3115 -0.1275
13737W        W34017   3.578   2.583   0.549 -0.0808  0.1571 -0.0249
13738W        W34018  16.556   5.737   2.789 -0.2897  0.0718  0.0630
13739W        W34019   1.985   8.304  14.244 -0.2104  0.2201  0.2580
13740W        W34020   7.436   5.155   4.499  0.0652  0.2676  0.2986
13741W        W34021   7.868  10.481   0.701 -0.0715 -0.0358 -0.0376
13742W        W34022   5.102  13.173  15.914  0.0477  0.3361  0.0667
13743W        W34023  11.786   2.739  12.978  0.1137 -0.0989  0.1823
13744W        W34024   6.960   6.649   0.465  0.0255 -0.1971  0.0694
13745W        W34025  16.028  17.245  15.146  0.2940 -0.0173 -0.0517
13746W        W34026  11.982  10.686  14.421  0.2594 -0.2657 -0.1937
13747W        W34027   1.797   4.058  14.799  0.2379 -0.0100  0.2659
13748W        W34028   6.385   0.755   4.128  0.0131  0.3073  0.2320
13749W        W34029  12.878  12.858  12.920 -0.1404  0.0796 -0.3775
13750W        W34030  16.297  13.064  14.151  0.1000 -0.2615  0.3162
13751W        W34031   1.685   8.913  16.106  0.1011 -0.2854  0.0067
13752W        W34032  12.949   8.970   0.629  0.2827  0.1404 -0.1505
13753W        W34033  11.134   8.232  15.994 -0.0377  0.1450 -0.0970
13754W        W34034  14.183  10.194   1.487 -0.1257 -0.0384 -0.0682
13755W        W34035  15.805   1.911   0.984  0.2773 -0.1578 -0.2710
13756W        W34036  17.406  12.168  12.242  0.1440 -0.0545 -0.0602
13757W        W34037   2.177  13.249  12.595  0.0141 -0.1123 -0.0680
13758W        W34038  13.304  16.968   6.092 -0.2584 -0.2508 -0.0075
13759W        W34039  12.570   5.891  15.794 -0.1784 -0.0040  0.1764
13760W        W34040   5.341   8.918   1.081  0.0514  0.0521  0.2627
13761W        W34041   6.684   8.148   2.501  0.1082  0.0578  0.0171
13762W        W34042   4.146  17.564  15.205 -0.2151  0.2858  0.2228
13763W        W34043  14.762   9.248   2.903 -0.3419  0.0968 -0.3096
13764W        W34044  14.544   1.767   2.839  0.2479  0.0196 -0.2388
13765W        W34045  12.678  10.655   2.262 -0.1911  0.0621 -0.1352
13766W        W34046   0.145  14.231   3.761 -0.1221 -0.1469  0.0666
13767W        W34047   2.455   8.170   1.812 -0.0052 -0.0148 -0.3898
13768W        W34048   5.120  12.441   1.691 -0.2615  0.4704 -0.0454
13769W        W34049   5.256   4.281  14.684  0.1436  0.0242 -0.0885
13770W        W34050   8.833   3.102   2.692  0.2083 -0.0465 -0.2377
13771W        W34051   7.054   4.460   0.164  0.1676 -0.0846 -0.1125
13772W        W34052   1.476   0.311  16.850 -0.0108 -0.0729  0.1064
13773W        W34053  12.856  16.301   4.522  0.0634  0.1467  0.0928
13774W        W34054   9.416  15.795  14.944  0.0281  0.0757  0.0953
13775W        W34055   4.665  11.895  14.757 -0.0032 -0.0904  0.2142
13776W        W34056   2.637   0.096   1.308 -0.0128  0.2871 -0.0823
13777W        W34057   0.146   5.281  16.740 -0.0112  0.1399 -0.2607
13778W        W34058   0.239   5.162  15.187 -0.0959  0.1560  0.1654
13779W        W34059   2.626  10.441   3.599 -0.1193 -0.3485 -0.3504
13780W        W34060  12.998  10.892  14.265 -0.1022 -0.3501 -0.0182
13781W        W34061   0.908  14.319   3.074  0.0791  0.2865  0.1770
13782W        W34062   8.989   6.277  15.589 -0.0600  0.0424  0.0973
13783W        W34063   2.939   3.706  12.365 -0.0847 -0.0686 -0.3780
13784W        W34064   6.586   7.961   0.114  0.0521 -0.0159  0.0924
13785W        W34065  13.074  12.227   3.493  0.3658  0.1957  0.1801
13786W        W34066   6.684   1.061  15.971  0.0401 -0.0016  0.0601
13787W        W34067   6.987   5.509  14.478  0.2737 -0.1821  0.0804
13788W        W34068   7.335   8.707   1.417 -0.1413  0.5624  0.2860
13789W        W34069   4.761  13.421   2.057 -0.0683  0.2362 -0.0062
13790W        W34070   0.213   0.007   0.638  0.1074  0.0811  0.1568
13791W        W34071   5.353  10.781  12.671 -0.2102 -0.1106 -0.0580
13792W        W34072  17.621   8.074   3.451  0.2254 -0.0634  0.1013
13793W        W34073   1.588  10.504   4.861 -0.2452 -0.0348  0.0392
13794W        W34074  14.509  16.605  16.190 -0.1557 -0.2488 -0.0179
13795W        W34075   5.786   3.002   4.571 -0.0684 -0.0290 -0.0569
13796W        W34076  17.212  15.727   3.976 -0.1360  0.2139 -0.2093
13797W        W34077  14.136   3.301   2.647 -0.0546 -0.1937 -0.0437
13798W        W34078   7.903  13.909   2.114  0.0656  0.3027  0.2495
13799W        W34079  14.571   9.178   4.071 -0.1830 -0.0219 -0.1985
13800W        W34080   6.269   0.541   0.663  0.0539  0.0329  0.2192
13801W        W34081   3.263   3.629  14.947  0.0455  0.0796 -0.1908
13802W        W34082  16.049  17.143   2.827 -0.1024  0.3109  0.2029
13803W        W34083   3.376  10.898  14.643 -0.0299 -0.1685 -0.0901
13804W        W34084   1.523   2.849  16.410  0.0538 -0.5236  0.1014
13805W        W34085  12.555  14.143   5.514  0.0279 -0.1498 -0.1355
13806W        W34086   5.020   6.756  15.715  0.2019  0.0928 -0.2163
13807W        W34087  15.653   0.998   1.996  0.1819  0.0377 -0.0199
13808W        W34088   3.585  10.840   0.214  0.2113  0.1633  0.4655
13809W        W34089   3.830   0.260   4.942  0.1142  0.2353  0.0122
13810W        W34090  15.997   3.024   3.403 -0.1052 -0.1758  0.2768
13811W        W34091   0.518  16.678  16.313  0.0781  0.1716  0.0470
13812W        W34092   4.399   0.264  14.413 -0.0318 -0.4432  0.1507
13813W        W34093  14.781  12.442  14.612 -0.3798  0.3570  0.1911
13814W        W34094   4.744   5.104  14.736 -0.0029 -0.2475  0.2036
13815W        W34095   6.760   7.082  14.021  0.0721  0.1657  0.2010
13816W        W34096   2.768  15.266   1.410  0.0068 -0.0578 -0.2065
13817W        W34097   0.124   2.593  15.392 -0.0275 -0.3434 -0.1399
13818W        W34098   2.182  16.804  15.494 -0.0595  0.1803 -0.3728
13819W        W34099   5.392   0.922  15.942 -0.1832  0.0448  0.3139
13820W        W34100   4.636  17.638  14.129 -0.1026 -0.1533  0.1154
13821W        W34101  11.947  17.446   1.482  0.1978 -0.0361  0.0844
13822W        W34102  17.132  11.700   1.462  0.2742 -0.1755  0.1603
13823W        W34103   6.627  16.031  16.291  0.0719  0.0184 -0.1015
13824W        W34104  13.112  13.611   2.009 -0.1451 -0.0730  0.1712
13825W        W34105   5.334  11.361  12.152  0.0575  0.1121 -0.1338
13826W        W34106   7.829  14.711   2.927 -0.0896 -0.0042  0.1595
13827W        W34107   9.015   4.658  14.257  0.2270  0.1966 -0.0103
13828W        W34108   1.049  11.883   4.531 -0.1635  0.4337  0.2133
13829W        W34109  11.424   9.197   3.412  0.2266  0.0472  0.1150
13830W        W34110   0.672  12.130   1.306 -0.3323 -0.4873 -0.0563
13831W        W34111  16.167   0.747  13.714 -0.0665  0.1515 -0.2379
13832W        W34112  13.456   8.458   0.158 -0.2409  0.4052  0.1897
13833W        W34113  11.485  15.991   1.261 -0.0900 -0.1099 -0.0953
13834W        W34114  16.370   3.802   2.938 -0.1642  0.1260 -0.2491
13835W        W34115  14.415   5.636   3.702 -0.2046  0.0144 -0.3161
13836W        W34116   9.181   2.454   2.773  0.2194  0.2222 -0.1331
13837W        W34117   1.767  11.614  12.069 -0.1131  0.0665  0.2695
13838W        W34118   2.353   7.111   2.579  0.1376 -0.3001  0.0450
13839W        W34119   9.037  11.168   4.310 -0.2287 -0.2990 -0.1779
13840W        W34120   8.987   2.055   0.439  0.2478 -0.2238  0.1724
13841W        W34121   8.689   6.598   3.581  0.1529  0.0596 -0.2886
13842W        W34122   8.489   3.542  16.401  0.1513  0.1341 -0.0349
13843W        W34123  10.326  14.869   0.387  0.0224  0.2541 -0.1958
13844W        W34124  12.495   6.118   1.918 -0.1858  0.0420  0.1379
13845W        W34125  11.001  10.995   2.766 -0.3284  0.1436 -0.2502
13846W        W34126   1.759   8.495  13.853  0.2175  0.1525 -0.0001
13847W        W34127  10.658   3.242  15.451  0.1441 -0.1127  0.0368
13848W        W34128  14.246   0.574   4.624 -0.2151  0.1699 -0.1112
13849W        W34129   7.532   3.658   1.004  0.0153 -0.4335  0.2644
13850W        W34130   1.530  12.518  15.388 -0.1305  0.1801 -0.2866
13851W        W34131   0.381   6.556   4.408 -0.0657  0.1989  0.0567
13852W        W34132  15.972   0.410  15.345 -0.0774  0.2221 -0.1404
13853W        W34133   4.248   2.230   1.177  0.0767 -0.2208 -0.3828
13854W        W34134   1.248   7.037  16.753  0.2178 -0.2913  0.1060
13855W        W34135  16.763   0.079  13.615 -0.0663  0.3122  0.1805
13856W        W34136   9.383   0.998   4.552  0.1475  0.0699 -0.2144
13857W        W34137   4.128   1.166   3.120  0.3831  0.1132 -0.1059
13858W        W34138  13.702  12.013  12.377 -0.0777 -0.0630 -0.0445
13859W        W34139  10.599  14.911   5.060  0.0559 -0.0518 -0.2549
13860W        W34140   6.357  11.271  16.881 -0.0789 -0.1158 -0.0382
13861W        W34141  17.579   5.615   1.450  0.1203 -0.1000  0.0814
13862W        W34142  15.830   0.816   1.518  0.2656  0.2120  0.2401
13863W        W34143   7.038   0.221  13.528 -0.1325  0.0750 -0.2448
13864W        W34144  15.245  10.357   0.418 -0.2666 -0.0649 -0.0346
13865W        W34145   5.022   3.305   0.018 -0.1476  0.0881 -0.3970
13866W        W34146   3.658  16.131  13.049 -0.0318  0.2870  0.1421
13867W        W34147  15.731   4.689  15.977 -0.0037 -0.2297  0.1041
13868W        W34148   3.529  17.097  15.754 -0.1403 -0.0574  0.1718
13869W        W34149   1.319   6.521  15.290  0.2648 -0.0285  0.2081
13870W        W34150   7.578  16.176  15.043  0.0984 -0.0487 -0.2632
13871W        W34151  11.279  13.309  13.591  0.0101  0.1558  0.0562
13872W        W34152   1.682   5.859   0.877 -0.2339  0.0965  0.0478
13873W        W34153   5.326   2.915   0.798 -0.0343 -0.3543  0.0545
13874W        W34154   4.622  12.747  12.816 -0.0106  0.0412 -0.2880
13875W        W34155  11.954   3.998   4.787  0.1425 -0.1239  0.1088
13876W        W34156  16.604   8.174  13.163 -0.3292 -0.0716  0.0858
13877W        W34157   6.821   6.732  14.344 -0.0226  0.0701  0.0748
13878W        W34158  12.636  17.300   2.236  0.0933 -0.2178 -0.2643
13879W        W34159   5.461   9.167   0.692  0.1128  0.1515 -0.1469
13880W        W34160  17.714   8.654  15.305  0.2404 -0.0442  0.3925
13881W        W34161   5.923   2.907  15.990 -0.1001 -0.0992  0.3015
13882W        W34162   1.089   4.462   1.261 -0.0329  0.2666  0.2484
13883W        W34163   3.947   1.826  16.167  0.3637 -0.0264 -0.0998
13884W        W34164  17.308   9.403  15.046 -0.0390  0.0109  0.3197
13885W        W34165   9.634   7.444   3.223  0.2073  0.2763  0.0287
13886W        W34166  10.145  15.788  16.406 -0.3703  0.1873 -0.0797
13887W        W34167   5.640   7.136  11.922 -0.1900  0.0324 -0.2905
13888W        W34168   7.444  14.188  13.872  0.1094 -0.1073  0.0381
13889W        W34169  14.068   8.735  12.882 -0.0611  0.2898  0.3494
13890W        W34170   7.242  11.830   0.025  0.1190 -0.1991 -0.1273
13891W        W34171   7.071  12.942  14.017  0.1421 -0.0949  0.3520
13892W        W34172  11.745   6.399   0.089  0.1761 -0.2393 -0.2826
13893W        W34173  13.551   8.325  14.462  0.0621 -0.2135  0.0667
13894W        W34174   0.653   2.249   4.711 -0.1344  0.2024 -0.3670
13895W        W34175  13.484   1.591  16.463  0.1650  0.0945  0.0660
13896W        W34176   6.191   5.851  14.397 -0.2428 -0.0664  0.0753
13897W        W34177  13.740   9.792   0.146 -0.1315  0.4802  0.1191
13898W        W34178   7.280   1.834  15.854  0.1223 -0.0263  0.0218
13899W        W34179  13.825  14.160   2.921 -0.1268  0.0423  0.2104
13900W        W34180  12.967   7.518  15.003 -0.0292  0.0460  0.2669
13901W        W34181  12.966  10.831   1.760  0.0355 -0.0109 -0.1839
13902W        W34182   8.815   0.013   4.701 -0.3135 -0.0888 -0.0492
13903W        W34183   5.995   5.144  16.622 -0.2658  0.2341 -0.1302
13904W        W34184   8.847  15.429   3.408 -0.2383 -0.3011 -0.0627
13905W        W34185  11.771  11.291  13.587  0.1373  0.2471 -0.0246
13906W        W34186  15.260  12.479   4.183  0.2509  0.0451 -0.3396
13907W        W34187  11.462   0.951  14.132 -0.1920  0.2116 -0.0043
13908W        W34188   9.284  17.665  16.355  0.1523 -0.1961 -0.1256
13909W        W34189   0.285   3.815   1.995  0.0307 -0.0195  0.1175
13910W        W34190   8.475   1.850   3.509 -0.1700  0.0703 -0.0810
13911W        W34191   6.849   5.784  16.201  0.1185  0.0723  0.1846
13912W        W34192   0.418  15.889   4.411  0.1002  0.0394 -0.2056
13913W        W34193  13.364  10.429  14.969  0.0446  0.0588 -0.0315
13914W        W34194  10.708  17.316   3.704  0.2251  0.2912 -0.0359
13915W        W34195   4.524   6.810  15.600  0.1124  0.4546  0.2596
13916W        W34196  15.552   7.969  15.305  0.1018  0.1350  0.1484
13917W        W34197   2.129   4.434   1.964 -0.1967  0.0167 -0.2372
13918W        W34198   0.980   0.278  12.802 -0.3861 -0.1831 -0.3832
13919W        W34199  17.463   8.274   3.028 -0.0429  0.0393 -0.2832
13920W        W34200   4.321  17.328   1.431  0.2186 -0.0845 -0.1624
13921W        W34201  11.984   4.497  12.842 -0.1161 -0.0452  0.1659
13922W        W34202   5.961   1.642   1.197 -0.0783  0.0907 -0.1027
13923W        W34203   7.702   5.639  15.765 -0.1014 -0.1734 -0.1131
13924W        W34204   7.397   8.355   0.313 -0.0551  0.3120  0.2251
13925W        W34205   2.279   6.754  13.257  0.2400 -0.1214 -0.1243
13926W        W34206  17.459   2.709   4.973  0.1081  0.1946 -0.0897
13927W        W34207   1.928   8.950  14.413  0.1093  0.1778 -0.0545
13928W        W34208  11.240   0.996  12.557  0.2639  0.0442 -0.1497
13929W        W34209  13.996  13.228   2.339  0.1278 -0.0004 -0.0638
13930W        W34210  12.686  17.488   1.670 -0.1007 -0.0398 -0.1959
13931W        W34211   6.134  14.633   4.355 -0.1585 -0.0189 -0.0240
13932W        W34212   6.630   8.760   3.119  0.0750 -0.0021  0.0485
13933W        W34213  17.284   9.712   3.974 -0.1390  0.3415 -0.1668
13934W        W34214   1.956  10.429   3.216 -0.0779 -0.0274  0.2708
13935W        W34215   0.045   3.476  15.414 -0.0900  0.3061 -0.1320
13936W        W34216   6.236  11.074  16.172 -0.1850  0.0547 -0.1456
13937W        W34217   0.512   5.062   0.143  0.0705  0.0111  0.1252
13938W        W34218   7.870   9.207  15.116  0.1335  0.0123  0.0450
13939W        W34219   6.905   2.360   5.409  0.2819  0.0767 -0.1792
13940W        W34220   6.301  11.526  16.376 -0.0455  0.1594 -0.2263
13941W        W34221  15.323  11.715  13.639 -0.1869 -0.0252 -0.1981
13942W        W34222  11.391  15.294   4.440 -0.3372 -0.4088  0.3302
13943W        W34223   6.508   7.944   1.744 -0.0402 -0.3417 -0.2548
13944W        W34224  11.566   2.876   3.828 -0.1046  0.2820 -0.1455
13945W        W34225  12.120  15.497  14.921 -0.0705  0.3174 -0.2679
13946W        W34226   7.407  13.651  12.544  0.4962  0.0569 -0.0571
13947W        W34227   5.044  15.051  16.753 -0.1189  0.0446 -0.0375
13948W        W34228   2.791   9.735  16.642 -0.1235 -0.0942  0.0250
13949W        W34229   7.716   0.196  16.794 -0.1070  0.0919 -0.4261
13950W        W34230  11.854  14.378  14.539 -0.0911  0.2968 -0.1048
13951W        W34231  14.316   9.321  14.018  0.1307  0.0867 -0.0459
13952W        W34232   2.176  15.947  13.205 -0.1885  0.1509 -0.1010
13953W        W34233  16.789   8.997   3.834 -0.0645  0.2666 -0.0410
13954W        W34234   9.453   6.231  16.188  0.0138  0.1117  0.0617
13955W        W34235  17.384   4.647  15.893  0.1005 -0.3151 -0.1174
13956W        W34236  14.991   0.430   4.795 -0.0008 -0.2059 -0.0585
13957W        W34237   4.483   7.950  14.675  0.2926  0.1631 -0.0990
13958W        W34238  15.665   5.000   3.356  0.0385  0.1725  0.1434
13959W        W34239   7.877  15.066  16.315  0.0868 -0.2904 -0.0272
13960W        W34240  14.156   9.737   3.750  0.0510  0.0213  0.1245
13961W        W34241   6.291  12.507  16.099 -0.1788  0.0001  0.0392
13962W        W34242   3.805   5.936   4.678 -0.1535  0.2516  0.0579
13963W        W34243  15.932   9.941   3.751 -0.0648 -0.0260 -0.1200
13964W        W34244   4.047  16.005   5.252 -0.2914 -0.4582 -0.0704
13965W        W34245  17.062  15.701  13.303 -0.0939 -0.2375  0.3457
13966W        W34246   2.374   8.633   3.593  0.5316  0.2839 -0.0050
13967W        W34247   2.296   3.050  13.466 -0.0178 -0.0976  0.0358
13968W        W34248  15.635  12.113   0.149  0.1213  0.0810  0.2871
13969W        W34249   5.858  15.322  13.622  0.1975 -0.0897 -0.0381
13970W        W34250   0.065   6.552  15.023 -0.3029 -0.0073  0.0143
13971W        W34251   0.869   6.747  13.904 -0.2919  0.0038  0.2618
13972W        W34252   4.683   3.930  15.664  0.0933 -0.0367 -0.0362
13973W        W34253  17.736  14.550   2.064 -0.2345 -0.0793 -0.2408
13974W        W34254  16.128   0.277   3.782 -0.2097  0.3792  0.0316
13975W        W34255   9.959  16.162  13.466  0.0190  0.0737 -0.3755
13976W        W34256   1.458  11.145   1.265  0.0105  0.1116  0.2653
13977W        W34257  16.875   6.323   0.488 -0.4141 -0.2295 -0.1062
13978W        W34258   4.118   2.171   1.703 -0.1048  0.1417 -0.0778
13979W        W34259   0.360   1.294   3.787 -0.2365 -0.0414  0.0157
13980W        W34260  14.830   0.915  16.123 -0.0843 -0.2107 -0.2571
13981W        W34261   7.065   5.256   4.160  0.1608 -0.0363  0.0887
13982W        W34262  14.764  16.502  13.269  0.0826 -0.0421  0.0788
13983W        W34263  11.694   8.881  15.001 -0.3351  0.2598 -0.0947
13984W        W34264  10.605   7.579  15.386 -0.2254 -0.0063 -0.0130
13985W        W34265   9.531  11.369   4.129 -0.0369 -0.1471  0.0625
13986W        W34266   7.699   9.064  14.624 -0.0460 -0.1240 -0.0251
13987W        W34267   3.112   7.417   0.459  0.0073  0.1357 -0.1892
13988W        W34268  14.012   0.546  15.032  0.0984  0.0573  0.3368
13989W        W34269   7.907  17.303  11.478 -0.1199  0.2590  0.0074
13990W        W34270   6.945  13.832   2.364 -0.0260  0.0146  0.1874
13991W        W34271   7.942  11.663  15.154 -0.0346  0.0572  0.0396
13992W        W34272  16.659   1.550   2.797  0.0104 -0.1084  0.2145
13993W        W34273  16.954   2.100  12.539  0.1575  0.0355  0.1391
13994W        W34274   1.192  12.818   4.163  0.1062 -0.3263  0.0930
13995W        W34275   5.412  11.578  15.840  0.3697  0.0921  0.3460
13996W        W34276   0.411   1.192   0.025 -0.1193 -0.0243 -0.0916
13997W        W34277   9.514   2.237  13.083 -0.1678  0.1180  0.0303
13998W        W34278   8.106   7.636   0.635  0.3436 -0.1875  0.1422
13999W        W34279   9.550   9.479  15.405 -0.0743 -0.0477  0.3101
14000W        W34280  16.920  16.564   3.377 -0.1888  0.0484 -0.0309
14001W        W34281  12.159  14.699   0.795 -0.1189  0.0244  0.0499
14002W        W34282  12.473   7.512  15.067  0.1554  0.1856  0.1519
14003W        W34283   0.822   8.422   4.739 -0.0519 -0.0763 -0.2764
14004W        W34284   4.531   9.953  14.081 -0.2620  0.0879  0.0530
14005W        W34285   0.509  10.002   4.034 -0.1154  0.0086 -0.0694
14006W        W34286   6.770  14.871  13.679  0.0084 -0.0294  0.1136
14007W        W34287   8.650   1.899   0.888  0.0058 -0.0952  0.0877
14008W        W34288   3.508  12.803   3.097  0.3226  0.0657  0.1640
14009W        W34289  10.798   3.872  11.888 -0.0259  0.1545  0.0271
14010W        W34290  10.894   8.545   0.310 -0.2462  0.2196 -0.1822
14011W        W34291  11.767   1.838   3.133  0.0796 -0.3598 -0.3076
14012W        W34292   6.549  16.024  14.099  0.1493 -0.1464  0.3490
14013W        W34293   4.538   2.928   4.328 -0.0193 -0.0252 -0.1333
14014W        W34294  13.921   4.483   2.213 -0.4736 -0.1743 -0.1751
14015W        W34295   3.052  14.446  12.915  0.1000  0.0193  0.0399
14016W        W34296  17.117  15.733   0.377 -0.0592 -0.0305  0.3969
14017W        W34297   5.421   2.540  13.189 -0.0727  0.1510 -0.0644
14018W        W34298   7.120  15.701   0.192  0.0283 -0.3298 -0.2013
14019W        W34299  14.604  16.538   2.441 -0.5362 -0.0629  0.1378
14020W        W34300  14.546  16.015  16.693  0.2055  0.2216 -0.3195
14021W        W34301  16.067  15.240  15.202 -0.1917 -0.2935  0.0128
14022W        W34302   7.496   9.811   2.047 -0.1177  0.0251 -0.0348
14023W        W34303   3.369   8.874  14.662 -0.0921 -0.0142  0.1049
14024W        W34304  11.667   7.534   0.486  0.2030  0.0026  0.3506
14025W        W34305   5.701   2.126  14.135 -0.2204  0.0429 -0.1293
14026W        W34306  14.973   9.204   3.771 -0.3074  0.0804 -0.0099
14027W        W34307  10.790  16.767   1.998 -0.0551  0.0061 -0.4129
14028W        W34308   5.375  11.049  15.690  0.0600 -0.0950 -0.0534
14029W        W34309   2.568  13.576  12.674  0.2685 -0.3194 -0.0119
14030W        W34310  11.872  13.464   3.213 -0.1809  0.1044 -0.2396
14031W        W34311   0.935  14.898   3.622  0.0492 -0.0410  0.0872
14032W        W34312  10.051  11.115   2.002 -0.1239  0.1907 -0.2005
14033W        W34313   2.910   3.672   4.075 -0.0289 -0.0031  0.1733
14034W        W34314   9.941   9.654   1.103  0.3267 -0.0214  0.0133
14035W        W34315  12.774   8.565  15.842  0.1777 -0.1043 -0.0068
14036W        W34316  12.492   6.638  13.529 -0.2205  0.0191 -0.0261
14037W        W34317   7.827   5.498   3.674 -0.3690 -0.0942  0.0407
14038W        W34318  17.093   4.313  12.914 -0.1550 -0.0182 -0.0584
14039W        W34319   1.129   5.249   1.599  0.0654  0.0335  0.0898
14040W        W34320   7.271  12.188   3.016  0.0002  0.1243 -0.0271
14041W        W34321   8.191  12.043  12.566 -0.0025 -0.1746  0.2830
14042W        W34322   5.591   3.813   3.204  0.0294 -0.3847 -0.1859
14043W        W34323  11.382  10.801  16.771  0.2949 -0.0939 -0.0147
14044W        W34324   7.824   2.418  15.191 -0.1154 -0.0661 -0.1862
14045W        W34325  17.030  16.234   2.624 -0.1784 -0.3748  0.3731
14046W        W34326  12.397   9.960   1.913  0.2630 -0.0535  0.2170
14047W        W34327   8.840  16.059   0.439 -0.3408  0.0623 -0.0557
14048W        W34328   2.263   1.458  15.205  0.0772 -0.0953 -0.0161
14049W        W34329  13.030  15.646  15.737 -0.3079 -0.1734  0.0266
14050W        W34330   4.184  15.384  16.654 -0.1310 -0.1296 -0.1105
14051W        W34331   3.442   7.684  13.476  0.1056  0.1482 -0.0972
14052W        W34332   4.598  16.394  16.048  0.1198  0.0503 -0.0547
14053W        W34333   2.410  10.098   3.252 -0.1173  0.0232 -0.0024
14054W        W34334   1.381  15.840  14.498 -0.3251  0.0224 -0.0245
14055W        W34335  11.837  16.706  14.616  0.1069 -0.1185 -0.1966
14056W        W34336  10.212  12.647   0.032 -0.1053  0.3661  0.2683
14057W        W34337   0.966   4.930  15.271 -0.1078  0.1843  0.0917
14058W        W34338  12.196   3.010  13.931 -0.3889 -0.0788  0.1924
14059W        W34339   5.299   1.743  12.528  0.0884 -0.1157 -0.2493
14060W        W34340   3.361   6.586  12.736 -0.5628 -0.2589 -0.1121
14061W        W34341   5.731  16.364  16.169 -0.1951  0.2624 -0.1340
14062W        W34342  16.413  17.067  16.321 -0.1686 -0.3262  0.1431
14063W        W34343   5.581   9.964   3.953  0.2660 -0.1159 -0.4649
14064W        W34344   5.243   3.066  13.395  0.0664  0.3249 -0.0389
14065W        W34345  12.207  11.068   4.516  0.0409 -0.2790  0.2006
14066W        W34346   3.703   9.645   2.203 -0.4438 -0.1069 -0.0987
14067W        W34347  10.021  13.887   3.017  0.0126  0.2097 -0.1952
14068W        W34348   0.048   7.347   2.966  0.0406 -0.0109 -0.0312
14069W        W34349   3.465   3.324   0.486  0.1810 -0.0601 -0.1605
14070W        W34350   8.720   0.729  14.143  0.2346  0.2816 -0.2025
14071W        W34351   4.634   8.525  12.761  0.0758 -0.0299 -0.2931
14072W        W34352  14.555   1.043   0.988  0.0374  0.0838  0.0261
14073W        W34353  13.839  15.674   4.782 -0.3066 -0.1508  0.0129
14074W        W34354   5.188   3.382  12.464  0.0950 -0.2216 -0.0974
14075W        W34355   1.816   7.229   3.684 -0.0202  0.0381 -0.2775
14076W        W34356  15.165   6.170   1.334  0.2018 -0.0121  0.2166
14077W        W34357   8.263  14.462  13.235  0.3725  0.1685 -0.0969
14078W        W34358  15.094  14.340  12.774  0.2243 -0.3544  0.0122
14079W        W34359   1.769  11.767   3.360  0.1505  0.1694 -0.0819
14080W        W34360  15.130   0.886  13.928  0.2698  0.1502 -0.0514
14081W        W34361  15.136   9.493   2.720 -0.0971 -0.0635 -0.2607
14082W        W34362   0.986  11.690   0.603 -0.3227 -0.0255 -0.3504
14083W        W34363   0.064   9.903   1.034 -0.1704  0.1196 -0.0173
14084W        W34364  16.499   4.727   2.541  0.0986 -0.2252  0.0113
14085W        W34365   2.454  11.389   1.309  0.0592 -0.0563  0.0127
14086W        W34366   4.063  15.515  13.149  0.1236 -0.1537  0.1619
14087W        W34367  14.538   6.972   2.281 -0.1689 -0.0333 -0.1156
14088W        W34368   7.150  16.759  16.425 -0.0694  0.2154 -0.2631
14089W        W34369  16.574  16.454  13.136  0.0031 -0.0011 -0.0140
14090W        W34370  17.433  12.433  12.926  0.0393  0.2539  0.1903
14091W        W34371   6.508   8.402   2.020 -0.0325  0.1143 -0.2152
14092W        W34372   7.688   3.033  14.794  0.0359  0.0419 -0.2228
14093W        W34373  11.313   9.218  16.832  0.1261 -0.0672 -0.2515
14094W        W34374  10.863   9.379  15.674 -0.1430  0.3048  0.1577
14095W        W34375   9.494  12.933   1.724  0.1513 -0.2317 -0.1317
14096W        W34376   6.813   4.398   2.345 -0.0720 -0.0386  0.4616
14097W        W34377   3.835   7.708  14.739  0.1401 -0.0062  0.1068
14098W        W34378   2.102  13.397   3.119  0.1183  0.2677  0.5880
14099W        W34379   3.911  16.654   4.689  0.0819 -0.0296 -0.2254
14100W        W34380  13.580   6.498  15.559  0.0904 -0.1870  0.3735
14101W        W34381  14.860   2.222   3.732  0.1806 -0.1994 -0.1063
14102W        W34382   3.535   8.046   4.652  0.1028  0.0871  0.3784
14103W        W34383   5.796  15.686   1.344  0.0267 -0.4145 -0.0504
14104W        W34384  16.162   2.670  12.936  0.0518  0.0537 -0.1326
14105W        W34385   2.478  10.128   2.747  0.0844 -0.3262 -0.4775
14106W        W34386   4.730   2.955  12.527 -0.2707  0.2450  0.1096
14107W        W34387  16.454  16.159  16.866  0.0812  0.1312 -0.1793
14108W        W34388   6.229   8.610  16.734  0.0780 -0.1415  0.1382
14109W        W34389   4.461  10.619  13.119  0.0057  0.1052 -0.1688
14110W        W34390  13.286  11.765  14.626 -0.1803  0.0064 -0.0034
14111W        W34391   0.354   4.767  16.503  0.0867  0.2594 -0.0077
14112W        W34392   0.416   4.391   4.126 -0.0549  0.0237  0.1326
14113W        W34393   5.523  11.366   2.682  0.0668  0.0359  0.1825
14114W        W34394  10.066   9.689   2.267 -0.1269 -0.2347  0.0004
14115W        W34395   5.094  16.712   2.006  0.1236 -0.0423 -0.2719
14116W        W34396  14.751   7.130  12.565 -0.0093 -0.2709 -0.0298
14117W        W34397  14.455   0.053   2.134  0.1272 -0.0553  0.3872
14118W        W34398   0.658  16.157   5.271  0.2325  0.3745  0.1512
14119W        W34399   7.068  13.043  14.545  0.2253  0.1362 -0.1054
14120W        W34400  12.914  15.288   4.342 -0.1168 -0.0502 -0.1119
14121W        W34401  15.211   7.354   4.244  0.0672  0.0252  0.3336
14122W        W34402   5.552   9.357  15.357 -0.0040 -0.1181  0.1291
14123W        W34403  16.243   9.905   4.256 -0.2504  0.2616  0.1498
14124W        W34404  14.810   0.950  13.214  0.1063  0.0229  0.1324
14125W        W34405  11.578   1.798  15.815  0.2976  0.1253  0.2719
14126W        W34406   4.680  16.372   3.464 -0.1335  0.0701 -0.1377
14127W        W34407   0.732   7.539   4.491  0.0678  0.2407  0.0728
14128W        W34408  13.108  17.727  13.753 -0.3606 -0.2802  0.1384
14129W        W34409   0.940   3.891  15.193  0.1888 -0.0637  0.0987
14130W        W34410  15.673  16.112  13.194  0.1062  0.0719 -0.1363
14131W        W34411   2.889  10.321   3.219 -0.1122  0.1869 -0.1085
14132W        W34412   7.246  12.985   1.687  0.2407  0.1461 -0.3271
14133W        W34413   2.299   3.025   1.032 -0.1754 -0.2301 -0.1405
14134W        W34414   7.700   7.607  16.870  0.2207  0.2156 -0.0345
14135W        W34415   5.179  14.357  16.547  0.0635  0.1708  0.1843
14136W        W34416   2.940   0.053  16.344  0.3082  0.0373  0.0357
14137W        W34417   8.917   7.602  13.743 -0.2313  0.0217 -0.0813
14138W        W34418   8.393   5.005  13.541  0.1428  0.1827  0.0675
14139W        W34419  12.245  13.288  13.617  0.0735 -0.1604  0.1093
14140W        W34420  15.316   4.594   4.230  0.0461  0.1755 -0.2060
14141W        W34421  14.663   7.773   1.375 -0.0372  0.0808 -0.0352
14142W        W34422  11.157  13.831   2.278 -0.2494  0.3176  0.1460
14143W        W34423   6.036   5.514  14.974  0.1254  0.0341 -0.0752
14144W        W34424   1.137  11.542  14.461 -0.1783 -0.3399 -0.2346
14145W        W34425  16.927  17.232   4.763 -0.2827 -0.0292  0.3361
14146W        W34426   8.293  13.263   0.412  0.2282  0.0585 -0.0623
14147W        W34427  13.787  14.887  16.142 -0.1373 -0.2785 -0.0821
14148W        W34428  16.841  16.206   1.205 -0.2988  0.1516  0.1006
14149W        W34429  10.295   1.570   0.449  0.1225 -0.0029  0.1533
14150W        W34430   7.483  13.819   3.277  0.1391 -0.2405 -0.1175
14151W        W34431   2.420   4.248  16.037  0.0500 -0.2762 -0.2422
14152W        W34432   8.401   2.375  15.943 -0.1606 -0.1187 -0.0258
14153W        W34433   4.448   8.348   4.585  0.3496  0.1503 -0.1575
14154W        W34434   2.914   7.994   1.152  0.2740 -0.4289  0.2232
14155W        W34435   7.248   9.384   2.284 -0.1113  0.1637 -0.2648
14156W        W34436  11.008  13.699  11.963  0.0604 -0.2771  0.2324
14157W        W34437  10.762   4.548   4.503 -0.1025 -0.3054 -0.0133
14158W        W34438  11.405   4.349   3.536 -0.0795 -0.1506  0.1148
14159W        W34439   8.488  10.951   0.360 -0.2613 -0.1977  0.0463
14160W        W34440   7.552  13.260   3.390 -0.1094 -0.2497 -0.2102
14161W        W34441  13.845  11.967   4.037  0.2392 -0.1077  0.1801
14162W        W34442   5.769   1.647   0.223 -0.2081 -0.1951 -0.1046
14163W        W34443   1.353  10.425   4.089 -0.2160 -0.2227 -0.3593
14164W        W34444   3.150   1.272  14.031  0.2145 -0.0437 -0.5289
14165W        W34445  17.205   4.094  15.215  0.1418  0.2386 -0.3039
14166W        W34446   1.699   6.670  14.341  0.1761  0.0753  0.0246
14167W        W34447  11.163   1.799   4.276 -0.0248  0.1078 -0.1983
14168W        W34448   0.676  16.140   2.641  0.0485  0.1365  0.0050
14169W        W34449   0.776  10.257   0.561  0.0541  0.0225 -0.2652
14170W        W34450  15.302   6.669  15.710 -0.0251  0.0284  0.1862
14171W        W34451   0.222  13.639  15.593 -0.2644  0.1852  0.0732
14172W        W34452   8.684   4.338  13.927 -0.0317  0.0473 -0.0171
14173W        W34453   1.793   2.932  15.745  0.0689  0.1660  0.0029
14174W        W34454  12.255  10.292  11.883 -0.1466  0.0784  0.0800
14175W        W34455   3.820   4.860   0.046  0.3204 -0.0502  0.0316
14176W        W34456   0.317  10.377  13.293 -0.1163  0.1772 -0.2059
14177W        W34457   1.708   4.985  13.585  0.2540  0.2316  0.1861
14178W        W34458  14.317   8.911  13.603  0.2332  0.2731 -0.0015
14179W        W34459   4.209   2.515   3.564 -0.0240 -0.2551  0.1874
14180W        W34460   7.268  16.878  14.948 -0.0540  0.2744 -0.0490
14181W        W34461   1.188   9.694  16.761 -0.1346  0.2354  0.1288
14182W        W34462   8.153  14.576  12.411  0.0907 -0.1221  0.0468
14183W        W34463  11.873   3.265  16.070  0.1935  0.2621 -0.1356
14184W        W34464   3.495   8.565  16.126  0.1427  0.2329 -0.4196
14185W        W34465   1.130   5.688  15.641  0.0676 -0.4126  0.3141
14186W        W34466  13.390  14.418  15.686 -0.0067  0.2381  0.0431
14187W        W34467  10.410   1.574   3.737  0.0651  0.1064 -0.0622
14188W        W34468  16.818   5.487   3.980  0.0671  0.2108 -0.0642
14189W        W34469  12.053  12.341  15.255  0.0472 -0.0309 -0.0942
14190W        W34470   8.940  13.917  12.294  0.0834 -0.0675 -0.1122
14191W        W34471  13.152  14.372   2.026  0.2056  0.0736  0.3385
14192W        W34472  15.040   8.235  13.596 -0.5355  0.1426  0.1317
14193W        W34473  11.463   8.429  15.168  0.0345 -0.0948 -0.0908
14194W        W34474  11.177   8.941   3.046 -0.0935 -0.0676  0.1798
14195W        W34475   1.306   3.152  12.903  0.2532  0.1756  0.0166
14196W        W34476  16.089   1.834  12.973 -0.1211 -0.1613  0.1336
14197W        W34477  14.928  17.411   0.774 -0.1557  0.0436  0.2797
14198W        W34478  12.688  14.825  12.876  0.1946 -0.0770  0.0670
14199W        W34479  12.341   3.972  15.590 -0.1276 -0.2975 -0.1432
14200W        W34480   7.226  10.765   1.831  0.0742 -0.2403 -0.1967
14201W        W34481  10.842   2.787  14.381  0.0498 -0.2075 -0.1700
14202W        W34482   0.844   9.343  15.181  0.1207  0.4689 -0.1151
14203W        W34483   2.161  14.073   0.727  0.3503  0.1954  0.2538
14204W        W34484   4.508  16.724   3.116  0.0384  0.0659 -0.1800
14205W        W34485   0.691  11.289   3.495  0.0443  0.1606 -0.2800
14206W        W34486  10.023  15.071  13.176  0.0238 -0.1787  0.0362
14207W        W34487  16.446   7.293   0.245  0.0247  0.0416  0.1745
14208W        W34488   1.242   3.102  15.516 -0.1258 -0.2153  0.1914
14209W        W34489  10.052  12.692  16.013  0.0745  0.2708 -0.1779
14210W        W34490   8.355   1.797  14.180 -0.1457 -0.0462 -0.0042
14211W        W34491   3.462  12.159   0.856  0.1340  0.0767 -0.0196
14212W        W34492  11.789  10.659  16.544 -0.2008 -0.0973 -0.1277
14213W        W34493   6.931   7.226   2.762 -0.2798 -0.2664 -0.0319
14214W        W34494   6.564  12.452  12.082 -0.0425 -0.0235  0.2023
14215W        W34495   0.573   0.047  15.098 -0.0553  0.2968  0.1371
14216W        W34496  14.956   1.524  13.235 -0.0852 -0.1254 -0.2110
14217W        W34497  12.946  12.437  16.755  0.0156 -0.0330  0.0492
14218W        W34498   0.278   5.274  14.669  0.1714 -0.2007 -0.3359
14219W        W34499  15.932   6.854   0.600 -0.2069  0.0692  0.1214
14220W        W34500  17.633  14.162  12.496  0.0967 -0.2503  0.2924
14221W        W34501   8.852  17.362  16.381  0.0979  0.1474  0.0307
14222W        W34502   2.389  14.527  16.854 -0.0862  0.0386  0.0810
14223W        W34503   2.474   2.615  11.919 -0.0438  0.0051  0.3583
14224W        W34504  10.633   5.675   1.056 -0.1650 -0.0337  0.1227
14225W        W34505   6.312  10.532  15.727  0.2463 -0.0603  0.1381
14226W        W34506  17.277  17.012   5.070  0.1969  0.0827 -0.0684
14227W        W34507  10.929   2.515   2.234  0.2385  0.0618 -0.1403
14228W        W34508  12.995  17.226   1.341  0.1063  0.3165  0.2986
14229W        W34509   7.396   9.384   1.854 -0.1084  0.3174 -0.0598
14230W        W34510   2.420   8.981   3.243 -0.0637  0.1829 -0.0641
14231W        W34511   8.822  10.923   2.967  0.1145 -0.0119  0.2552
14232W        W34512  13.945   8.035   0.788  0.1763 -0.0138  0.1756
14233W        W34513   4.948   3.704   2.953 -0.1655 -0.2130  0.3275
14234W        W34514  16.413   3.340   3.332  0.2921 -0.2400 -0.1518
14235W        W34515  16.408  14.166   2.222  0.0111  0.0425 -0.0006
14236W        W34516   9.685   0.093   0.855 -0.1602  0.0547 -0.0165
14237W        W34517  13.744  16.247   0.867 -0.0953 -0.0647  0.1234
14238W        W34518  16.928   1.887   1.118 -0.1287 -0.1441  0.2462
14239W        W34519  13.116   3.977   4.557  0.0661 -0.4717  0.2518
14240W        W34520   9.423   6.339   4.145 -0.3046  0.1077 -0.0920
14241W        W34521   5.521   9.566   3.607 -0.0766 -0.1824 -0.2041
14242W        W34522   6.464   6.727   0.437 -0.0200 -0.0628 -0.0918
14243W        W34523  17.671   1.425   1.269  0.3142 -0.0978  0.2893
14244W        W34524   7.594  15.004  15.874 -0.0768  0.1344 -0.1513
14245W        W34525  14.848  11.548   2.521 -0.1084  0.1486 -0.3787
14246W        W34526  12.512  10.032   0.094 -0.0321  0.1109  0.2048
14247W        W34527   1.171  11.848   1.265  0.2046  0.0290  0.1731
14248W        W34528  14.023  15.827  13.990  0.0431  0.1380  0.0882
14249W        W34529  14.773   0.468  15.710  0.0540  0.0069  0.2078
14250W        W34530   4.499  10.447  14.013  0.0627 -0.0737 -0.0161
14251W        W34531   0.726   9.631   2.651  0.1431 -0.0406 -0.0020
14252W        W34532   1.613   2.691   1.179  0.2145  0.3935  0.0388
14253W        W34533  16.536  15.051   4.388  0.0191 -0.5312  0.0252
14254W        W34534   4.551  16.808  12.620  0.0196  0.0655  0.1275
14255W        W34535   2.374   5.963  14.440  0.0076 -0.0500 -0.0423
14256W        W34536  13.273  13.202   1.757 -0.1036  0.1991  0.1080
14257W        W34537   9.933   2.906  15.598  0.3641 -0.1058 -0.0225
14258W        W34538  16.484   9.976   0.793 -0.0279  0.0474  0.0145
14259W        W34539  14.233   6.227   1.165 -0.2125 -0.0126 -0.4685
14260W        W34540  12.692   3.472   3.324  0.1437  0.0723  0.0454
14261W        W34541  17.654   3.556   2.790 -0.0400 -0.0037  0.0764
14262W        W34542   5.169  17.221   2.411 -0.0484  0.3565 -0.1296
14263W        W34543   7.331  10.041   3.737 -0.0664 -0.1741  0.2860
14264W        W34544   8.980  11.386   3.074  0.2164 -0.2992 -0.2439
14265W        W34545  10.149  13.221  15.103 -0.0052  0.0003 -0.0202
14266W        W34546  14.001   0.203  13.173  0.2103  0.1032  0.2163
14267W        W34547  15.969  13.781   2.996 -0.1844  0.1505 -0.0523
14268W        W34548   3.526   8.416  13.115 -0.1355 -0.2257  0.0555
14269W        W34549   4.550   7.148   1.162 -0.3648  0.1729  0.1165
14270W        W34550   3.967   9.656   2.859 -0.0563  0.0958 -0.1285
14271W        W34551  10.738  12.514  15.192 -0.4085  0.2865  0.0202
14272W        W34552   8.263   0.381   2.204  0.1840  0.0365  0.0455
14273W        W34553  10.241   4.157   3.263  0.0954  0.1231 -0.1699
14274W        W34554   0.214  10.028   3.513  0.2748  0.0383  0.0881
14275W        W34555  15.402   1.971  13.278 -0.0716  0.0277 -0.0603
14276W        W34556   2.676  16.823  15.584 -0.3020 -0.3841 -0.1701
14277W        W34557  13.819   9.305  15.525 -0.1515 -0.1089 -0.0144
14278W        W34558  10.668   9.235  16.844 -0.0814  0.2595  0.0375
14279W        W34559   5.158  10.994   0.274  0.1936  0.0046  0.1962
14280W        W34560   9.342   0.362  14.293  0.1421 -0.3364  0.0927
14281W        W34561  16.787  16.940   0.202  0.4192  0.0126  0.3753
14282W        W34562  14.768   1.502  14.680  0.1105  0.0747 -0.0590
14283W        W34563  17.037   1.451  16.106 -0.1760  0.0708 -0.0631
14284W        W34564  13.221  13.100  14.847 -0.0881 -0.0767  0.0489
14285W        W34565   3.669   7.618  15.494 -0.2188 -0.0940 -0.1882
14286W        W34566  17.237   8.534  15.508 -0.0148  0.2049  0.2018
14287W        W34567   8.319   6.964  16.126  0.2795 -0.0624  0.0228
14288W        W34568   0.094   9.100   2.689 -0.1992 -0.0453  0.2176
14289W        W34569   4.368   5.470   0.449  0.3735  0.2839 -0.0792
14290W        W34570   9.534  10.366   0.832 -0.1555  0.1003 -0.0179
14291W        W34571  10.870   8.130   0.744 -0.0935  0.1632 -0.3074
14292W        W34572  10.410   8.295  12.337  0.3090 -0.0731 -0.1004
14293W        W34573   6.282   6.446  15.011  0.0040  0.3485  0.2130
14294W        W34574   4.915   7.634   2.572 -0.2279  0.1161 -0.2903
14295W        W34575   2.592   1.012  16.637 -0.0416 -0.2858  0.1388
14296W        W34576   6.950  16.367   4.779 -0.1238  0.0517 -0.3498
14297W        W34577   6.583   9.550  14.333  0.4538 -0.0572 -0.1423
14298W        W34578   1.903   4.870  15.196  0.0606 -0.1146 -0.1271
14299W        W34579   0.619   2.809   1.853  0.1125  0.0302 -0.1170
14300W        W34580   2.685   7.079   0.787 -0.0182 -0.0649  0.1199
14301W        W34581  17.048   7.746   4.113 -0.0078  0.2156 -0.2699
14302W        W34582  17.653   0.929  12.991  0.0238 -0.1217  0.0150
14303W        W34583  16.286  12.955  12.086 -0.0148  0.3462  0.0331
14304W        W34584   7.537  14.973   1.153 -0.0463  0.1243 -0.1959
14305W        W34585  12.984  14.430  14.446  0.0535 -0.1093 -0.2634
14306W        W34586   9.817   4.813   3.170  0.1252  0.0479 -0.0073
14307W        W34587  13.085   9.196  16.246 -0.1056  0.3087 -0.0056
14308W        W34588   0.783  11.852  16.794  0.3948 -0.1217 -0.2145
14309W        W34589   9.787   7.491   0.756  0.0718  0.2347 -0.1000
14310W        W34590   5.793   0.544   0.818  0.1258 -0.2520 -0.1133
14311W        W34591  14.916  11.167  14.712 -0.0031  0.2351  0.1704
14312W        W34592  17.005  15.751   1.095  0.0288 -0.0077  0.2169
14313W        W34593   1.440   0.827   4.439 -0.2070 -0.0669  0.0255
14314W        W34594   4.485   2.219   2.850  0.2840  0.0000  0.2275
14315W        W34595   4.871   7.908  13.931  0.2563 -0.1475  0.0166
14316W        W34596  13.434   6.983   4.196 -0.1693 -0.1646 -0.0304
14317W        W34597   4.117  16.402  13.098 -0.0844  0.2497  0.1793
14318W        W34598  13.573   8.448   5.859  0.1098 -0.1434  0.2058
14319W        W34599  11.389  11.254  13.037 -0.1329  0.1240 -0.2037
14320W        W34600   5.247   6.045   1.133 -0.1011  0.0169  0.0675
14321W        W34601   7.391   9.053  12.446 -0.2902 -0.2700  0.3414
14322W        W34602  11.169  14.212  15.583 -0.0039  0.0101 -0.0499
14323W        W34603   2.341   1.055  16.219  0.2818 -0.1860  0.0754
14324W        W34604   8.210   7.112  16.593  0.1840 -0.1464  0.0123
14325W        W34605   7.803   7.512   2.861 -0.0059  0.3064 -0.4254
14326W        W34606   0.249   0.721  16.786  0.1297  0.3833  0.0361
14327W        W34607   1.398  12.480   2.473 -0.0487  0.0248  0.2188
14328W        W34608  10.437  10.275  15.936  0.1845 -0.0879  0.0011
14329W        W34609   5.880   7.097  14.489  0.0167  0.3923 -0.0421
14330W        W34610  10.893  17.691   0.145  0.2101 -0.1097  0.0571
14331W        W34611  17.313  10.052   0.476 -0.3049  0.0893  0.0742
14332W        W34612   7.264   9.759   0.392 -0.1094 -0.5046  0.0102
14333W        W34613   8.472   5.663  12.478 -0.1373 -0.0893  0.1641
14334W        W34614   0.578  11.043   4.170 -0.2240 -0.0480 -0.0892
14335W        W34615  12.860  16.782  16.474  0.1068  0.1296 -0.0406
14336W        W34616   7.732   4.541   3.648  0.1089 -0.0268  0.1334
14337W        W34617   8.844   2.624  16.656  0.0373 -0.0455  0.3799
14338W        W34618   9.514   8.641  16.478  0.0024  0.1351 -0.2377
14339W        W34619   0.887   8.213  14.473  0.2649 -0.1052  0.4551
14340W        W34620   2.885  13.675   3.029  0.3413  0.0038  0.1139
14341W        W34621   8.603   8.236  14.204  0.1985 -0.2428  0.0907
14342W        W34622   7.419   3.192   4.657  0.0949 -0.0975 -0.0221
14343W        W34623   6.239  17.569  14.129  0.2077  0.1796 -0.1200
14344W        W34624   5.507   6.363   4.284  0.1243  0.0312 -0.0475
14345W        W34625   9.568  17.365   4.664 -0.0157 -0.0167  0.1019
14346W        W34626   9.513  10.599  13.689  0.0588  0.1569 -0.0550
14347W        W34627   8.966   4.812  12.970 -0.2120  0.0815  0.2279
14348W        W34628   6.660   3.452  15.026  0.1741  0.1545 -0.1382
14349W        W34629   5.102  12.274  12.371  0.2656  0.1361  0.1465
14350W        W34630   0.555   5.107  13.044 -0.3655  0.0126 -0.1384
14351W        W34631   8.974   0.611  13.307  0.0950  0.0821  0.2736
14352W        W34632  12.305   4.098   1.912  0.0712 -0.0172  0.1761
14353W        W34633   1.745  11.500  16.407  0.2226 -0.1339  0.1094
14354W        W34634  14.098  10.649   2.255  0.0078  0.1847  0.2147
14355W        W34635  17.379   3.444  14.455  0.0835 -0.2156  0.0704
14356W        W34636  11.242  14.333   2.051 -0.2539  0.1204  0.3682
14357W        W34637  15.120  10.806  13.074 -0.1369 -0.0758  0.1616
14358W        W34638  16.056   5.200   2.178 -0.0312 -0.1417 -0.4120
14359W        W34639  10.478  17.229  13.237  0.0624 -0.2195  0.1624
14360W        W34640  16.730   8.242  13.622 -0.0091  0.0487  0.0626
14361W        W34641   1.735   7.347  16.191 -0.1215 -0.1798 -0.2452
14362W        W34642  10.385   0.771   0.003  0.0458 -0.0597  0.0538
14363W        W34643  10.571   6.159  11.988  0.1710  0.2877  0.0312
14364W        W34644   9.554  12.921  15.802 -0.2810 -0.1345  0.3200
14365W        W34645   1.072  16.083  16.166  0.0194  0.0775 -0.1260
14366W        W34646  16.503  10.440   4.877  0.0294  0.3672 -0.1269
14367W        W34647   8.166   7.307  15.763  0.1091 -0.1667 -0.0062
14368W        W34648   1.875   2.187   2.824 -0.1637 -0.1238  0.1171
14369W        W34649   1.069  13.177   2.511  0.0731  0.4585 -0.1650
14370W        W34650  13.984  14.171  14.446 -0.1396  0.0266 -0.0096
14371W        W34651   5.082   0.160   4.204  0.0145  0.1864  0.0689
14372W        W34652   5.041  13.179   2.943  0.1866  0.2253 -0.0053
14373W        W34653   2.990   8.270  14.937  0.0840 -0.2406 -0.1478
14374W        W34654   7.536   9.132  11.909 -0.1259  0.0910  0.1056
14375W        W34655  16.558  14.217   0.222 -0.0285  0.1717 -0.0201
14376W        W34656   2.138   4.291  16.704  0.2119  0.1271  0.0087
14377W        W34657  11.868  11.018   2.534  0.1114 -0.1320  0.0997
14378W        W34658  10.793  15.414  16.186  0.2610  0.2714  0.3696
14379W        W34659  11.290   0.082  15.526  0.1069  0.1435 -0.0952
14380W        W34660   7.084   9.180   0.379 -0.0031 -0.1773  0.2860
14381W        W34661   1.352  13.441   3.990 -0.2504 -0.0197  0.0670
14382W        W34662  17.030  11.922  14.697 -0.1393 -0.2696 -0.0849
14383W        W34663  12.818   8.954  13.718 -0.2976  0.0913 -0.4269
14384W        W34664   4.500  13.467   2.502  0.2793  0.0441  0.0503
14385W        W34665   2.871   0.874  14.901  0.3666 -0.1442 -0.1843
14386W        W34666   2.620  12.178   2.585 -0.1577  0.1618 -0.1858
14387W        W34667  12.503  14.282   1.249 -0.0039  0.0731 -0.0381
14388W        W34668  16.225   4.002   0.878  0.1188 -0.4471  0.3922
14389W        W34669   7.803   7.228   0.990 -0.0898 -0.0856  0.2265
14390W        W34670   7.889  14.972  14.391 -0.2502  0.3565  0.2006
14391W        W34671   0.977  13.039  13.189 -0.0759 -0.3864  0.0950
14392W        W34672   4.188   0.359   3.652 -0.1411 -0.0652  0.1586
14393W        W34673  14.471  12.188  16.341  0.0648  0.2217 -0.0772
14394W        W34674   1.534  14.858  15.599  0.1737  0.0558 -0.0448
14395W        W34675   4.380   3.019  15.856 -0.0531 -0.2087 -0.1568
14396W        W34676  13.969  11.392   4.525  0.3019  0.2193  0.1890
14397W        W34677  10.879   2.390  16.558 -0.1322 -0.0448  0.1241
14398W        W34678  14.678  10.957  15.917  0.1089 -0.0643  0.0502
14399W        W34679  13.164  12.306   4.888 -0.0639  0.2452 -0.1761
14400W        W34680   6.297   5.132  13.771  0.1675 -0.1738 -0.0008
14401W        W34681  16.633   8.653   1.448  0.0447  0.0039 -0.0229
14402W        W34682   9.869  15.717   1.351 -0.3364  0.0891  0.1066
14403W        W34683   1.237   5.573   4.665  0.0319 -0.1960 -0.1266
14404W        W34684  16.430   6.312  12.564 -0.0320 -0.0676  0.1318
14405W        W34685  11.993   8.500  13.739 -0.1030 -0.0894  0.0938
14406W        W34686   0.976   1.812  12.887 -0.1870 -0.2478  0.1447
14407W        W34687   2.260  14.770  16.316 -0.0708  0.0232  0.0581
14408W        W34688  17.374  15.014   4.156 -0.2815 -0.0853  0.1311
14409W        W34689   4.083   8.026  13.521  0.2158 -0.0515  0.3378
14410W        W34690   1.725   1.256   2.443 -0.2177 -0.1212 -0.0945
14411W        W34691  10.644   6.744   1.514  0.1012 -0.1051  0.1412
14412W        W34692  15.296  16.565  14.068  0.1755  0.1963 -0.0176
14413W        W34693  12.781   5.471   3.657 -0.2534 -0.2234 -0.0962
14414W        W34694  11.710   0.377   2.677  0.5178 -0.1042 -0.0399
14415W        W34695   6.306   5.676  12.742  0.3728  0.1346 -0.1111
14416W        W34696  11.371  17.538   0.923 -0.1944 -0.2379 -0.1424
14417W        W34697   6.338   4.308   3.837  0.0327 -0.0461 -0.0975
14418W        W34698   1.509  15.190  16.045  0.1158  0.0372 -0.0573
14419W        W34699  10.190  17.690   4.681 -0.0731 -0.2447 -0.0755
14420W        W34700   8.017   2.810   0.126  0.0157  0.0922  0.4120
14421W        W34701  10.591  12.348   1.668  0.4722 -0.0485  0.1132
14422W        W34702  14.092   6.388   5.025 -0.0065  0.0346 -0.1488
14423W        W34703  15.416   0.159  14.821 -0.2241 -0.2449  0.1682
14424W        W34704   2.395   0.737  14.891  0.1251 -0.0996 -0.1169
14425W        W34705  16.373   7.583   3.025  0.2695  0.0303 -0.3653
14426W        W34706  10.124   6.060  12.199 -0.1691  0.0336 -0.0080
14427W        W34707   2.912  11.553   1.378 -0.1026  0.4155  0.1177
14428W        W34708   9.164   0.661   1.978 -0.1321 -0.1507  0.0081
14429W        W34709  13.606   0.147  13.477  0.0149  0.2508 -0.1689
14430W        W34710  13.385   0.061   3.357  0.1892 -0.5380  0.2232
14431W        W34711   1.964  16.206   6.014  0.0640  0.0644 -0.1755
14432W        W34712   0.982   8.105   2.900  0.0564 -0.0836  0.1270
14433W        W34713   5.718   6.564   2.738 -0.2934  0.0328  0.2695
14434W        W34714  16.305  16.736  12.799 -0.3101  0.0920  0.0405
14435W        W34715  12.287   4.005   2.701 -0.0129  0.1502  0.1183
14436W        W34716  16.708  16.988  13.882 -0.0479  0.0459  0.1323
14437W        W34717   2.089   5.824  14.049 -0.0067  0.2829  0.3908
14438W        W34718  14.910   5.811   3.644  0.1255  0.1414 -0.0337
14439W        W34719  11.362   4.661   0.809 -0.2996 -0.1181  0.0643
14440W        W34720   0.220  12.009   1.112  0.1137 -0.1090 -0.2473
14441W        W34721  14.890   6.105  13.984  0.0451 -0.0373  0.0851
14442W        W34722   0.225  15.429   4.726 -0.0179  0.2908  0.1537
14443W        W34723  16.965   8.547  14.535 -0.0760 -0.0848  0.0054
14444W        W34724  15.558   4.180   2.336 -0.2193  0.3688 -0.2690
14445W        W34725  13.915  17.160  15.854  0.2382 -0.2215  0.1928
14446W        W34726   8.807  10.634  14.951 -0.1597 -0.0471 -0.2762
14447W        W34727   2.474   3.944   2.644  0.0019  0.0136 -0.3833
14448W        W34728  16.952  11.278   1.746  0.1149  0.0130  0.0616
14449W        W34729   8.152   7.530  14.605 -0.2169  0.0567 -0.0688
14450W        W34730  14.355  17.467  16.531  0.4660  0.2402  0.0572
14451W        W34731  16.077  13.937  12.240 -0.0120 -0.1965 -0.1673
14452W        W34732  15.672   1.399   2.405  0.1809  0.0097  0.1729
14453W        W34733  12.738  10.526  14.107  0.1210  0.0312  0.1318
14454W        W34734   4.534   1.127  13.923  0.2621 -0.0514 -0.1308
14455W        W34735  17.655   7.852   0.061 -0.1366 -0.2053  0.0784
14456W        W34736  12.363  11.720   0.190 -0.0165 -0.0807  0.0057
14457W        W34737   1.505   5.903  12.317 -0.0940 -0.2212 -0.0759
14458W        W34738   8.642   7.179   2.309  0.1186 -0.0728  0.2270
14459W        W34739   3.870   5.668  14.506 -0.2493 -0.1133  0.0266
14460W        W34740   4.575   3.940   0.966  0.1004 -0.4119  0.0254
14461W        W34741   7.559   4.136   1.895  0.2458  0.0187  0.0582
14462W        W34742  13.834   9.320  14.180  0.1838 -0.3030  0.0561
14463W        W34743  13.249   9.828   3.938 -0.1033  0.1810  0.0498
14464W        W34744  14.365   4.257  13.544  0.4199  0.0321 -0.1277
14465W        W34745   1.889   8.780   4.336 -0.0744 -0.0237  0.1522
14466W        W34746  13.602  13.583   1.605  0.1700 -0.0079  0.1890
14467W        W34747   9.966   8.726  16.249  0.1069  0.1427 -0.1207
14468W        W34748  15.810   9.754  16.040 -0.0971  0.3284  0.1687
14469W        W34749   9.317   3.226  13.559 -0.1840  0.0342  0.2502
14470W        W34750  14.955   4.246   3.867  0.2351 -0.0612 -0.1412
14471W        W34751   8.765   6.605   2.355  0.2527  0.1758 -0.1468
14472W        W34752  15.835   0.992  14.212  0.2795 -0.3061  0.3607
14473W        W34753  11.088   5.761  14.160  0.0750  0.2033  0.2139
14474W        W34754  16.616   6.278   3.015 -0.1386 -0.2480 -0.1994
14475W        W34755   2.218  13.036   4.000 -0.1684  0.1566 -0.1546
14476W        W34756   1.856  10.293   1.264  0.2400  0.2124  0.0643
14477W        W34757  15.964   4.508  13.412 -0.0515  0.3047  0.1749
14478W        W34758  17.466  12.995  13.892 -0.1262 -0.1797 -0.2143
14479W        W34759   6.438  14.960   0.483 -0.1053  0.1536 -0.2025
14480W        W34760  17.147  14.812   3.667 -0.1910  0.1393 -0.1193
14481W        W34761   8.546   4.552  16.064 -0.0821 -0.0340  0.1033
14482W        W34762  10.409  13.055  16.010 -0.0654 -0.1493  0.0344
14483W        W34763   4.163  13.864  15.074 -0.2715  0.0308 -0.0797
14484W        W34764  11.089   3.545  15.803  0.0252 -0.0882 -0.0015
14485W        W34765   6.772   3.772  14.589 -0.0391 -0.1353 -0.1364
14486W        W34766  11.212   4.659   1.811  0.0029 -0.0147 -0.2496
14487W        W34767   2.044  10.921   4.242  0.2136 -0.1398  0.1117
14488W        W34768   4.464  15.244   4.758 -0.0256  0.1240  0.1620
14489W        W34769  17.736   5.437  15.635 -0.2229 -0.3375  0.3024
14490W        W34770   0.119   2.645   4.209  0.2119 -0.1784 -0.1762
14491W        W34771  13.943  14.552  13.591 -0.1204  0.2679 -0.3429
14492W        W34772  16.469   4.705  14.863  0.0143 -0.0647  0.0869
14493W        W34773  11.766   9.883  14.818  0.0992  0.1063  0.1485
14494W        W34774   3.977   8.263   2.516  0.2002  0.2228  0.1150
14495W        W34775  13.433   2.376   2.128 -0.1325 -0.2106 -0.3466
14496W        W34776   6.926   9.734  15.739 -0.0774  0.0923  0.2277
14497W        W34777  12.542   2.076   1.671 -0.0876 -0.1013 -0.0328
14498W        W34778   5.925  17.391  16.041  0.3140 -0.1578 -0.2353
14499W        W34779  17.178   2.270   0.895 -0.0179  0.0622 -0.0997
14500W        W34780  17.620  13.163   4.442 -0.1609  0.1249 -0.2663
14501W        W34781   8.505   3.558  13.528  0.2027 -0.2173 -0.0423
14502W        W34782   1.711   1.250   4.326  0.2638 -0.0747 -0.0082
14503W        W34783   6.393   5.216   2.854  0.3946 -0.0192  0.0346
14504W        W34784   7.238   3.856   1.631 -0.0668  0.2609  0.1830
14505W        W34785   3.683   0.222   1.131 -0.0066  0.2651 -0.3794
14506W        W34786   7.231   4.590  15.624  0.2678 -0.1730  0.1235
14507W        W34787  17.447  16.307  14.862 -0.3135 -0.0509 -0.2169
14508W        W34788   2.844   6.334   3.614 -0.1983 -0.0045 -0.3859
14509W        W34789   2.218   8.564  14.668 -0.0603 -0.4629 -0.0334
14510W        W34790   1.973   7.519   4.039  0.0510 -0.1546  0.0013
14511W        W34791   5.176   6.248  12.031 -0.1060  0.1234 -0.0218
14512W        W34792   7.918  17.733  14.040  0.0233 -0.0496 -0.0060
14513W        W34793   0.280   6.339  14.575  0.1284  0.2728 -0.2773
14514W        W34794   6.710   7.699   1.360 -0.0537 -0.0591  0.0712
14515W        W34795   7.500   9.563  12.562 -0.1301  0.1701 -0.0796
14516W        W34796  13.136  14.957   4.711  0.2128 -0.2310  0.0735
14517W        W34797  13.551   6.888  13.161  0.3897  0.1955  0.0800
14518W        W34798   8.460   8.672  15.297  0.1975 -0.0202 -0.1940
14519W        W34799   6.826   4.966   0.046 -0.3091  0.2299 -0.4309
14520W        W34800  16.467   3.975  16.336  0.2427  0.0520  0.0156
14521W        W34801   2.407   0.019  13.847  0.0039 -0.1969 -0.1003
14522W        W34802   3.228   3.406  16.644 -0.3550 -0.1552 -0.0521
14523W        W34803  11.095  15.290  13.488  0.0465  0.4148 -0.2993
14524W        W34804  14.641  12.107  13.209  0.2249  0.0088  0.0998
14525W        W34805  10.973  14.039  14.811 -0.0453  0.0346 -0.0479
14526W        W34806  16.842   7.984  14.280  0.2504  0.0710 -0.0129
14527W        W34807   9.101  13.797  16.300 -0.1377  0.0393 -0.2651
14528W        W34808   8.414   5.709  16.005  0.0077 -0.0876  0.0255
14529W        W34809   4.336   6.337   0.521  0.2515  0.1810  0.0583
14530W        W34810   2.038  10.058   0.575  0.0207  0.1422 -0.3486
14531W        W34811   7.029   9.800  14.340  0.1276  0.1030 -0.2443
14532W        W34812  15.761   3.569  15.495 -0.3641  0.1928 -0.0341
14533W        W34813   3.220   6.300   3.296  0.1341  0.1308  0.2406
14534W        W34814   1.275  10.720   0.917 -0.1844  0.0461 -0.3418
14535W        W34815  14.805  13.466   2.379  0.0629  0.1830 -0.0075
14536W        W34816   3.802  17.341   4.125  0.1958  0.1140  0.0270
14537W        W34817  12.194  11.028  13.557 -0.0206 -0.1553  0.0546
14538W        W34818   4.462  16.196  15.094 -0.0086 -0.3475  0.2189
14539W        W34819   8.473  15.372  15.705 -0.1011  0.1815  0.0787
14540W        W34820  12.907  15.549  16.267  0.1881 -0.2442  0.1873
14541W        W34821  11.277   7.485   3.921 -0.0974 -0.0789  0.1230
14542W        W34822  16.021   5.457  13.035  0.0168 -0.2757 -0.2032
14543W        W34823   1.345  16.880   0.003 -0.1149  0.0942  0.0160
14544W        W34824  13.891   7.769   2.395 -0.3780  0.1748 -0.0680
14545W        W34825  14.633  10.253   2.948  0.2110  0.0148 -0.0623
14546W        W34826   3.143  12.510   1.776 -0.2306  0.0165 -0.0860
14547W        W34827   9.371  13.928  13.968  0.2260 -0.3373 -0.0153
14548W        W34828  10.326  17.461   3.410  0.0906 -0.1670  0.3443
14549W        W34829  15.165  10.756  15.663  0.2121 -0.0790  0.0611
14550W        W34830  15.551   6.080  12.608 -0.0621 -0.2543  0.3147
14551W        W34831  17.430   2.320  13.277  0.1980 -0.3295  0.1761
14552W        W34832   8.308   1.821  16.261  0.0137  0.0394  0.0695
14553W        W34833   5.216  17.272   0.759  0.1941 -0.0106 -0.1881
14554W        W34834  10.643   7.620  13.073  0.1465 -0.0111  0.2762
14555W        W34835  15.586  14.241  12.865 -0.2954  0.3376  0.1819
14556W        W34836   9.102   8.702  12.031 -0.0391 -0.2002  0.2455
14557W        W34837   0.279  14.263   0.617 -0.0183 -0.1494 -0.0923
14558W        W34838  16.244  10.706   2.833 -0.1534 -0.3099  0.2672
14559W        W34839   0.619  17.137   4.238 -0.1794  0.0815  0.3456
14560W        W34840   6.617   4.804   2.021 -0.2452  0.0598 -0.0105
14561W        W34841  15.668   0.493  16.655  0.0708 -0.0121  0.0754
14562W        W34842   1.177  14.285  12.752  0.0085  0.6038  0.2456
14563W        W34843   3.443  14.764  13.024  0.1765 -0.0488  0.1826
14564W        W34844  16.234   9.270   0.890  0.0318 -0.1969 -0.1313
14565W        W34845   1.759   6.563  16.403  0.1631  0.0640 -0.1909
14566W        W34846  15.592  15.607  13.945 -0.3082 -0.0261  0.0085
14567W        W34847   7.406   2.103   4.322 -0.0063 -0.0692  0.0460
14568W        W34848   0.477   4.082  16.642  0.0796  0.0584 -0.1885
14569W        W34849   2.380   4.156   1.520 -0.2850 -0.0185  0.4209
14570W        W34850   3.924   9.786   0.604  0.2182  0.3070 -0.2231
14571W        W34851   0.313   0.882  13.256  0.0055  0.2145  0.0528
14572W        W34852  12.072   3.695  16.075 -0.2290  0.4138  0.3004
14573W        W34853   4.269   4.112  13.189  0.3964  0.2159  0.0499
14574W        W34854  11.165   1.186   2.020  0.1613 -0.3126  0.2699
14575W        W34855   9.445  11.850   3.950  0.1956 -0.2261 -0.0311
14576W        W34856   9.291  17.174  14.681 -0.1918  0.1269 -0.3447
14577W        W34857   2.696   1.643   4.003 -0.1329 -0.3713  0.0407
14578W        W34858   1.822   7.595  13.290  0.0341 -0.1972 -0.0158
14579W        W34859   8.191   0.688   3.094  0.1113  0.0038  0.0892
14580W        W34860   2.577   8.680   2.292  0.1382 -0.1586 -0.2882
14581W        W34861   8.876  10.829  13.174  0.0310 -0.3208  0.0547
14582W        W34862  14.919  11.201   3.719  0.1171  0.0746  0.4320
14583W        W34863   3.629  13.855  15.248 -0.2791  0.1550 -0.0010
14584W        W34864   0.079  11.259  13.452 -0.0621 -0.3212  0.1006
14585W        W34865   5.976  11.584  16.007 -0.1098 -0.2111  0.2458
14586W        W34866   8.446   6.727   0.005  0.1231  0.0990 -0.0056
14587W        W34867   0.755  16.985  13.595  0.3497 -0.2561  0.0273
14588W        W34868   9.261  10.781  16.363 -0.0559  0.2374  0.0958
14589W        W34869   5.204  15.673  14.089 -0.1269 -0.3435 -0.0094
14590W        W34870  12.891   1.949  15.623  0.0139 -0.1187 -0.1783
14591W        W34871  15.096   8.156   4.711  0.0189  0.1148 -0.3035
14592W        W34872  12.952   2.689   2.215  0.1129 -0.3232  0.0040
14593W        W34873   0.868   4.721  13.429 -0.0409  0.0548 -0.1865
14594W        W34874  15.398   1.342  14.192  0.0974  0.0300 -0.1254
14595W        W34875  11.888   9.236   3.091  0.2511  0.1636 -0.1194
14596W        W34876   2.627   7.683  16.708 -0.2035 -0.0615 -0.0018
14597W        W34877   4.693  12.605  16.716  0.0250  0.0182 -0.2622
14598W        W34878   8.842   8.999  15.758 -0.0571 -0.0337 -0.1877
14599W        W34879   6.911   3.534   2.875  0.0476 -0.0369  0.0296
14600W        W34880  13.605   9.564   3.615 -0.3375  0.0292  0.1472
14601W        W34881   1.035   5.607  13.330 -0.1007  0.0826  0.0243
14602W        W34882  10.347   8.314   1.845 -0.1239 -0.0652  0.0531
14603W        W34883  11.727   4.429   0.556  0.0015 -0.0660 -0.1400
14604W        W34884   8.559  14.586   4.350 -0.2530  0.0123 -0.0308
14605W        W34885  10.603   9.517  13.082  0.1237  0.0335  0.6056
14606W        W34886   0.448   3.987   1.116  0.1710  0.4179 -0.0898
14607W        W34887  11.942  16.889  15.288 -0.2865  0.0592  0.1653
14608W        W34888   1.594  12.231   3.784 -0.1521 -0.1481  0.1562
14609W        W34889  14.099  10.156   0.341 -0.3417  0.0124 -0.1968
14610W        W34890   2.899   5.431  14.997  0.0187  0.0553  0.3099
14611W        W34891   9.791   5.272  12.732  0.1056  0.0227 -0.0531
14612W        W34892   9.739  16.631   1.104 -0.0714 -0.3153  0.3269
14613W        W34893   8.596  16.393   1.748 -0.0750 -0.0821  0.0586
14614W        W34894   8.670   6.636  15.248 -0.0820  0.2915 -0.0830
14615W        W34895   3.390   0.079  15.302 -0.0301  0.2588  0.1595
14616W        W34896  15.242   3.245  16.566  0.3090 -0.2478  0.1253
14617W        W34897   1.745   2.718  14.744 -0.0109 -0.0008  0.0455
14618W        W34898  17.699  15.199  14.467 -0.0296  0.0593 -0.1858
14619W        W34899  12.907  17.673   0.646  0.5105 -0.4472  0.1754
14620W        W34900   9.949   6.503   3.396 -0.1111  0.1912 -0.0019
14621W        W34901   5.648   0.291   1.316 -0.4102 -0.2560 -0.0591
14622W        W34902   7.899   4.101   0.952 -0.0096 -0.0154 -0.2440
14623W        W34903   6.574   9.330   1.464 -0.0402  0.1566 -0.1418
14624W        W34904   0.907   6.184  16.117  0.1748  0.0061  0.0531
14625W        W34905  11.135   7.546  13.279 -0.1508  0.2181  0.1854
14626W        W34906   1.803   3.139   1.301 -0.0593  0.1082 -0.1385
14627W        W34907   1.210   5.446   2.232 -0.1513 -0.0885  0.3291
14628W        W34908   0.305  12.056   1.632  0.1144  0.4411  0.2063
14629W        W34909  16.035   5.787   0.781 -0.2005  0.1185  0.0654
14630W        W34910  12.945   4.455   3.686 -0.0665 -0.4044  0.2442
14631W        W34911   1.071   2.429  15.692  0.3003 -0.0407 -0.0004
14632W        W34912  13.424   6.796  16.783 -0.1132  0.0086  0.1725
14633W        W34913  12.559  14.041  16.116 -0.2102  0.2849  0.2249
14634W        W34914   2.757  12.044  16.577 -0.1705  0.0383  0.2649
14635W        W34915   1.597   7.979  14.535 -0.0652 -0.2955 -0.4305
14636W        W34916   1.796   8.064  13.059  0.0377 -0.1813 -0.0500
14637W        W34917   1.436  17.390  14.990 -0.1393 -0.1810 -0.1598
14638W        W34918   7.711   7.096  15.924  0.1543  0.1395  0.0086
14639W        W34919   0.115  10.613  12.894  0.4067  0.2936 -0.0704
14640W        W34920   7.361  16.025   1.569  0.0157  0.1590  0.0144
14641W        W34921  10.778  14.911  15.091 -0.1878 -0.0089 -0.0628
14642W        W34922  14.400   5.394  13.814 -0.0150  0.2584 -0.0370
14643W        W34923  12.189   0.208   0.463  0.2587  0.0371 -0.3048
14644W        W34924   0.964  13.474  14.452 -0.0486  0.2763  0.1087
14645W        W34925  11.966  15.981   1.041 -0.1704  0.2918 -0.2837
14646W        W34926   4.912   0.565   1.409  0.0093  0.0048 -0.1093
14647W        W34927   1.731   3.646   1.583  0.1649 -0.2218  0.1013
14648W        W34928   5.222  15.422  12.797  0.1044 -0.0161 -0.0666
14649W        W34929   9.354  10.727   2.501  0.1914  0.0002  0.1644
14650W        W34930  11.391   7.096  15.574 -0.1501  0.2829 -0.3828
14651W        W34931   6.854  11.985   3.192  0.0276 -0.0025 -0.0066
14652W        W34932  10.420   2.496  12.885 -0.1116  0.2968 -0.2018
14653W        W34933  11.581  12.925  12.601 -0.2288 -0.0756 -0.0339
14654W        W34934  11.608  14.977  15.717 -0.2089  0.1709 -0.0070
14655W        W34935   7.707  14.571  16.209 -0.1889 -0.1769  0.0020
14656W        W34936   2.922   7.480   3.030  0.0616  0.2379 -0.4580
14657W        W34937  10.651  11.948  15.155  0.0156 -0.0346  0.2166
14658W        W34938   7.889  13.052   3.730 -0.0008  0.0733 -0.0682
14659W        W34939  10.453  15.023   0.878 -0.1403 -0.1502 -0.2537
14660W        W34940   5.296   4.552   0.498 -0.2083 -0.2928 -0.0633
14661W        W34941   5.480   3.781  14.749  0.0945  0.2123  0.1318
14662W        W34942   7.588  16.962   0.451  0.3277  0.2010 -0.0259
14663W        W34943   4.512  12.797  16.322 -0.0598 -0.2724  0.1447
14664W        W34944   0.760   8.368   2.525  0.0863  0.0867  0.1722
14665W        W34945   2.746  14.189  15.856 -0.3211  0.1073 -0.1252
14666W        W34946   1.476  11.081  15.524  0.3305 -0.1552  0.1113
14667W        W34947  16.489  17.670   3.998  0.0110 -0.1620  0.2036
14668W        W34948  14.052   4.757   4.927 -0.2057  0.1943 -0.1220
14669W        W34949  13.401  14.606   0.166  0.2655 -0.3681 -0.1826
14670W        W34950   2.686   1.736  13.034 -0.1422  0.1443  0.1784
14671W        W34951  10.549   8.971   0.398 -0.1760 -0.3017 -0.2262
14672W        W34952  16.462  10.895   4.982 -0.2828  0.2141 -0.1434
14673W        W34953   6.067  10.549   1.559 -0.0781  0.0180 -0.0391
14674W        W34954   0.287  12.610  13.645  0.0753  0.1275 -0.0433
14675W        W34955  16.286   7.938  14.823 -0.2856 -0.0857 -0.0473
14676W        W34956   1.629  15.375  12.197  0.2265  0.1340 -0.2016
14677W        W34957   5.081   9.898  15.284 -0.3728  0.0347  0.0525
14678W        W34958  15.668  14.528  15.859 -0.2976  0.0407 -0.1481
14679W        W34959  12.074   3.195  16.671 -0.1671  0.1386 -0.1476
14680W        W34960  11.484   1.739   1.062 -0.0132 -0.0874 -0.3517
14681W        W34961   7.839   6.538  12.651 -0.1128 -0.0864  0.2536
14682W        W34962  14.202  14.897  15.543  0.3098  0.0019 -0.2776
14683W        W34963  11.160  17.013  15.964  0.2966 -0.0400  0.3825
14684W        W34964   2.641   2.954  14.000 -0.3154  0.3046  0.1108
14685W        W34965   1.049  11.771  15.933  0.2176 -0.0661 -0.1711
14686W        W34966  11.145   6.919   1.598 -0.2514 -0.0530 -0.4635
14687W        W34967   4.774   1.809   3.831 -0.2653 -0.0482  0.1969
14688W        W34968  16.393  13.848   0.501 -0.0420  0.5406  0.0301
14689W        W34969   6.298   0.739  16.120  0.1147  0.2546  0.3026
14690W        W34970  14.039   0.015   2.372  0.1150 -0.1316 -0.1106
14691W        W34971   0.634   3.235  14.267 -0.0889  0.2156  0.1123
14692W        W34972  10.155   1.885  15.441 -0.0688 -0.2334 -0.1217
14693W        W34973   6.188  13.324  12.942 -0.2094 -0.0998  0.2586
14694W        W34974  11.738  16.354   2.941 -0.2390 -0.1463  0.0160
14695W        W34975  12.809   3.853  15.569 -0.1010 -0.2824  0.2621
14696W        W34976   4.318   2.801  15.317  0.0174  0.0912  0.2379
14697W        W34977  10.548  10.372   2.052  0.0395  0.0014  0.0747
14698W        W34978  16.197  10.398   4.429 -0.1476 -0.0827  0.1980
14699W        W34979   4.911   5.191   4.790 -0.2947 -0.1308 -0.0908
14700W        W34980  10.187   2.093   4.520  0.0128  0.2116  0.0014
14701W        W34981  15.849  11.198  15.307  0.1425 -0.0299 -0.2158
14702W        W34982   2.036   1.773  13.704  0.3211  0.0310 -0.1598
14703W        W34983   0.625  13.593   1.614 -0.0585  0.1128  0.1936
14704W        W34984   7.408   8.869  15.856 -0.0724 -0.1746  0.1102
14705W        W34985  10.094   4.564   0.285 -0.0737  0.0470 -0.1678
14706W        W34986   4.622   1.080   1.305  0.2160  0.0893 -0.0056
14707W        W34987  10.468  10.324   3.473  0.0169 -0.1081 -0.0722
14708W        W34988  16.589   4.675  15.554  0.0421  0.1643 -0.4465
14709W        W34989   3.564   1.488   4.775  0.2431 -0.0235 -0.3679
14710W        W34990  14.217  12.354   4.143  0.2193 -0.1270 -0.1688
14711W        W34991  12.612  15.167   4.748 -0.3743  0.0610 -0.1079
14712W        W34992   8.207  10.472  11.879 -0.0479  0.1714 -0.1547
14713W        W34993  17.251  15.280   3.078  0.0516  0.1225 -0.3293
14714W        W34994  13.721   5.682   0.079 -0.1644 -0.1181 -0.1447
14715W        W34995   7.242   4.884   3.720 -0.1538 -0.1371  0.3424
14716W        W34996  10.889   4.087   2.671  0.3232  0.1097 -0.1768
14717W        W34997  16.025  16.665   3.122  0.1333 -0.0356  0.0961
14718W        W34998   4.376  15.819  12.690  0.0469  0.0760 -0.1070
14719W        W34999  13.954  11.187  15.262  0.0496  0.1703 -0.0347
14720W        W35000  14.813   8.018  16.546  0.1085 -0.0427 -0.2836
14721W        W35001  15.189   0.842  12.415 -0.2356 -0.2142 -0.1948
14722W        W35002   7.703   8.711   3.515 -0.0842 -0.1020  0.0793
14723W        W35003   1.362   2.197   4.703 -0.0327 -0.2161  0.0011
14724W        W35004  17.234   9.036   3.512 -0.1244  0.2904  0.0024
14725W        W35005   0.248   5.378   4.094  0.1492  0.1443 -0.1223
14726W        W35006   7.353  14.349  14.717  0.1213 -0.1326  0.2083
14727W        W35007   8.097   1.477  15.542  0.2196  0.1131 -0.2281
14728W        W35008   0.809   7.702  15.858  0.4845 -0.0410 -0.0046
14729W        W35009   1.172  10.715  15.334  0.1030  0.0345 -0.0549
14730W        W35010   8.258  13.327   2.293  0.1299 -0.0380 -0.1628
14731W        W35011   7.051  10.231  12.754 -0.2353  0.1834 -0.1126
14732W        W35012  14.529   9.486   1.840  0.0064  0.1737  0.3304
14733W        W35013  14.334  13.185   4.245 -0.0930 -0.0658 -0.0006
14734W        W35014  16.951   5.430  16.687  0.5488  0.1774  0.2492
14735W        W35015   2.894   9.842   0.726 -0.0544  0.1838 -0.1224
14736W        W35016   1.082  11.344   3.231 -0.0787  0.1443  0.0889
14737W        W35017  14.710   7.716  13.280 -0.0978  0.1627  0.0201
14738W        W35018  11.185  15.494  14.958 -0.2658 -0.2192  0.4888
14739W        W35019   3.112   4.651   3.098  0.1591 -0.3355 -0.0459
14740W        W35020   0.425  10.195   0.153 -0.0080 -0.0488 -0.2113
14741W        W35021  12.015  13.165  15.327 -0.0364  0.0664 -0.3246
14742W        W35022  14.010  13.650   2.669  0.0612  0.1924  0.0052
14743W        W35023  16.030   0.657   1.945 -0.0061 -0.1633 -0.3986
14744W        W35024   5.310   9.154   3.711 -0.3221  0.1513 -0.0854
14745W        W35025   7.897   5.680   2.592 -0.2189  0.0943  0.0540
14746W        W35026   7.930   9.812  12.380 -0.0521  0.1409  0.0660
14747W        W35027   3.552   9.413  13.384 -0.1140  0.2356  0.1210
14748W        W35028   5.644   4.148  12.475 -0.1941  0.1698  0.3374
14749W        W35029  16.910  10.902  13.957 -0.1142 -0.1328  0.1782
14750W        W35030   6.441   3.788   4.571 -0.0694  0.1469  0.0337
14751W        W35031  17.390   2.361  12.696 -0.0974  0.5027 -0.4144
14752W        W35032  15.622   1.491   1.300  0.2085  0.0260 -0.2606
14753W        W35033  13.519  12.144   1.726 -0.2518 -0.0492 -0.1564
14754W        W35034   6.452  15.895  13.022  0.0302  0.0236  0.1584
14755W        W35035  16.955  11.105   0.640  0.1985 -0.1787  0.1288
14756W        W35036   7.361  15.695  13.961 -0.1451  0.1010 -0.1519
14757W        W35037  10.146   7.896  12.287 -0.1804 -0.0283 -0.0663
14758W        W35038  14.006   8.767   4.810  0.1564 -0.1419 -0.0033
14759W        W35039   7.455   5.437  14.680  0.0329 -0.1474  0.4230
14760W        W35040  12.676   1.625  11.980 -0.0234 -0.0173  0.0374
14761W        W35041   0.135  16.504  16.594  0.3105  0.0457  0.0140
14762W        W35042  15.900  15.546  14.844  0.1069  0.0320  0.0083
14763W        W35043  14.149  14.847  14.912  0.0122 -0.1085 -0.1986
14764W        W35044   8.026  11.717  12.268  0.0496 -0.2294 -0.0012
14765W        W35045   5.474  11.425  15.344 -0.1265 -0.2662  0.3067
14766W        W35046   6.233  17.167  15.735  0.1064  0.1659  0.2521
14767W        W35047  10.818   1.329  15.290  0.0223  0.1547 -0.0037
14768W        W35048   0.284  10.397   0.927  0.0089  0.0389 -0.0197
14769W        W35049   3.319   7.339   4.842  0.1347 -0.1583 -0.3767
14770W        W35050   8.159  12.605   1.885 -0.2449  0.1959  0.0538
14771W        W35051  13.721   2.045   3.428 -0.1232  0.2291 -0.1189
14772W        W35052  11.116   9.774  14.270  0.0257  0.2560 -0.0691
14773W        W35053   6.946   8.008   3.514 -0.1361 -0.1437 -0.1430
14774W        W35054   7.543   0.409  14.262  0.0058  0.2349 -0.1231
14775W        W35055  17.558   1.171  14.328 -0.0171 -0.1531 -0.0222
14776W        W35056   6.179   3.456  16.484 -0.0918 -0.0523  0.1735
14777W        W35057  16.407   1.490   4.876 -0.1686  0.0492  0.1162
14778W        W35058   9.820   0.425   1.385 -0.1128 -0.3433  0.1786
14779W        W35059  10.960   1.802   3.810  0.0498 -0.0714 -0.1714
14780W        W35060   3.958   1.541  12.591 -0.1756  0.1729  0.0279
14781W        W35061   6.819  10.438   2.381  0.0548  0.1566  0.1561
14782W        W35062   4.371  15.145   1.439  0.0622 -0.0752  0.1050
14783W        W35063   5.256  16.922   4.367 -0.3046  0.0375 -0.0206
14784W        W35064   7.161  14.757  14.981 -0.2621 -0.2715 -0.0339
14785W        W35065   3.721  11.473  16.331 -0.2013 -0.0415 -0.1252
14786W        W35066  16.324   5.473   3.790  0.0017  0.1817 -0.0615
14787W        W35067   0.264  13.828  16.715  0.1172  0.0795 -0.1841
14788W        W35068   9.477  17.409  16.842 -0.0107  0.1223 -0.2773
14789W        W35069   6.353   4.455  13.580 -0.0896  0.1479  0.1213
14790W        W35070   9.275   3.131  12.479  0.1688  0.2093 -0.0366
14791W        W35071   2.099  14.924   3.697 -0.1570  0.0629 -0.1362
14792W        W35072   3.100  15.544  13.319  0.1325 -0.0814  0.2582
14793W        W35073  11.975   3.468   4.645 -0.0322  0.1826 -0.0711
14794W        W35074  10.735   6.237   1.718  0.1307  0.2440 -0.0170
14795W        W35075  11.635   4.432  11.932  0.2477  0.1124 -0.1482
14796W        W35076  12.717   1.815   4.682  0.0581  0.0346 -0.2426
14797W        W35077  10.184   9.021  13.836  0.0966 -0.1816  0.0043
14798W        W35078  16.300  13.423  12.363  0.4372  0.0928  0.0665
14799W        W35079   5.909  16.308   0.804  0.1811  0.1729 -0.0868
14800W        W35080   5.628   4.270   3.373 -0.0876 -0.1201 -0.1385
14801W        W35081   4.841  10.798   0.599 -0.0896 -0.2296  0.1012
14802W        W35082   1.392   6.855   2.330 -0.1326  0.1078 -0.1584
14803W        W35083  16.992   3.556   0.395 -0.5202  0.1221  0.0462
14804W        W35084  17.126  12.874   0.113  0.3394 -0.2412  0.1336
14805W        W35085  17.430  13.321  15.748 -0.2468 -0.2064  0.3327
14806W        W35086  10.645  12.389   0.624 -0.1941 -0.2410 -0.0900
14807W        W35087  10.307   1.942  15.955  0.1086 -0.2211 -0.0995
14808W        W35088  15.097   8.651   0.510  0.2750  0.0393  0.1855
14809W        W35089  13.730  16.210  14.032  0.2294 -0.2196  0.3689
14810W        W35090   6.511  12.014  12.526 -0.1702  0.2723  0.0820
14811W        W35091   2.528   6.062  16.117  0.0251 -0.0547  0.1207
14812W        W35092  10.418   8.636  16.011  0.1591  0.0141  0.1399
14813W        W35093  11.185   5.275  11.745 -0.4140 -0.1452  0.0883
14814W        W35094   8.862  14.938  12.217 -0.0290  0.2234 -0.0287
14815W        W35095  15.984   0.488  13.253 -0.0535 -0.1851 -0.2451
14816W        W35096   3.130  14.160  16.473 -0.0964  0.0900  0.0529
14817W        W35097   2.401  15.403   3.928  0.4451  0.1080  0.0794
14818W        W35098  12.200  13.801   1.135  0.3094  0.3517  0.0060
14819W        W35099  17.620   5.967  15.415  0.1304  0.2124  0.1654
14820W        W35100   5.984  16.471  12.172 -0.1082  0.1869  0.0363
14821W        W35101   0.191   4.829   1.661  0.2117  0.1337 -0.1085
14822W        W35102   6.565   9.466  16.606 -0.0334  0.0365  0.0386
14823W        W35103  14.984  11.487   0.465  0.2637 -0.1860 -0.3324
14824W        W35104   5.758   4.962  16.210  0.2042  0.0080  0.1303
14825W        W35105  14.393   8.448   2.808  0.2502  0.2524  0.0390
14826W        W35106   9.960  14.576   0.384 -0.0337  0.1345  0.1249
14827W        W35107  17.396   8.146  12.544  0.2725  0.0092 -0.1612
14828W        W35108   9.073   8.621  15.481  0.3873  0.1487 -0.1624
14829W        W35109   5.744   1.204  13.259 -0.0826  0.0232  0.0894
14830W        W35110   7.381  10.291   3.321  0.1032 -0.0348 -0.2450
14831W        W35111  10.950   5.081   1.749  0.1007 -0.3468 -0.2953
14832W        W35112  16.043  14.152   4.584 -0.3440 -0.3812  0.1402
14833W        W35113  12.218  15.245  13.486 -0.0060 -0.1798 -0.1421
14834W        W35114   6.786   0.824  12.431 -0.1252  0.3587  0.2598
14835W        W35115  11.970  17.147   4.366 -0.2605  0.1244 -0.0435
14836W        W35116   6.195   6.781   1.129 -0.2720  0.1195 -0.0121
14837W        W35117  13.645   5.413  14.087 -0.1695  0.2219 -0.0384
14838W        W35118  12.239  16.810  14.404 -0.0327 -0.0840  0.0784
14839W        W35119   0.601  11.690  15.719  0.0467 -0.0700 -0.2366
14840W        W35120   1.554   9.210   2.650  0.3108  0.0783 -0.3546
14841W        W35121  10.662  15.364   1.254 -0.0831 -0.0227 -0.1752
14842W        W35122  13.742   0.570  16.788  0.3181  0.2351 -0.2076
14843W        W35123  10.507   3.701   4.183 -0.0167 -0.0926  0.2237
14844W        W35124   6.841  12.707   3.711 -0.1282  0.0228 -0.1665
14845W        W35125  16.504  10.546   1.450  0.1252 -0.1203 -0.1640
14846W        W35126   0.209   3.248  13.884  0.1060 -0.3134 -0.2066
14847W        W35127   0.156  12.940   0.192  0.2984 -0.0968 -0.2508
14848W        W35128   0.834  14.364  14.030  0.0726  0.2906  0.1191
14849W        W35129   5.161  13.750   4.971 -0.0392 -0.0391 -0.0804
14850W        W35130  14.107   2.665   4.793 -0.1813 -0.1095  0.3629
14851W        W35131   1.651  13.053   4.067  0.2494  0.0591 -0.1552
14852W        W35132  11.176  11.120   4.003  0.2579 -0.0938 -0.1134
14853W        W35133   0.967   7.621  13.001 -0.0893  0.1619  0.0104
14854W        W35134  14.791   6.808   0.262  0.2235 -0.1915 -0.1663
14855W        W35135  15.441   5.787   1.525  0.1447  0.0166  0.0295
14856W        W35136   2.594   1.942   1.950  0.2116  0.1179  0.0537
14857W        W35137  16.148   5.171  14.928 -0.2503  0.0425 -0.0249
14858W        W35138   4.876  16.588  16.609  0.1979 -0.1926 -0.2987
14859W        W35139   9.969  11.031   4.059 -0.0023 -0.2270 -0.2470
14860W        W35140   6.517  15.594   0.660 -0.0650 -0.0823  0.0352
14861W        W35141   4.469  16.325  15.599  0.0748  0.0450  0.3244
14862W        W35142  13.796   5.452  14.533  0.1923  0.0100 -0.1329
14863W        W35143   3.228   9.323   2.754 -0.2213 -0.2144 -0.0392
14864W        W35144   9.434   5.130  11.728  0.2249  0.0933 -0.1711
14865W        W35145   3.113   1.607   4.289  0.2541 -0.0521  0.0869
14866W        W35146   9.568   6.930  15.757  0.1995  0.0225  0.4021
14867W        W35147   3.256  13.783   2.288 -0.0634  0.0664  0.1550
14868W        W35148   0.132  16.635   3.694 -0.3157 -0.3432  0.0910
14869W        W35149  16.129  10.913  14.988  0.2683 -0.0760  0.1037
14870W        W35150   5.690   2.996   2.243 -0.1003  0.0006 -0.1014
14871W        W35151   3.043  10.292  12.744  0.0509 -0.0869 -0.1942
14872W        W35152   2.015  15.150   3.219 -0.1806 -0.0601  0.2044
14873W        W35153  14.639   3.389   0.201  0.2022 -0.1712  0.1097
14874W        W35154  13.252  14.461  14.031 -0.1366  0.0554 -0.0325
14875W        W35155   7.264   5.103  12.198  0.0500 -0.3014 -0.2051
14876W        W35156   9.455  15.307   2.483 -0.0985  0.2240 -0.0994
14877W        W35157  11.457   3.193  12.100  0.1338  0.0590 -0.0353
14878W        W35158   6.135   4.505   0.700 -0.0508  0.0358  0.0439
14879W        W35159   5.987   9.536   3.258  0.0120  0.3008  0.1457
14880W        W35160  16.384   8.101  16.574 -0.0251  0.2924  0.0924
14881W        W35161   2.752   2.186   2.316  0.3954  0.2855  0.2177
14882W        W35162   2.283  16.503   2.786 -0.0200  0.0853 -0.2140
14883W        W35163  16.879   2.213   3.845 -0.1758  0.3379 -0.2160
14884W        W35164   6.466   4.923  16.581  0.1721  0.1406  0.1220
14885W        W35165   3.146   1.295   1.555 -0.3756 -0.0616  0.0367
14886W        W35166   0.198  10.916   2.681  0.1275 -0.1563 -0.0523
14887W        W35167   5.204   1.492   1.668 -0.3448 -0.0189  0.0126
14888W        W35168   7.944  13.316  14.813  0.0654 -0.0441  0.0695
14889W        W35169  14.091  13.984   3.814  0.0818  0.1124  0.2485
14890W        W35170  11.909   4.113  14.373 -0.1218  0.0545 -0.1609
14891W        W35171  12.218  10.862  16.777 -0.3331 -0.3255 -0.0046
14892W        W35172  17.377   2.246   1.800 -0.1331  0.0568  0.0719
14893W        W35173  12.573   0.286  13.850  0.3358  0.3241 -0.1643
14894W        W35174  13.887  12.737  12.713 -0.0234  0.1634 -0.0309
14895W        W35175   0.663  15.169  15.795  0.0298  0.2135 -0.2958
14896W        W35176   7.946  10.192   5.393 -0.1852 -0.3460 -0.0728
14897W        W35177   9.142  11.247  16.456 -0.0917 -0.2864 -0.0763
14898W        W35178  13.217  14.397  16.688  0.1061  0.2939 -0.0782
14899W        W35179   8.907   0.100   1.986 -0.0177 -0.0262 -0.2121
14900W        W35180   0.821   0.479   1.253 -0.0322 -0.2995 -0.2760
14901W        W35181  12.385   5.711  14.616 -0.2398 -0.0206 -0.1725
14902W        W35182  11.468   4.839  16.677 -0.0795 -0.0162 -0.0718
14903W        W35183   2.416   6.843  12.371  0.2337  0.2426 -0.0944
14904W        W35184   0.517  10.840   0.998 -0.1907 -0.1868  0.1197
14905W        W35185   6.742   5.561  14.906 -0.0188  0.3457  0.1155
14906W        W35186  10.222   8.448  13.970  0.0500  0.0069 -0.1959
14907W        W35187   2.086  17.620  16.143 -0.2555  0.0546 -0.1850
14908W        W35188   8.797  13.491   0.090 -0.0720 -0.0551 -0.1555
14909W        W35189   2.740  10.650  16.371  0.0480  0.2815 -0.2181
14910W        W35190  13.546   0.719   1.723  0.0962  0.1503  0.1825
14911W        W35191  16.933  15.342   4.091  0.2255 -0.3599 -0.0524
14912W        W35192   8.326   7.335   1.005 -0.0466  0.0479 -0.1578
14913W        W35193   7.218   7.524  12.397  0.1645  0.0722 -0.0075
14914W        W35194   7.608  10.802   4.706 -0.1469  0.2160 -0.0377
14915W        W35195   3.766   6.633  15.772 -0.1724  0.1182  0.2621
14916W        W35196  10.422   7.956   1.002 -0.1255  0.0819  0.1644
14917W        W35197  11.202  15.034  12.646  0.0141  0.3286 -0.0564
14918W        W35198   1.055  16.081   2.302 -0.1707  0.1038 -0.0173
14919W        W35199  12.838  12.513   3.841  0.0245 -0.0904  0.1326
14920W        W35200  11.648   9.353   0.960  0.1201  0.1859  0.0699
14921W        W35201   1.481   6.001   4.859  0.1338 -0.0846  0.3326
14922W        W35202  16.520  14.208  12.377 -0.1107  0.0150 -0.1541
14923W        W35203  11.824   0.968   0.675  0.0875 -0.2782 -0.0899
14924W        W35204   3.354   4.630  16.028  0.1325 -0.2340 -0.0972
14925W        W35205   6.134   8.005  12.090 -0.0008 -0.0028 -0.1564
14926W        W35206  12.266   2.385  16.735 -0.0462 -0.1240 -0.0564
14927W        W35207   2.427   2.246  15.592 -0.0811  0.2288  0.1716
14928W        W35208  17.170  12.403  16.722  0.1731  0.1996  0.2275
14929W        W35209  11.632   9.907   1.467  0.0827 -0.1177 -0.2074
14930W        W35210  16.932  12.746  15.087 -0.2010 -0.1654  0.1824
14931W        W35211   1.420   5.419   3.615 -0.0130  0.0441 -0.0774
14932W        W35212   4.075   6.808  14.923  0.0559 -0.1527 -0.1397
14933W        W35213   1.644   3.689  12.157  0.0588  0.2151  0.1196
14934W        W35214   7.167   1.754  14.801 -0.2303  0.0848 -0.0319
14935W        W35215   5.059  11.317  16.812  0.1952 -0.1414  0.1354
14936W        W35216   8.796   5.482   2.545 -0.4219  0.1379  0.3103
14937W        W35217  14.002  16.366   4.297 -0.1749  0.0542  0.1897
14938W        W35218   2.334   3.357  16.362  0.3195  0.0175 -0.4102
14939W        W35219  14.686   0.834   4.636 -0.0823 -0.1938 -0.1847
14940W        W35220   3.514   8.523   4.756 -0.0533  0.1751 -0.0059
14941W        W35221   9.071  13.156   1.504 -0.5049 -0.2711  0.1360
14942W        W35222   6.568   7.458   3.053 -0.2146 -0.2500  0.1842
14943W        W35223   8.248   4.039  16.411  0.1205 -0.3384  0.1213
14944W        W35224  10.127   7.905  14.916  0.1080  0.2257 -0.2161
14945W        W35225  12.102  15.659  16.362 -0.0887 -0.1363  0.2032
14946W        W35226   1.189   4.060  14.653  0.0639 -0.2942  0.1415
14947W        W35227   4.280   6.098   3.845  0.1606 -0.0093 -0.0062
14948W        W35228   5.557  12.479   1.121 -0.2632 -0.0122 -0.4139
14949W        W35229   3.488   0.637   4.070  0.1850 -0.0723 -0.0487
14950W        W35230  12.465   5.742  12.809  0.1693 -0.1416  0.0574
14951W        W35231  11.546  17.089  13.978 -0.2313  0.3497 -0.2960
14952W        W35232   0.664   2.631  12.439  0.2628 -0.0582  0.2528
14953W        W35233   9.455   3.776  16.661  0.0189  0.0367  0.1311
14954W        W35234   2.911   4.876   3.556  0.1316  0.3417  0.1688
14955W        W35235  16.155   7.119  12.354 -0.2109  0.1801  0.1673
14956W        W35236  15.675   3.911   1.418 -0.1150  0.3117  0.0732
14957W        W35237  15.794   3.522  14.980  0.0985  0.2860  0.1397
14958W        W35238  10.597  16.580  13.590 -0.0238  0.2970 -0.0325
14959W        W35239   5.214   1.019  13.056  0.2120 -0.3869  0.0499
14960W        W35240  16.747  11.177   2.206 -0.1203  0.3290  0.1891
14961W        W35241   8.316  14.633  14.439 -0.2454  0.1070 -0.0647
14962W        W35242   2.571  15.594  13.417 -0.1112 -0.1066  0.0220
14963W        W35243  17.017   1.292  15.614 -0.0110  0.0663 -0.4558
14964W        W35244  13.033   2.641  14.790  0.3441  0.2652 -0.2946
14965W        W35245   6.900  14.211   4.063  0.0588  0.1009  0.2158
14966W        W35246  10.452   4.456  14.035 -0.3788  0.2095  0.1999
14967W        W35247  16.972   1.356   0.368  0.0379  0.1152 -0.2247
14968W        W35248   4.444   0.835   3.818  0.1762 -0.1113  0.3348
14969W        W35249   4.304  14.909  13.943 -0.2757  0.0669  0.0075
14970W        W35250   0.590   6.588  15.815  0.0646 -0.2700 -0.2685
14971W        W35251   7.818  12.252  16.226  0.2046  0.2105 -0.1112
14972W        W35252  15.162   3.870  16.803  0.3928 -0.1840  0.0878
14973W        W35253   1.900  14.040  12.275 -0.0108 -0.0670 -0.1970
14974W        W35254  14.247  11.402  16.579 -0.1062  0.2923 -0.1466
14975W        W35255   0.860   7.760   1.610  0.0523 -0.0075  0.2743
14976W        W35256  14.529   9.909   4.153  0.1561 -0.4321  0.1523
14977W        W35257   2.241   6.389  11.783  0.1087 -0.2225 -0.0570
14978W        W35258  15.821   5.053   4.808  0.0317 -0.0809 -0.1319
14979W        W35259   8.154   6.536  13.632  0.4029  0.2773  0.2628
14980W        W35260   7.078  11.822   3.941 -0.1845 -0.1962 -0.0286
14981W        W35261   6.944   2.719  16.863 -0.0576  0.2084 -0.0817
14982W        W35262  15.275   0.446   4.138 -0.0807 -0.4338 -0.0804
14983W        W35263   3.843   6.303  15.298 -0.1417 -0.1101 -0.0752
14984W        W35264   1.728  13.485  12.336 -0.0887  0.0212 -0.0174
14985W        W35265  11.586  11.909   1.374  0.0561  0.4402  0.2366
14986W        W35266  11.594  17.496   3.848 -0.3845 -0.0255  0.4183
14987W        W35267   6.410   9.636  12.196 -0.1239 -0.2775  0.1055
14988W        W35268  14.894   6.117  15.430  0.0920  0.2446  0.1673
14989W        W35269   3.431   7.857   3.136  0.0531  0.1774 -0.1787
14990W        W35270  14.998  14.512   2.028 -0.1209 -0.1114  0.1432
14991W        W35271  17.330   9.208   2.659  0.0478  0.0813 -0.0346
14992W        W35272   4.374   6.782   0.874 -0.0861  0.1705 -0.1787
14993W        W35273   7.922  14.307  13.710 -0.0239  0.0121 -0.3243
14994W        W35274  13.191   8.915   0.228 -0.3374 -0.0211  0.0378
14995W        W35275   4.240   5.019   4.806 -0.0235  0.2642 -0.1060
14996W        W35276   2.755   9.764  11.013 -0.2272 -0.2691  0.0046
14997W        W35277   9.197  10.840   5.385  0.1174  0.0182 -0.0657
14998W        W35278  11.869  14.490   3.191 -0.0083  0.0502 -0.0224
14999W        W35279   5.611   8.389   0.707  0.1898 -0.0769 -0.3882
15000W        W35280   8.793   3.775  13.985  0.1897  0.0014  0.0472
15001W        W35281  17.643   3.952   1.754  0.2021  0.0227  0.1624
15002W        W35282   7.753   4.657  14.696 -0.2627  0.2719  0.1307
15003W        W35283   6.633  15.261   5.051 -0.0219 -0.1614 -0.1955
15004W        W35284  17.346   7.145   2.726  0.0913 -0.0165 -0.0299
15005W        W35285   9.159   3.070   0.376  0.1079 -0.1318 -0.0746
15006W        W35286  11.854   1.597   3.599 -0.0043  0.1809 -0.0550
15007W        W35287  10.932   5.822   2.304  0.2397  0.2024  0.0095
15008W        W35288  10.637  15.709  15.544  0.1107  0.3117  0.1008
15009W        W35289   4.889   8.181  12.499  0.0337  0.0269 -0.0593
15010W        W35290  15.675   5.258  12.746 -0.3724  0.1647  0.2330
15011W        W35291  11.786   4.659   3.307 -0.2150 -0.0900 -0.0192
15012W        W35292   3.100  17.684  13.270  0.0949  0.1441  0.2756
15013W        W35293   1.062  13.146   3.591 -0.0661  0.2333  0.0233
15014W        W35294  16.503  13.356   4.143  0.0543  0.2327  0.1996
15015W        W35295   2.395   2.618   3.799 -0.2368 -0.1372  0.1202
15016W        W35296   9.394   9.150  13.944  0.0036  0.2430 -0.1620
15017W        W35297   5.468  14.609  15.173  0.1715  0.2266  0.2811
15018W        W35298  11.498  17.023  13.468 -0.2069 -0.1065  0.0083
15019W        W35299  17.485   0.006   2.201 -0.2896  0.0666 -0.1887
15020W        W35300   1.405  13.535   2.608 -0.1175 -0.1514 -0.0660
15021W        W35301   1.764  15.612   4.068 -0.2024  0.2579  0.1166
15022W        W35302   7.358   6.262   1.381 -0.0488 -0.3398  0.0464
15023W        W35303   9.167  12.470   1.773 -0.0480  0.2269 -0.1637
15024W        W35304   9.068  15.463  16.801  0.1210 -0.1302  0.0075
15025W        W35305   6.516   8.473   0.309 -0.1632 -0.0509  0.0782
15026W        W35306  14.788   5.478   0.927  0.3172  0.1159  0.0406
15027W        W35307  14.856  13.974   1.242  0.3725 -0.0402 -0.0265
15028W        W35308  12.626   3.434   1.399  0.0688  0.1325  0.1206
15029W        W35309  10.532   3.932  14.311 -0.2289 -0.0970 -0.0028
15030W        W35310   0.745   9.462   2.146  0.0797 -0.3131 -0.0044
15031W        W35311  11.287  13.200  14.103 -0.2062  0.0216 -0.0958
15032W        W35312  11.427   5.055  10.761 -0.2618  0.0784  0.4584
15033W        W35313  14.148   7.738  15.640 -0.0604 -0.1083  0.1186
15034W        W35314   5.461   1.992  16.320 -0.4931 -0.1837  0.1677
15035W        W35315   6.098   0.796  14.741  0.0673 -0.1268 -0.0882
15036W        W35316   6.913  14.550  14.527 -0.0314  0.4624 -0.0787
15037W        W35317  10.636  11.522   1.503 -0.0054 -0.0994  0.2174
15038W        W35318  12.291   2.062   4.798 -0.0032 -0.0276  0.0042
15039W        W35319   9.877   8.229  12.639 -0.2098  0.0191 -0.1597
15040W        W35320   6.286   4.290   1.337  0.1806 -0.1658  0.0740
15041W        W35321  13.752  16.582  12.410 -0.0906  0.1548  0.0564
15042W        W35322  10.713   9.507   3.602  0.0213  0.0043  0.0265
15043W        W35323   0.851  15.080  16.273 -0.1531 -0.0421 -0.3266
15044W        W35324  15.550   9.362  15.677  0.0474 -0.0321 -0.1557
15045W        W35325   5.126   1.172  15.255 -0.1150  0.3406 -0.1178
15046W        W35326   8.866   9.516  16.691  0.3256  0.1491 -0.1465
15047W        W35327   5.583   4.662  14.732  0.2354 -0.1233 -0.0007
15048W        W35328   5.806   2.396  12.889  0.1139  0.0714  0.0942
15049W        W35329   9.411   4.899  13.063  0.0845 -0.1014 -0.3989
15050W        W35330   0.447  17.680   2.755 -0.3824  0.1870 -0.1962
15051W        W35331   7.844   9.047   1.711  0.0030  0.0471 -0.3823
15052W        W35332   4.845   5.303  15.250  0.2316  0.0931  0.2036
15053W        W35333   2.252   2.019  16.513  0.0654  0.0772  0.1486
15054W        W35334   8.851   8.059   3.496  0.1225 -0.3710  0.0626
15055W        W35335  16.747   8.718  16.744 -0.1850 -0.0723 -0.1265
15056W        W35336  13.184   3.898   3.671 -0.0728 -0.0031  0.0845
15057W        W35337  16.287  11.379  15.047 -0.0748  0.2087 -0.0068
15058W        W35338   8.656   6.974  14.791 -0.2266  0.3049  0.0967
15059W        W35339  15.499   2.329  14.576  0.0801 -0.0274 -0.0771
15060W        W35340   5.649  17.242  14.352 -0.1003  0.0342 -0.1006
15061W        W35341  16.550   2.966   0.221 -0.0213 -0.0007  0.0813
15062W        W35342   6.159  11.911   0.561  0.1246 -0.0354 -0.1377
15063W        W35343  17.055   6.953  13.018 -0.1398  0.2235 -0.0570
15064W        W35344   4.145  14.908   1.957  0.0045 -0.0965  0.2755
15065W        W35345   6.323   7.341  13.403 -0.2054  0.3721 -0.0156
15066W        W35346   1.779   3.083  11.162  0.0242  0.2520  0.3401
15067W        W35347   0.483  16.197  15.917  0.2408 -0.4514  0.2353
15068W        W35348  10.854   1.598   3.317  0.3606 -0.0975  0.0762
15069W        W35349   3.093   4.595   2.250  0.3617 -0.3600 -0.1634
15070W        W35350   4.061   4.873  15.730 -0.0421  0.1097  0.0007
15071W        W35351  14.512   9.160  14.518 -0.0635 -0.0638 -0.2484
15072W        W35352  13.755   3.398  14.481 -0.0601 -0.0008 -0.0053
15073W        W35353   8.166   7.816  15.506 -0.2032 -0.0186  0.0255
15074W        W35354   0.701   5.363   4.235 -0.0385  0.0180 -0.2896
15075W        W35355  16.559   9.190  14.026  0.2333 -0.3947 -0.1290
15076W        W35356   3.501  16.614  16.851 -0.4915  0.4512 -0.2585
15077W        W35357   8.930  14.811  15.270 -0.0760 -0.1135 -0.0251
15078W        W35358   6.551   3.982  12.710  0.1916  0.0315  0.3184
15079W        W35359   2.143  10.138  13.050  0.0715 -0.1191  0.0635
15080W        W35360  12.224   3.083  15.370 -0.0201 -0.2054 -0.2189
15081W        W35361   8.104  13.590  13.644  0.1282  0.0353  0.1695
15082W        W35362   5.604   6.492   1.955  0.1073  0.0351 -0.1158
15083W        W35363  14.000   6.164  16.343  0.1386  0.2127  0.1520
15084W        W35364   5.742   1.972   3.233 -0.2771 -0.0596  0.0380
15085W        W35365   5.022  15.024  15.816  0.0470  0.1373 -0.0442
15086W        W35366  14.974   0.398  15.168 -0.1922  0.1507  0.4268
15087W        W35367  16.248   0.946  16.254  0.0264  0.0774 -0.1026
15088W        W35368  17.293  14.364   3.449  0.1644 -0.2921  0.1704
15089W        W35369   1.344   4.703   4.379 -0.1652 -0.2106  0.0467
15090W        W35370   2.603   3.017   0.124 -0.0634  0.1863 -0.2798
15091W        W35371   2.704  14.575   3.091  0.0535 -0.1574  0.0499
15092W        W35372  11.694  15.123   3.473  0.1670  0.0946 -0.3284
15093W        W35373  15.227   5.161  12.942  0.2034  0.0278 -0.0851
15094W        W35374   4.934   1.769   4.331  0.2523  0.0702 -0.4613
15095W        W35375   0.392   3.238   3.275 -0.4262 -0.1031 -0.0036
15096W        W35376  15.464  12.680   1.313 -0.0853  0.2334 -0.3134
15097W        W35377  14.423  13.907  15.349  0.1090  0.1018  0.0206
15098W        W35378  15.236  12.552   3.186  0.2689 -0.2116 -0.2642
15099W        W35379   3.133   0.011  12.347  0.0029  0.0285 -0.0866
15100W        W35380   6.757  11.057  14.772  0.0618 -0.0031 -0.1120
15101W        W35381   2.402   6.925   0.371 -0.0880  0.2187  0.3810
15102W        W35382   0.844   1.087  14.640 -0.0238  0.2489  0.3690
15103W        W35383  14.451  12.104  15.471  0.1518  0.2905  0.0165
15104W        W35384  13.593   6.932  15.205 -0.3194  0.0307  0.0258
15105W        W35385   5.099  15.201   2.901 -0.0592  0.0810  0.0911
15106W        W35386  11.449   2.710   4.307  0.0534 -0.1012  0.1358
15107W        W35387  15.326  11.931   5.024 -0.0136  0.2782 -0.0374
15108W        W35388   1.032  13.119   0.326 -0.1028  0.0095  0.0695
15109W        W35389  10.173  16.018   3.489 -0.2405 -0.1056  0.1737
15110W        W35390   1.374   4.169   0.882  0.1292 -0.1312 -0.1794
15111W        W35391  12.578  10.675   4.273 -0.1362  0.0588  0.0182
15112W        W35392  10.808  12.512  16.512 -0.0185  0.3377 -0.1556
15113W        W35393   1.276  15.736   1.961 -0.1813 -0.1547 -0.1863
15114W        W35394   2.523  13.624   4.061  0.4029 -0.0489 -0.1732
15115W        W35395   8.561   9.935  14.761 -0.0310 -0.1130  0.1009
15116W        W35396   3.156   2.448   2.185 -0.1270 -0.2248  0.0760
15117W        W35397   0.969   9.575   0.956  0.1268 -0.1669 -0.0736
15118W        W35398  17.648  13.988   3.386  0.0263 -0.0710  0.3319
15119W        W35399  11.393   3.290   1.154 -0.2185  0.1376  0.1354
15120W        W35400  17.511   4.226  16.129 -0.0072 -0.0687  0.0991
15121W        W35401  11.309   8.613   0.028  0.0692 -0.2002  0.0934
15122W        W35402  13.709   1.753  13.230  0.0949 -0.0899 -0.0859
15123W        W35403   7.851  11.030   5.817 -0.3926  0.3307  0.0100
15124W        W35404  11.488   1.328  15.792  0.1508 -0.3042  0.0797
15125W        W35405   7.851  11.504  16.847 -0.0161  0.0058 -0.1185
15126W        W35406   7.947  16.660  14.285 -0.1675  0.0525  0.0414
15127W        W35407   0.111   4.644   3.503 -0.0199  0.0480 -0.1480
15128W        W35408  12.162  14.215   0.822  0.0221 -0.0276 -0.3040
15129W        W35409   9.848   8.123  15.352  0.0136 -0.0443  0.0502
15130W        W35410   0.139  17.588  13.923 -0.2740 -0.2396  0.2915
15131W        W35411   0.596  13.397  13.604  0.0504 -0.1646 -0.0303
15132W        W35412  17.091   3.035   2.708  0.0183  0.0546 -0.0868
15133W        W35413   2.721   6.639  16.338  0.4504 -0.2297  0.2787
15134W        W35414   7.581  14.877   3.875  0.3211  0.0738 -0.1405
15135W        W35415   5.266  15.057  16.283  0.1383 -0.1210  0.0558
15136W        W35416   2.863  15.441  13.804 -0.2203 -0.1134 -0.1228
15137W        W35417   7.557  12.191   0.732  0.0964 -0.0394  0.1292
15138W        W35418  15.036   2.185   4.953  0.1438  0.1096  0.3694
15139W        W35419   3.093  12.066  13.426  0.1461  0.2460 -0.2136
15140W        W35420   0.750  16.066   0.449  0.0097  0.2259 -0.0565
15141W        W35421  13.168   3.436   1.376  0.1881  0.1375  0.2102
15142W        W35422   4.132   7.287   0.706 -0.3154 -0.3835  0.2586
15143W        W35423   3.145   3.471  16.060  0.1355 -0.0904  0.1002
15144W        W35424  12.538   0.951   0.478  0.0620 -0.0855 -0.1304
15145W        W35425   8.654   5.641  12.945 -0.0343 -0.2947  0.0376
15146W        W35426   1.684  13.588  16.710 -0.1139 -0.1495 -0.2016
15147W        W35427   7.482  16.369   2.737 -0.0527  0.1919 -0.1483
15148W        W35428   4.604   5.955   2.661 -0.1707 -0.0414 -0.0203
15149W        W35429  11.742   5.464   1.909  0.2309 -0.1037  0.2170
15150W        W35430   1.637  11.803  15.993  0.2398 -0.2184 -0.0946
15151W        W35431   6.617   2.662  12.620  0.1109  0.1107 -0.0006
15152W        W35432   9.598   8.299  16.156 -0.3054  0.2827 -0.4725
15153W        W35433   6.585  16.243   3.850  0.1858  0.0213 -0.1969
15154W        W35434   7.963   0.568   0.356  0.1539 -0.0374 -0.0244
15155W        W35435   5.944  13.358  16.549 -0.0079  0.2230  0.2848
15156W        W35436   0.455  15.539  14.448 -0.0863  0.3280  0.0708
15157W        W35437   6.477  17.247  13.142  0.0064  0.2335  0.2155
15158W        W35438   5.516   4.689   1.397  0.0076  0.1097  0.2251
15159W        W35439   6.158  16.758   3.112  0.1414 -0.0429  0.1848
15160W        W35440   2.500  15.146   2.946 -0.1164  0.1653 -0.3710
15161W        W35441  11.017  13.324   3.531 -0.2571 -0.3904  0.3974
15162W        W35442   1.339  16.954  15.823  0.0782  0.0197  0.1403
15163W        W35443  17.059   4.976  16.488  0.2100 -0.0004  0.0386
15164W        W35444  10.393  16.209  15.647 -0.1659 -0.0191  0.0075
15165W        W35445   4.769   5.754   1.398 -0.4007 -0.1937  0.2512
15166W        W35446   9.679   6.088  12.360 -0.3205 -0.1155  0.1302
15167W        W35447   0.291  12.576   3.522 -0.0087 -0.1780  0.0427
15168W        W35448  10.314   2.465  11.873 -0.0707 -0.0685  0.0129
15169W        W35449  13.257   9.954   0.716  0.1862  0.0644 -0.0880
15170W        W35450   5.187   1.869   4.742  0.0319  0.3272  0.3059
15171W        W35451   0.389   9.448  14.383  0.3388  0.1521  0.0694
15172W        W35452   4.259  12.622   0.839 -0.0891 -0.0334  0.0414
15173W        W35453  16.425  14.220  14.854 -0.0599  0.3801  0.0764
15174W        W35454  16.624  12.871   2.884  0.0802  0.1148  0.1746
15175W        W35455  10.773  11.350   4.953 -0.3591  0.1954 -0.0246
15176W        W35456   0.208   4.138   4.642 -0.1262  0.1044  0.0942
15177W        W35457   4.652  13.892   1.698  0.1168 -0.2416  0.0654
15178W        W35458  11.098   2.333   4.287 -0.3534 -0.1544  0.1235
15179W        W35459  13.082   3.916  12.451 -0.0170  0.1282  0.0258
15180W        W35460   2.049  17.157   3.916  0.0750  0.2490 -0.2029
15181W        W35461   5.304   3.384  11.929  0.0515 -0.1305  0.1201
15182W        W35462   7.376   4.422  13.415 -0.1080 -0.1735  0.1965
15183W        W35463  10.528  14.145  15.083 -0.0982 -0.2113 -0.1542
15184W        W35464   3.335  14.142   0.107  0.2098 -0.0682  0.2066
15185W        W35465   6.233   8.370   2.478 -0.2572  0.0160  0.0819
15186W        W35466   9.561  16.129   1.194 -0.1468  0.0833 -0.1350
15187W        W35467  12.687   4.704   0.217 -0.0375  0.0737 -0.2086
15188W        W35468   5.110   7.569  13.672 -0.3869 -0.0118  0.1169
15189W        W35469  13.076  10.312  13.010  0.0378  0.0889 -0.1879
15190W        W35470   8.108   5.522   4.179 -0.0550  0.0159  0.2652
15191W        W35471  10.398   4.078   2.432 -0.0746  0.0337  0.0753
15192W        W35472   8.746  14.631  14.746 -0.1070  0.1398  0.1690
15193W        W35473   9.791  17.244  16.401  0.2765 -0.1669  0.3880
15194W        W35474  13.898   0.879  15.395 -0.3852 -0.1062 -0.3299
15195W        W35475   4.332  13.732  12.859  0.1277  0.3691 -0.0252
15196W        W35476  14.511  11.375  14.454 -0.3080 -0.0517  0.0132
15197W        W35477  11.737   7.810   0.032  0.4217 -0.0773  0.0687
15198W        W35478   9.742   5.747  15.623 -0.0481  0.3807  0.2625
15199W        W35479   6.423   3.515  15.546 -0.0149  0.0083  0.3881
15200W        W35480   7.246  14.600   3.013  0.3291  0.1029 -0.1818
15201W        W35481   7.298   7.253   0.104 -0.2592 -0.0665  0.1173
15202W        W35482   9.698   9.483  16.094  0.1258 -0.0728 -0.3120
15203W        W35483  11.579   2.358  14.281  0.0174 -0.1144 -0.2474
15204W        W35484   6.657  10.826  16.004 -0.2119 -0.0997  0.0613
15205W        W35485   3.788   5.167   3.967  0.1812 -0.0500  0.0580
15206W        W35486   0.335   9.200  16.857 -0.3950 -0.1556  0.1866
15207W        W35487   7.552   2.509  12.424 -0.0508  0.1000  0.0649
15208W        W35488   0.707   2.517  16.530 -0.2760 -0.1533 -0.2066
15209W        W35489  10.175  13.020   2.569  0.0326 -0.1035  0.1024
15210W        W35490   4.468  16.135  13.695 -0.3786 -0.0561 -0.0994
15211W        W35491   9.804  15.099  15.436 -0.0103 -0.1179  0.1986
15212W        W35492   7.338   2.465   3.567 -0.0967 -0.0004  0.2098
15213W        W35493   2.957   2.138   1.031 -0.2016 -0.0584  0.0491
15214W        W35494   2.422  13.236   4.426 -0.0297 -0.0505  0.2395
15215W        W35495  12.829  15.869   0.251  0.0028 -0.1398  0.0733
15216W        W35496   6.238   2.688   4.284  0.0133 -0.2487 -0.3555
15217W        W35497   4.889   1.732   2.086 -0.2075  0.2185 -0.1364
15218W        W35498  16.367   4.251  13.168 -0.0311 -0.1434  0.1035
15219W        W35499  16.002  12.283  16.365 -0.1949 -0.2482 -0.2480
15220W        W35500  13.359  16.724  16.236 -0.2685 -0.1853 -0.1291
15221W        W35501   6.899   0.731   4.046  0.0858  0.1454  0.1826
15222W        W35502   2.905   0.451   5.280  0.0062 -0.0337  0.0256
15223W        W35503  13.540   5.528   3.224 -0.1968 -0.1946  0.2159
15224W        W35504   7.272   7.817   0.258 -0.0560  0.0738  0.0474
15225W        W35505  15.759  15.077   3.881  0.1335  0.0147  0.0765
15226W        W35506   9.351  17.654   3.186  0.1202 -0.1254 -0.2386
15227W        W35507  15.386   6.482  14.477 -0.0543  0.0296 -0.0169
15228W        W35508  13.543   9.663  12.347 -0.2106 -0.2018  0.0176
15229W        W35509   2.562   9.565  15.482 -0.1904  0.3929  0.1247
15230W        W35510   2.509  11.123  15.179 -0.2690  0.7316 -0.1561
15231W        W35511   4.401   6.903  12.816 -0.2743 -0.1848 -0.2152
15232W        W35512  11.929   6.005   4.027  0.0057  0.0900 -0.1464
15233W        W35513   9.192  14.996  11.824  0.1001 -0.1256  0.2482
15234W        W35514  11.158  15.368   0.631 -0.3195 -0.0583  0.3083
15235W        W35515   6.298   2.859   0.797 -0.0054 -0.2603  0.0713
15236W        W35516  10.226   7.914  12.768 -0.0302  0.2076  0.3688
15237W        W35517   3.677  13.608   0.043  0.3025  0.0685  0.0926
15238W        W35518  16.915   9.303   3.021 -0.1864  0.0853 -0.0612
15239W        W35519   3.371  15.821   2.985 -0.2981 -0.4140  0.0314
15240W        W35520   2.666  12.629   2.843  0.0406 -0.0216  0.0371
15241W        W35521  11.601  10.476   3.324 -0.1434 -0.0942 -0.2707
15242W        W35522   2.249  11.093  12.534 -0.1782 -0.2769 -0.2603
15243W        W35523   0.021  17.452  15.291  0.2098 -0.1286 -0.2364
15244W        W35524   8.520   0.185   3.242 -0.0309  0.2046 -0.1084
15245W        W35525   3.748  14.527   2.125 -0.0727  0.1691 -0.0281
15246W        W35526   7.548  13.523   2.894  0.1807  0.0003  0.2534
15247W        W35527   9.552  12.763   0.398  0.2350 -0.1296 -0.1533
15248W        W35528  11.605   2.700   5.249  0.0973  0.2367 -0.3131
15249W        W35529   5.328   8.403   4.183 -0.0268 -0.1821 -0.1493
15250W        W35530  10.892   6.937  14.709 -0.0308  0.1074 -0.1006
15251W        W35531   8.455   0.843  16.499  0.1284  0.1910 -0.2194
15252W        W35532  16.833  10.457  16.705 -0.1107 -0.1485  0.0900
15253W        W35533  17.447  13.920  14.895 -0.2179 -0.1925  0.1261
15254W        W35534   0.679   9.765   3.625 -0.2753 -0.1962  0.3609
15255W        W35535   5.082   7.481  12.756 -0.1610 -0.0654  0.1001
15256W        W35536  12.680  12.957  15.120 -0.0176  0.0046  0.1306
15257W        W35537  11.039  16.811   0.376 -0.0980  0.2127 -0.1265
15258W        W35538  15.865  14.804  12.438  0.0632  0.1138 -0.1334
15259W        W35539  10.559   9.753   4.790 -0.0565  0.1037 -0.0530
15260W        W35540   1.453   7.745  12.836 -0.1401  0.0608 -0.1856
15261W        W35541   8.787  15.060   0.290  0.1025 -0.1241  0.2234
15262W        W35542   9.739   7.957  16.520 -0.0126  0.0846  0.0734
15263W        W35543   0.056  17.579   1.785 -0.3740 -0.1184 -0.1256
15264W        W35544   4.194   6.669   2.315 -0.2584  0.1056  0.1109
15265W        W35545   1.530   8.595   3.331 -0.1240  0.2044  0.1748
15266W        W35546  12.278  12.447  16.364  0.1270  0.2492  0.1156
15267W        W35547   6.758   8.373  12.486 -0.0753 -0.1316  0.1911
15268W        W35548   0.857   1.200  15.661  0.3253  0.0026 -0.2950
15269W        W35549  11.126   2.168  11.979  0.0736 -0.2778 -0.2850
15270W        W35550   2.078   4.321   2.477 -0.1849  0.2022 -0.4363
15271W        W35551   0.767  17.298  14.381  0.2349 -0.0170  0.3480
15272W        W35552  10.416  13.712  12.087  0.2022 -0.0459  0.2826
15273W        W35553   5.636   3.823   1.678 -0.0610  0.1507 -0.0161
15274W        W35554   3.999   0.695   4.806 -0.0647 -0.0540 -0.0205
15275W        W35555   6.195   9.030  13.426  0.0977  0.0552 -0.2793
15276W        W35556  16.854   4.838  16.000  0.1930 -0.2236  0.1810
15277W        W35557   8.915   1.546  12.868 -0.1343  0.1941  0.0609
15278W        W35558  12.269  10.095   2.819  0.1537 -0.1541  0.1733
15279W        W35559  11.978   7.781   1.436  0.0177  0.2457 -0.2385
15280W        W35560  10.033  10.721  16.151 -0.2146 -0.0903 -0.2453
15281W        W35561  11.061  15.468  13.999 -0.0772 -0.0996 -0.0359
15282W        W35562   2.064  15.309   1.213 -0.2443 -0.0547  0.1180
15283W        W35563   3.348   6.886  15.708 -0.0933  0.1015 -0.0502
15284W        W35564  10.376  10.592   0.106 -0.1246 -0.3515 -0.0995
15285W        W35565   4.430   9.892  16.785  0.1501  0.4736 -0.2979
15286W        W35566  13.173  14.358   1.479  0.1950  0.2348 -0.0981
15287W        W35567  10.967   5.339   1.238  0.1285 -0.3641 -0.2408
15288W        W35568  10.133   9.838  13.979  0.2538  0.2732 -0.1051
15289W        W35569   2.494   4.839   0.860 -0.1396 -0.0072 -0.1152
15290W        W35570   2.508  11.459  14.810 -0.1051  0.0390  0.0497
15291W        W35571  11.651   4.769   4.254  0.0961  0.1753 -0.0600
15292W        W35572   2.876  13.762  15.250  0.1507  0.4082 -0.0011
15293W        W35573   1.484   3.288  14.195 -0.3352  0.2456 -0.0195
15294W        W35574   5.969  14.829   3.292 -0.0903 -0.0071 -0.2764
15295W        W35575   3.760   7.332   1.009 -0.1851  0.0043  0.0736
15296W        W35576   2.468  15.577   2.120  0.1544 -0.3761 -0.1639
15297W        W35577  13.246  17.428  14.267  0.2308 -0.0765 -0.1181
15298W        W35578   4.735   3.317   5.146 -0.0651  0.3860 -0.2127
15299W        W35579   5.499  12.263  14.639  0.2900 -0.0291  0.1283
15300W        W35580  10.456   0.316   1.212  0.1215  0.4339  0.0095
15301W        W35581  16.962   1.484   1.996  0.0642 -0.2013  0.0782
15302W        W35582  13.282   3.082   4.975 -0.1076  0.0382 -0.1680
15303W        W35583  11.041   1.919   4.913  0.0309  0.1343 -0.0272
15304W        W35584   0.675   1.310  12.369 -0.1681 -0.2358 -0.1428
15305W        W35585   3.614   0.311  11.724  0.0746 -0.2841 -0.2561
15306W        W35586  13.310   2.343   3.489 -0.1454 -0.1792  0.0411
15307W        W35587   4.270   8.191  15.837 -0.0874  0.0675  0.1602
15308W        W35588   8.509  16.077   0.076 -0.0581  0.0338 -0.0123
15309W        W35589   8.601  11.075  15.783 -0.2623  0.0685 -0.0997
15310W        W35590  10.220   3.922  13.861  0.1530  0.2037 -0.0911
15311W        W35591  13.555   5.653   4.258  0.0137  0.0882  0.0803
15312W        W35592  13.892   4.054   1.483  0.0165  0.1910  0.0543
15313W        W35593  12.657   7.167  12.314 -0.2041 -0.2602 -0.0946
15314W        W35594   3.020   0.451  15.943  0.0840 -0.0495 -0.1018
15315W        W35595  13.253   0.647   4.272 -0.1095 -0.0535 -0.2081
15316W        W35596   0.893   9.674   4.198 -0.4218 -0.1087  0.0669
15317W        W35597   2.516  11.902   1.636  0.3564  0.0148  0.1831
15318W        W35598  16.432  14.819   1.221 -0.0818  0.0949  0.1939
15319W        W35599  12.765   2.014   3.453  0.1858  0.0912 -0.1125
15320W        W35600  16.421  16.765   3.469  0.1179 -0.1549  0.1476
15321W        W35601  10.854  16.290  13.900  0.1715 -0.1747 -0.0084
15322W        W35602  13.044   6.080  15.164 -0.1437  0.2843  0.1105
15323W        W35603   5.797   2.981   0.921 -0.2561 -0.0050 -0.0667
15324W        W35604  15.119  15.425   1.512  0.3125 -0.1296  0.0635
15325W        W35605   2.131   5.086  14.768  0.1166 -0.0511 -0.0072
15326W        W35606  14.406  11.904   4.190 -0.1474  0.1734  0.2523
15327W        W35607   7.994   7.063  13.618 -0.1162  0.3563  0.2300
15328W        W35608   1.053  14.792  12.918 -0.0348 -0.0404 -0.0175
15329W        W35609  14.345   1.782   1.940  0.1114  0.1507  0.1843
15330W        W35610   5.942  12.706   4.259  0.0149 -0.0379  0.2725
15331W        W35611  11.412   7.377   0.036  0.0346 -0.0219  0.0911
15332W        W35612  16.258   4.916  14.418  0.0982 -0.0433 -0.1182
15333W        W35613  12.096  15.181   0.375 -0.3331  0.1188 -0.0814
15334W        W35614   0.955  16.259  15.674 -0.1607  0.0289  0.1466
15335W        W35615   3.466  16.907  14.299 -0.1812 -0.3248 -0.0656
15336W        W35616   7.263   0.728  12.642  0.1520 -0.1306 -0.2357
15337W        W35617   1.825   4.416  12.556 -0.0728 -0.1784  0.0407
15338W        W35618   5.627   8.406   1.704 -0.0325  0.3590  0.0550
15339W        W35619   0.434  14.635   1.240  0.2991 -0.0320 -0.1708
15340W        W35620  13.153   4.484  13.697  0.0030  0.2753 -0.3256
15341W        W35621   4.408  14.554  16.213  0.0601  0.0099  0.2249
15342W        W35622   4.254   8.613  15.484 -0.1288  0.0570 -0.3273
15343W        W35623   6.805  14.414   1.565  0.1440 -0.1625 -0.0478
15344W        W35624  14.918  11.245  14.225 -0.0097  0.2912 -0.2779
15345W        W35625  11.008   4.897  12.467  0.2242  0.2652 -0.0097
15346W        W35626   1.149   6.778  12.605  0.2339 -0.0753  0.1242
15347W        W35627  15.689   6.458  14.035 -0.0904 -0.0802  0.1966
15348W        W35628   0.331  11.557   4.242  0.3425  0.0667 -0.0233
15349W        W35629   9.747  13.304   2.123  0.0624  0.1167 -0.2546
15350W        W35630   2.794  14.452   3.579  0.1457  0.0572 -0.1776
15351W        W35631  15.942   8.837   2.872  0.0464 -0.0191  0.0881
15352W        W35632   2.807   1.913  16.362  0.0339 -0.1369 -0.0200
15353W        W35633   1.909  13.895  15.782 -0.2389 -0.1159 -0.0761
15354W        W35634  17.411   8.520   3.527 -0.1981 -0.0758  0.0157
15355W        W35635  16.591   7.918   4.254 -0.0114 -0.1218 -0.1594
15356W        W35636  10.300  11.969  14.190  0.0798 -0.3184  0.0953
15357W        W35637  11.944  13.327  14.766  0.1035 -0.0251  0.0659
15358W        W35638  11.018  13.204   2.631 -0.0532  0.1151 -0.1314
15359W        W35639   8.074   6.027  14.546  0.2566 -0.0275  0.2180
15360W        W35640   9.536  13.843  12.177 -0.0716 -0.3211 -0.1169
15361W        W35641   8.659  15.197  13.690 -0.2149  0.2495  0.2319
15362W        W35642   1.012   0.198   3.982 -0.0916  0.3218  0.1855
15363W        W35643   5.727   5.611  14.485 -0.0639  0.1430 -0.0441
15364W        W35644  12.901  13.494   2.450 -0.0717  0.0464 -0.0928
15365W        W35645  15.217  16.622   3.010  0.1462 -0.2812 -0.1214
15366W        W35646   4.629   6.555  14.092  0.0927 -0.0919  0.1197
15367W        W35647  12.553  16.036  12.615  0.0332 -0.0914  0.1267
15368W        W35648   2.317   7.916  14.225  0.0413  0.1753 -0.0264
15369W        W35649  12.140  10.587  16.202 -0.2417  0.0743  0.0505
15370W        W35650   1.988   1.700   2.597  0.0155  0.0289 -0.0584
15371W        W35651   1.035   7.194   4.631  0.0184  0.1998 -0.0410
15372W        W35652   5.149   4.001   4.927  0.0953  0.0685 -0.2788
15373W        W35653   4.377  10.766   4.208 -0.0788  0.1282  0.0850
15374W        W35654  14.098  13.586  14.197 -0.0097  0.1731  0.0616
15375W        W35655  13.174   0.275  14.189  0.4055 -0.0329  0.2749
15376W        W35656   9.583  13.813   1.991 -0.0140 -0.4572 -0.1816
15377W        W35657   1.264   0.427   3.491 -0.0137 -0.2943 -0.1163
15378W        W35658  13.490   2.837  14.873 -0.1388  0.1086  0.0625
15379W        W35659  17.233   6.748  12.140 -0.0456  0.0519 -0.0547
15380W        W35660  15.509  11.545  13.251  0.1450 -0.0570  0.2903
15381W        W35661  14.289  10.742   4.699  0.6025 -0.4034  0.0439
15382W        W35662   4.615  13.448   1.170 -0.3324  0.0552  0.0332
15383W        W35663  10.376   2.633  12.430 -0.2238  0.2064 -0.1016
15384W        W35664   1.332  13.331   0.701 -0.0866 -0.0191 -0.2365
15385W        W35665   0.645   7.542   0.354 -0.2435 -0.1379 -0.2908
15386W        W35666  15.165  13.663   4.417 -0.0209 -0.0933  0.1121
15387W        W35667  13.997   0.438  13.637 -0.1161 -0.0672 -0.1107
15388W        W35668  13.117   9.487   2.119 -0.0413  0.0011  0.1219
15389W        W35669   5.955   4.947  14.198 -0.2221 -0.0622 -0.3755
15390W        W35670  10.465  15.031  16.787 -0.0777  0.2293  0.0910
15391W        W35671  13.164   0.555  14.663 -0.1739  0.0001 -0.0199
15392W        W35672  17.141  12.736   3.015 -0.0482 -0.1329  0.0018
15393W        W35673   2.074   3.911   4.063  0.0694  0.0967  0.1419
15394W        W35674   7.773   1.010   0.499  0.2450  0.2379  0.3500
15395W        W35675  15.074   2.302  14.299 -0.1290 -0.0235 -0.0117
15396W        W35676   7.519   5.437   2.418 -0.3441  0.1101 -0.1367
15397W        W35677   3.136   8.520   3.047  0.0856  0.1723  0.1656
15398W        W35678  14.760   1.132  12.290 -0.2884 -0.1887  0.2232
15399W        W35679   9.401   0.408  14.799 -0.0870  0.0172 -0.0797
15400W        W35680   2.966   5.433  15.511 -0.1943 -0.0265 -0.1080
15401W        W35681   6.153   4.373  15.021 -0.0003  0.1264  0.0021
15402W        W35682   7.427   9.249  16.594  0.2608  0.0045  0.0236
15403W        W35683   7.454  11.132  12.460 -0.0580 -0.2274 -0.3009
15404W        W35684  17.319   4.457   3.487 -0.0131  0.0923  0.2759
15405W        W35685   9.040  16.199   1.666 -0.3189  0.3395 -0.0840
15406W        W35686   2.855   5.701   4.750  0.1011 -0.2758  0.0196
15407W        W35687  15.995   1.342  15.455  0.0938 -0.0763 -0.2124
15408W        W35688  15.424   8.290  14.953  0.1167  0.1029 -0.2697
15409W        W35689  17.234  10.899  14.364 -0.0020  0.0571  0.5648
15410W        W35690   3.124   5.766  13.312 -0.0006  0.3266 -0.0222
15411W        W35691   4.795   6.044   3.124 -0.1803 -0.1155 -0.1441
15412W        W35692  12.507  16.816   1.523  0.1710  0.2351 -0.1143
15413W        W35693  10.597   8.179  14.806  0.0426  0.0607 -0.0121
15414W        W35694   6.051   5.170   3.252  0.0365 -0.1524 -0.0995
15415W        W35695  12.350   6.555  14.028  0.1947 -0.0304 -0.0003
15416W        W35696   1.896  14.517   4.225 -0.0718 -0.0794 -0.1752
15417W        W35697  13.724  11.404   4.081  0.4225  0.2980 -0.0636
15418W        W35698   6.380  10.885  12.342  0.1152 -0.1074 -0.1147
15419W        W35699  12.408   5.769   0.149  0.0893  0.1476  0.3641
15420W        W35700   0.642   0.786  15.812  0.0225 -0.0423 -0.0160
15421W        W35701   3.210  14.251  13.912 -0.3235 -0.0049  0.2834
15422W        W35702  16.941   4.948   2.804 -0.0391  0.1038 -0.2042
15423W        W35703   1.589  11.803   2.049  0.2325 -0.0355  0.0081
15424W        W35704   4.896   8.881  14.363  0.0201 -0.2924 -0.0210
15425W        W35705  15.543  16.955  14.371  0.0221 -0.1723 -0.2132
15426W        W35706   5.124   5.990  15.074  0.1369 -0.0509  0.0023
15427W        W35707   9.116   5.480   2.133  0.0776  0.0866  0.2433
15428W        W35708   5.171   5.526  14.925 -0.0493 -0.1044  0.0535
15429W        W35709  16.302  17.285   4.682  0.4119 -0.2317  0.0281
15430W        W35710   2.623  12.194   4.364  0.0092 -0.0998  0.2751
15431W        W35711   8.809  15.388   4.076 -0.0501 -0.1840  0.1672
15432W        W35712  11.752   2.026  14.894  0.1482 -0.1236 -0.2994
15433W        W35713  17.048   2.253   2.748  0.0492  0.0658 -0.0983
15434W        W35714   1.317   9.553   3.059 -0.1113 -0.1284 -0.2506
15435W        W35715  10.456  15.377   4.895 -0.0801  0.2615  0.1352
15436W        W35716   3.964   8.357   0.770  0.0140  0.0584  0.0393
15437W        W35717  15.778  14.860   3.117 -0.0587  0.0561 -0.0496
15438W        W35718  11.464  11.322   4.403 -0.2331 -0.2074  0.0995
15439W        W35719   1.632  17.401  16.252  0.0740 -0.0233 -0.2658
15440W        W35720  13.044   2.998  16.233 -0.2294  0.0901  0.1074
15441W        W35721   1.942  13.300  11.887 -0.1869  0.4145 -0.2829
15442W        W35722  16.969   7.330   4.339  0.0797  0.0404 -0.3248
15443W        W35723  12.892   5.099  16.788  0.1353  0.0207  0.3308
15444W        W35724   9.822   6.202  15.786 -0.0047 -0.2773 -0.0605
15445W        W35725  14.830  14.482  16.052  0.0624 -0.1199 -0.1390
15446W        W35726  10.272  13.136  12.097 -0.1294 -0.1470  0.0542
15447W        W35727   0.743   2.242   3.436 -0.0697 -0.0169  0.2596
15448W        W35728   1.020   8.443  15.779  0.3106 -0.3266  0.1883
15449W        W35729   7.567   3.116  14.328 -0.0943 -0.3390  0.0493
15450W        W35730   4.480   6.836   3.293  0.2900 -0.1575 -0.2085
15451W        W35731  16.045   8.714   0.580  0.1874 -0.1927  0.1959
15452W        W35732  16.734  17.482   3.549 -0.0130  0.3026  0.2050
15453W        W35733   9.369   6.885  14.203 -0.0487  0.2078  0.0905
15454W        W35734  14.980   0.403   1.232 -0.3406  0.1537 -0.2585
15455W        W35735   0.012   9.674  15.129  0.2362 -0.1731 -0.0922
15456W        W35736   4.296  15.968  16.432 -0.1206  0.0569 -0.1722
15457W        W35737   4.956  14.514  13.028 -0.0259  0.2514  0.2563
15458W        W35738   0.611   5.576  14.383 -0.1790 -0.0224 -0.1207
15459W        W35739   4.220   7.847  12.254 -0.0506  0.0348 -0.0258
15460W        W35740  17.614   5.370   0.943 -0.1250 -0.0070 -0.0521
15461W        W35741  12.085   8.230   1.727  0.0214 -0.0656  0.1348
15462W        W35742   0.284  15.811   2.841  0.1771 -0.2383 -0.1973
15463W        W35743   6.020   2.742  13.814  0.0435 -0.0642 -0.0929
15464W        W35744   8.532  12.251   4.519  0.1980  0.1707  0.3001
15465W        W35745   3.913   1.511  15.422 -0.1930 -0.0642 -0.1394
15466W        W35746  16.932   2.242  13.987  0.1976 -0.1440  0.2021
15467W        W35747   6.457   9.975   4.039 -0.0936  0.0277 -0.0393
15468W        W35748   9.078   8.056   2.328 -0.1365  0.0859 -0.1541
15469W        W35749  15.968  10.700   0.967 -0.2294  0.0455  0.1815
15470W        W35750   3.663   1.766   4.430  0.2453  0.0925 -0.0919
15471W        W35751   3.107   6.574   4.645 -0.1045  0.0823 -0.0489
15472W        W35752  13.490  12.842  15.233 -0.1447  0.3687 -0.2713
15473W        W35753   2.439   6.052  15.327  0.2673  0.1376  0.1653
15474W        W35754   2.243   3.706  14.016  0.2786 -0.1765  0.0476
15475W        W35755   6.685   1.867   4.569  0.0540 -0.1055 -0.2299
15476W        W35756  14.513   6.359   4.837  0.4364  0.0487  0.1470
15477W        W35757   8.674   6.420  14.830  0.0418 -0.1278  0.1554
15478W        W35758  12.858   2.205   5.203 -0.1664  0.0655  0.0374
15479W        W35759  17.382  12.896   0.987 -0.1905  0.1257  0.1484
15480W        W35760   4.450   3.839  16.531 -0.0405 -0.2594  0.3226
15481W        W35761   3.980   6.012  13.475  0.0250  0.0173  0.0680
15482W        W35762   9.576   3.612  14.711  0.1668 -0.0387 -0.1183
15483W        W35763  13.847  11.366  16.314  0.0524 -0.3537  0.4557
15484W        W35764   2.262   0.426  12.745  0.2336 -0.0555  0.0118
15485W        W35765   3.012   8.771  16.142  0.1484 -0.0751  0.1933
15486W        W35766   1.444   2.407  12.649 -0.0268  0.2862  0.0033
15487W        W35767   3.933  14.366  16.000 -0.0464 -0.0454 -0.0762
15488W        W35768   5.463  10.724   0.607 -0.1616 -0.0450 -0.2352
15489W        W35769  16.274  14.336   0.588  0.1376  0.0816  0.0896
15490W        W35770   8.259   1.560  15.062  0.1521  0.0182 -0.0045
15491W        W35771   7.594   0.152  15.550 -0.2347 -0.4117  0.0086
15492W        W35772   8.283   9.429   3.034  0.0927  0.3037 -0.2267
15493W        W35773   6.420   0.709   2.536  0.0960  0.3251  0.2805
15494W        W35774  13.057  10.770  12.805  0.3531 -0.3806 -0.0204
15495W        W35775   8.260   2.936  14.740  0.1356 -0.4256  0.3955
15496W        W35776   6.530   9.876   1.786  0.1317  0.2050 -0.0718
15497W        W35777   0.804  11.633  13.282  0.0160  0.1047 -0.2640
15498W        W35778   5.988   7.221  12.398  0.0072  0.2045 -0.1934
15499W        W35779   3.240   6.226  13.998  0.0685 -0.1312 -0.3864
15500W        W35780   8.136  15.713  16.808 -0.2869  0.0149  0.3295
15501W        W35781   9.112   1.957  13.016  0.0145 -0.1404 -0.1872
15502W        W35782  14.950  15.504   2.208 -0.2025 -0.1726  0.1728
15503W        W35783   6.010   3.837  12.415 -0.0795 -0.4079  0.1201
15504W        W35784   2.912  16.240  15.308 -0.0563 -0.1567  0.1264
15505W        W35785  12.671  10.882  15.636 -0.1524 -0.2267  0.1909
15506W        W35786   2.563   4.475   3.569 -0.0438 -0.0518  0.1133
15507W        W35787  16.456  12.270  15.998 -0.0587  0.2319  0.3479
15508W        W35788   4.361  15.683  13.535 -0.1232 -0.4222  0.2374
15509W        W35789   9.163  15.678  15.876 -0.4043 -0.0066 -0.2230
15510W        W35790  12.701   6.079  12.522 -0.0482 -0.2592 -0.1063
15511W        W35791  16.882  17.348   1.283 -0.2849  0.1513 -0.0534
15512W        W35792   2.556   0.549  12.296 -0.3078 -0.0162  0.0150
15513W        W35793  10.420  11.975   1.404  0.2417  0.2962  0.0615
15514W        W35794   8.254  16.115  16.489  0.0282 -0.0813  0.1011
15515W        W35795   5.404  10.419   4.156 -0.0361 -0.2957 -0.0627
15516W        W35796   8.560  15.501   0.078 -0.0098  0.2412 -0.2507
15517W        W35797   6.034  10.008  15.149 -0.0608 -0.0920 -0.0868
15518W        W35798   9.019   2.123   3.095  0.0044  0.0384 -0.2058
15519W        W35799   6.510   0.842   1.686 -0.1178  0.3274 -0.0658
15520W        W35800   3.952   3.062  15.576 -0.1840 -0.0649  0.0178
15521W        W35801   8.423  15.810   0.534 -0.0470  0.0360  0.2035
15522W        W35802  14.206   8.592  16.254  0.0715  0.0305  0.0240
15523W        W35803  13.417  17.066   4.440  0.1233 -0.2310  0.1931
15524W        W35804   0.599  11.394  15.245 -0.0952  0.1978 -0.0217
15525W        W35805  12.999   6.950  14.873  0.1599 -0.1890  0.3404
15526W        W35806   1.864   6.069   5.456 -0.0121 -0.0447  0.1744
15527W        W35807   8.695   0.652   0.647 -0.2893  0.0381  0.2011
15528W        W35808  15.759  10.320   4.079 -0.1465 -0.1012  0.0334
15529W        W35809   1.205   4.954   2.537 -0.0819 -0.2312  0.1077
15530W        W35810   4.290   3.193  12.781 -0.1355  0.0119 -0.2511
15531W        W35811   5.340   7.412   0.066  0.0391 -0.0936  0.2247
15532W        W35812   4.736   9.704  15.637  0.1375  0.0033  0.1566
15533W        W35813   9.148   6.853   4.460 -0.0994  0.2358  0.0292
15534W        W35814   8.197   5.099   1.247 -0.0320  0.0249 -0.0038
15535W        W35815  15.746  12.222   4.063 -0.0276 -0.1912 -0.2322
15536W        W35816   0.803   2.532  13.571  0.0742  0.0096  0.0584
15537W        W35817  15.657   1.769  15.422  0.0639  0.4650  0.1144
15538W        W35818  15.873  16.561  15.889 -0.0631 -0.0536 -0.3306
15539W        W35819  17.493   9.776  12.188 -0.0232 -0.3428  0.1592
15540W        W35820  12.613   0.043  13.158  0.0478 -0.2557 -0.3012
15541W        W35821   3.878  14.921   5.635  0.0884  0.0944  0.1857
15542W        W35822   3.732   9.464  12.232  0.0312  0.4360  0.0731
15543W        W35823   9.137  11.022  15.918  0.1863 -0.0886 -0.1384
15544W        W35824  15.545   7.363  12.957 -0.1099 -0.0401  0.0840
15545W        W35825  13.000  15.472   4.810  0.4109 -0.0875 -0.1074
15546W        W35826   8.912   8.117   4.541 -0.2472 -0.1365  0.0183
15547W        W35827   2.951   0.233   0.072 -0.1241  0.0764  0.2492
15548W        W35828  13.633  13.545  16.353 -0.3718  0.1506 -0.0794
15549W        W35829   9.504   3.699   5.607 -0.2133  0.1070 -0.2432
15550W        W35830   8.350   3.359   4.979  0.1530  0.0591  0.5245
15551W        W35831   6.263   2.940  16.400 -0.0666  0.0310  0.0022
15552W        W35832  14.147   9.533   2.559 -0.2447  0.0750 -0.0173
15553W        W35833  16.449   9.552   1.707 -0.2613 -0.1164 -0.1987
15554W        W35834  11.980   2.348  15.716 -0.2188  0.0654  0.1206
15555W        W35835   7.145  13.233   1.245 -0.3294  0.0449  0.1821
15556W        W35836   7.448   1.409  12.769 -0.2789 -0.0717  0.4331
15557W        W35837  11.694   9.820  16.512  0.0373 -0.0740 -0.1474
15558W        W35838  12.419   5.100   2.201  0.0853 -0.1866  0.0653
15559W        W35839  11.805   2.793  14.341  0.0115 -0.2850 -0.2787
15560W        W35840  15.518  12.776   0.745 -0.1271 -0.1662 -0.1836
15561W        W35841   1.434   3.211   0.655  0.1162 -0.0440  0.0795
15562W        W35842  14.391   1.040  12.941 -0.1422 -0.2513  0.3330
15563W        W35843   9.485  15.409   1.667  0.0548 -0.2663 -0.1524
15564W        W35844  11.470   9.800  13.451  0.1364  0.0142  0.0746
15565W        W35845   1.396   8.340  12.302  0.2046 -0.3806 -0.2014
15566W        W35846  14.018   3.655   1.785  0.0651 -0.0290  0.1891
15567W        W35847  11.553   9.355   2.310  0.3012  0.1874 -0.1892
15568W        W35848  13.077  10.159  14.163 -0.0695  0.0133  0.0307
15569W        W35849   2.477   4.068   2.093  0.2564  0.1334  0.1105
15570W        W35850   8.879   5.424   3.470 -0.1278 -0.1230  0.0721
15571W        W35851  11.355   6.615   2.399 -0.1259  0.1731 -0.2996
15572W        W35852  17.075   7.322   1.668 -0.1217 -0.1099  0.0824
15573W        W35853  13.578   3.870   4.480  0.0498  0.0755 -0.0856
15574W        W35854   1.176  13.446  16.260 -0.0802 -0.1432  0.0411
15575W        W35855   1.151   3.462  13.264 -0.1310 -0.0349 -0.2714
15576W        W35856   7.754   2.773   4.470  0.2219  0.0519  0.1492
15577W        W35857   9.710   7.486  13.100  0.1462 -0.1511  0.1556
15578W        W35858   5.780  17.033   1.534  0.1916 -0.1138 -0.2353
15579W        W35859   3.078  12.744  14.501 -0.1036 -0.1135  0.1185
15580W        W35860   3.279   2.542  14.556  0.2207 -0.0236 -0.0593
15581W        W35861  13.874  16.031   2.105  0.0667  0.0843  0.0636
15582W        W35862   6.538  17.004  15.351 -0.0787 -0.4456 -0.0806
15583W        W35863  12.486  15.682  15.630 -0.0129 -0.0355  0.0800
15584W        W35864  16.180   9.078   4.536 -0.0676 -0.2606 -0.0467
15585W        W35865  14.648   9.515   0.291  0.0241  0.0676  0.0028
15586W        W35866   8.492   4.654  14.279 -0.2455  0.0698 -0.0430
15587W        W35867   1.638   1.636   1.261  0.1026  0.0979 -0.0090
15588W        W35868   4.152   9.574  14.108  0.1447 -0.1715 -0.0365
15589W        W35869   8.620  10.941   4.470  0.3587 -0.2610 -0.2289
15590W        W35870  14.913   1.650   4.905 -0.0031  0.0586 -0.0760
15591W        W35871   2.898  17.071  15.186  0.0302  0.1649  0.1904
15592W        W35872  12.422  17.024  13.982 -0.3016  0.0015  0.1243
15593W        W35873  14.445  11.804  13.500 -0.0668  0.1575 -0.2774
15594W        W35874   1.042  10.113   3.863  0.2630 -0.2308 -0.3382
15595W        W35875  15.202   6.262   5.172  0.0773 -0.3015 -0.1863
15596W        W35876  10.993   3.662  15.308  0.1577  0.2124 -0.0193
15597W        W35877   2.776  15.177  12.198  0.1204  0.1666  0.0470
15598W        W35878  12.345   2.271   3.724 -0.1154  0.0692  0.0321
15599W        W35879   4.394  17.709   2.726  0.0484  0.0901 -0.0100
15600W        W35880   9.086  14.659   3.272  0.2265  0.1356 -0.0697
15601W        W35881   7.775   6.466  14.600 -0.1231 -0.0148 -0.1579
15602W        W35882  17.491   5.763  12.122  0.0736  0.0480 -0.0332
15603W        W35883   0.333  10.902  14.394 -0.0433  0.1455  0.2635
15604W        W35884  17.343   3.732   2.100 -0.1150  0.1677  0.3436
15605W        W35885  11.127   7.217   0.393  0.0853 -0.1839 -0.2126
15606W        W35886   5.191  16.997   1.582 -0.1076  0.3323 -0.2288
15607W        W35887   7.357   2.110  14.014 -0.0847  0.2912  0.3162
15608W        W35888   4.780  16.323  12.797  0.1801  0.1514 -0.1023
15609W        W35889   7.000   8.863  16.264  0.2101 -0.0495 -0.0914
15610W        W35890  13.315   5.669  13.620 -0.0151  0.1437 -0.2305
15611W        W35891   1.927  16.718   2.489 -0.0166 -0.2024 -0.5627
15612W        W35892  14.029   4.176  16.160  0.2384 -0.3864  0.1610
15613W        W35893   4.601  10.063  15.226  0.0632 -0.2139 -0.0774
15614W        W35894  11.543  10.308   4.457 -0.1691 -0.4107  0.0059
15615W        W35895  11.493  11.733   3.107 -0.2342 -0.0093 -0.3369
15616W        W35896  14.070  16.986  14.236 -0.0391 -0.1897  0.0098
15617W        W35897  17.405   9.946  16.841  0.1896  0.0447 -0.1386
15618W        W35898   3.566  12.908  13.188  0.4211  0.0447  0.1361
15619W        W35899   0.107   7.185   2.464  0.4051 -0.0353  0.2228
15620W        W35900   5.303  14.169  12.958  0.2521 -0.1659  0.1637
15621W        W35901   5.496  12.731   1.910 -0.2726  0.0064  0.0984
15622W        W35902   1.804  15.570  11.708  0.0502  0.1890  0.2421
15623W        W35903   6.269  10.243   0.901  0.1140  0.2537 -0.0044
15624W        W35904  16.251   6.035  16.338 -0.1787  0.0141  0.0415
15625W        W35905  12.012  16.813   1.449  0.0858  0.0654  0.3180
15626W        W35906   9.214   8.166  14.206  0.1890 -0.0779 -0.0718
15627W        W35907  13.040   0.705  16.059 -0.2605  0.0167  0.0958
15628W        W35908   7.018   3.117   4.301 -0.0484  0.1368 -0.1108
15629W        W35909  15.343  15.120  12.780 -0.2340  0.1080  0.1273
15630W        W35910   5.360   6.882   2.927  0.2807 -0.0005  0.4061
15631W        W35911  17.366  13.585   4.270  0.0829  0.1595  0.2169
15632W        W35912   0.437  12.341  14.029  0.0050 -0.2663  0.0780
15633W        W35913   9.176  14.382  13.970  0.1131  0.0753 -0.1403
15634W        W35914  11.406  13.585   3.083  0.0616  0.1647 -0.2316
15635W        W35915  11.471  15.182  16.547  0.3088  0.1641  0.1037
15636W        W35916   7.108  12.987   3.355  0.3314  0.1390  0.3005
15637W        W35917   0.904  10.737   0.567 -0.2731 -0.0836  0.0728
15638W        W35918   9.754   0.259  13.108 -0.1123 -0.1603 -0.0999
15639W        W35919   5.634   0.448  12.246 -0.5301  0.3055 -0.0807
15640W        W35920   6.548   0.653   3.635  0.0736 -0.0544 -0.2614
15641W        W35921   4.163   7.584   1.094  0.0358 -0.1895 -0.1229
15642W        W35922   9.575   9.208  14.978 -0.0440  0.0628  0.0075
15643W        W35923  14.948   5.308   0.146  0.2907  0.0713  0.0652
15644W        W35924  10.412   4.175  15.850  0.2110  0.1819 -0.2135
15645W        W35925  10.175   6.982   4.142 -0.1877 -0.0876 -0.3361
15646W        W35926  16.046  15.569   4.934  0.3109  0.0882  0.1160
15647W        W35927  15.983  15.551   4.070 -0.1471 -0.0252  0.2181
15648W        W35928  13.390  10.954   0.810 -0.1493  0.1003 -0.1494
15649W        W35929  11.042  13.347  15.237  0.2016 -0.1110  0.2416
15650W        W35930   6.019   3.571   1.861 -0.2793  0.2851  0.0856
15651W        W35931  14.537  12.928  13.802 -0.0928 -0.2007 -0.0401
15652W        W35932   1.130  13.924   4.109  0.0326 -0.1030  0.2219
15653W        W35933   8.176   4.376   3.311 -0.1254  0.0931  0.1872
15654W        W35934   1.153  12.315   1.427 -0.0365 -0.3048  0.1532
15655W        W35935  14.698   2.276  12.433 -0.0214 -0.2434  0.2518
15656W        W35936   9.497  13.011   3.129 -0.1464  0.1949  0.1199
15657W        W35937   6.951   8.526   1.727  0.1265 -0.4746  0.0494
15658W        W35938  10.016   3.901  12.011 -0.2126 -0.2214  0.0369
15659W        W35939   1.256   4.377  15.567 -0.0580 -0.1909  0.1527
15660W        W35940  15.572   4.617   4.678 -0.0175 -0.0795  0.3377
15661W        W35941   5.022   0.967   2.652  0.0960 -0.1950  0.1435
15662W        W35942  15.424  14.308   1.752  0.1652  0.0909 -0.3639
15663W        W35943   9.154  13.858   4.630  0.0810 -0.0660 -0.2507
15664W        W35944   5.696   8.378   3.395  0.1725 -0.1883 -0.0664
15665W        W35945   8.468  16.049  12.638  0.0919  0.1218  0.0397
15666W        W35946   3.367  10.674  15.153 -0.1610  0.0359  0.0251
15667W        W35947  12.987  10.274   4.071  0.1688  0.0512 -0.0022
15668W        W35948   2.055   1.859   0.333  0.2118  0.3458 -0.0850
15669W        W35949   7.938   6.646   0.106 -0.1797  0.0189 -0.1548
15670W        W35950   4.273   5.834  14.833 -0.1456  0.0196 -0.0357
15671W        W35951  16.947   7.060  15.888 -0.2680  0.1488 -0.0229
15672W        W35952   6.802  17.296  15.691  0.0274  0.0821 -0.0855
15673W        W35953  13.560  10.992   2.441 -0.1651 -0.2750  0.1529
15674W        W35954  14.405   9.251   4.958 -0.0809  0.1134 -0.2279
15675W        W35955   6.479   7.247   1.284 -0.3435  0.1678 -0.0548
15676W        W35956   6.280  10.367   3.789  0.1525  0.0256 -0.1260
15677W        W35957   3.265  16.842   0.406 -0.0228  0.2162 -0.3840
15678W        W35958   3.042  13.137  13.239  0.1040 -0.2940  0.0447
15679W        W35959  13.376  17.423  11.852  0.2044 -0.0979 -0.1924
15680W        W35960   0.618  17.504  16.609 -0.1652 -0.2435  0.0308
15681W        W35961   3.161  13.811  16.075  0.1743 -0.1014  0.0830
15682W        W35962   7.994   3.363   2.245  0.2655  0.1531  0.0625
15683W        W35963   7.419   5.400   1.087 -0.1426 -0.0222  0.0075
15684W        W35964  12.294   5.799  13.537  0.0464 -0.0424  0.0140
15685W        W35965   2.961  11.191  12.949  0.1016 -0.1173 -0.1262
15686W        W35966  17.364  14.238   2.283 -0.0176 -0.1963 -0.1501
15687W        W35967  13.801   0.356  15.409  0.3053 -0.0535 -0.0946
15688W        W35968   1.937   5.838  15.343  0.1497 -0.0767 -0.0972
15689W        W35969  11.744   7.716   3.591 -0.1644 -0.0822  0.0082
15690W        W35970  11.175  11.667   4.146  0.0361  0.0336 -0.2316
15691W        W35971  16.184   9.849   1.233 -0.0325  0.0746  0.2086
15692W        W35972   2.124   0.385  13.478 -0.2279  0.0494  0.1865
15693W        W35973   9.098  14.385  13.471 -0.0962  0.2832 -0.2067
15694W        W35974   5.591   6.534   3.775 -0.1094 -0.3689 -0.0083
15695W        W35975   3.802   7.026  14.586  0.1239  0.0674  0.0911
15696W        W35976  17.162   2.899  15.782 -0.1663  0.0831  0.1224
15697W        W35977   4.624  14.536  12.471  0.0044 -0.0559  0.1010
15698W        W35978   6.038  12.720   2.520  0.2923  0.0228  0.0535
15699W        W35979   9.118   1.553   4.982 -0.2970 -0.0234 -0.1715
15700W        W35980  12.364   0.725   4.008 -0.2420  0.0888 -0.1152
15701W        W35981   5.379   9.307   2.632 -0.1841  0.1764 -0.0626
15702W        W35982  10.500  10.933  12.886 -0.0369  0.1380 -0.1952
15703W        W35983   9.233  13.766  12.667 -0.2421  0.2517  0.0212
15704W        W35984  15.842  12.573  15.476 -0.2544 -0.2386 -0.2487
15705W        W35985  11.000   1.897   0.997 -0.1443 -0.1051 -0.0863
15706W        W35986   5.845  11.932  13.166 -0.0127  0.0823 -0.1439
15707W        W35987  17.281   8.051  14.700 -0.0912 -0.1109 -0.0402
15708W        W35988  14.442   9.933   3.359  0.2010  0.0949 -0.2650
15709W        W35989   8.123   7.336   0.132  0.0629  0.1373  0.1309
15710W        W35990  15.723   6.902  14.599 -0.0166 -0.2767  0.2194
15711W        W35991   8.968  12.087  14.132  0.2781 -0.1098 -0.2167
15712W        W35992   3.506   6.930   4.652  0.1027 -0.0461 -0.3239
15713W        W35993   4.031  15.042  16.115 -0.1018 -0.0008 -0.2078
15714W        W35994   0.488   4.981  15.592 -0.0289 -0.1618 -0.2445
15715W        W35995   2.182  11.526  16.088  0.0204  0.0133  0.3838
15716W        W35996   5.800   2.529   4.471 -0.0916  0.0845 -0.1618
15717W        W35997  14.805  11.370   6.574  0.1270 -0.1932  0.0146
15718W        W35998   7.346   8.961  14.180 -0.4539 -0.1836 -0.2412
15719W        W35999  15.246   5.471   3.519  0.0523 -0.0048 -0.0722
15720W        W36000  12.141  15.416   3.245  0.0547  0.2016  0.0241
15721W        W36001   0.094  16.759   2.692  0.0081 -0.1837 -0.1103
15722W        W36002  10.356  15.656   4.494  0.1885  0.1411 -0.3195
15723W        W36003   8.756   8.807   1.057 -0.0246 -0.3775  0.3729
15724W        W36004  10.728  11.406  15.972  0.1320  0.3037 -0.1004
15725W        W36005   0.444  14.502  15.326 -0.2564 -0.0361  0.1186
15726W        W36006   8.157   0.313  14.518  0.0325 -0.3307  0.2580
15727W        W36007   9.528  14.365   4.010  0.0730 -0.1563 -0.0861
15728W        W36008   2.125  17.209  12.465 -0.1417 -0.2713  0.0080
15729W        W36009  11.307   0.230  16.450  0.0146 -0.2105 -0.1675
15730W        W36010  14.342   8.089  13.429 -0.1800 -0.0126  0.1682
15731W        W36011   0.449  12.970  12.793 -0.1826 -0.1980 -0.0183
15732W        W36012  10.530  16.134   3.165 -0.0859  0.0936 -0.1071
15733W        W36013  13.624  13.412   2.096  0.1082  0.0186  0.0793
15734W        W36014   9.319   2.388   3.423 -0.0405 -0.0470  0.0276
15735W        W36015  15.069   9.878   0.257 -0.2554 -0.0682 -0.1560
15736W        W36016   6.810  12.125  13.404  0.1594 -0.0297 -0.0295
15737W        W36017   6.652  15.899   0.247 -0.0404  0.0192 -0.0802
15738W        W36018   3.984  13.553   1.782  0.0340 -0.1491 -0.0783
15739W        W36019  12.588  12.136   0.359 -0.0127 -0.0858  0.0450
15740W        W36020  12.292   2.722  13.525  0.1688 -0.4750 -0.2460
15741W        W36021  16.826  11.534  13.284  0.2702 -0.3218 -0.2685
15742W        W36022   3.111  12.589  13.531  0.0783  0.1078 -0.0103
15743W        W36023  15.431  14.714   2.256  0.2554 -0.0489 -0.1509
15744W        W36024   3.789   9.946   4.174  0.1000  0.2920  0.1074
15745W        W36025  17.312  14.022   0.450 -0.0016 -0.1164  0.2774
15746W        W36026  12.589   5.454   0.868  0.2574 -0.0416  0.1286
15747W        W36027  10.847   2.490  15.552 -0.1053 -0.1510  0.1264
15748W        W36028  14.390  14.885   3.289  0.3466  0.0948  0.0057
15749W        W36029   2.447  10.063  13.582  0.1488  0.1163  0.0793
15750W        W36030  14.529  15.881  13.989  0.0572 -0.2429  0.3207
15751W        W36031   1.816  11.962   4.876  0.0018 -0.1623 -0.1977
15752W        W36032  15.593  14.472   2.702  0.2243 -0.1426  0.2510
15753W        W36033  11.614   1.482   2.771  0.0029 -0.0228  0.2635
15754W        W36034   8.091   8.567   0.959  0.0775  0.0418  0.0379
15755W        W36035  10.632   9.923  16.311 -0.1590  0.0381  0.1425
15756W        W36036  15.861   0.711   0.236 -0.1569  0.2846 -0.2329
15757W        W36037   4.242   8.741   3.156  0.1381  0.1717 -0.1344
15758W        W36038   8.686  11.186  16.821  0.1140  0.0767  0.4060
15759W        W36039   9.945  15.168   1.545  0.1098 -0.2244 -0.1919
15760W        W36040   9.254   3.667   1.775 -0.2379  0.1097 -0.0010
15761W        W36041   3.464  10.743   2.601  0.2348  0.1879  0.0105
15762W        W36042   4.918   5.657  15.887 -0.1654  0.0650 -0.0632
15763W        W36043  14.659  10.891   1.402  0.1669 -0.2255 -0.1709
15764W        W36044   6.223  13.176   1.204 -0.1891  0.0051  0.0105
15765W        W36045  10.656  14.807  14.608 -0.1004 -0.2527 -0.0953
15766W        W36046   4.822  15.914   3.702 -0.0124 -0.0538  0.2973
15767W        W36047   7.521   2.939   0.167  0.0068  0.2937 -0.0512
15768W        W36048   5.797   0.381  14.848 -0.0543  0.0916  0.0045
15769W        W36049   3.359   6.485   2.831 -0.0775  0.1630 -0.2000
15770W        W36050  12.706   7.694  12.246 -0.2144  0.1223 -0.2308
15771W        W36051   3.492  11.289  12.771  0.1228 -0.0394 -0.0502
15772W        W36052   0.770   3.292   4.507  0.0529  0.0022 -0.1163
15773W        W36053   2.341   7.202   2.052 -0.2183  0.2071 -0.3616
15774W        W36054  14.211   8.417   1.036  0.0862 -0.0375  0.2070
15775W        W36055  12.754  12.250   4.643 -0.2051  0.0613  0.1660
15776W        W36056   6.809  10.424  15.137 -0.1619  0.0752 -0.0024
15777W        W36057   8.475   8.942   3.833 -0.0878  0.0280  0.0138
15778W        W36058   5.906   8.194  13.157 -0.1044  0.0298  0.1469
15779W        W36059   2.054   9.349  13.271 -0.0057 -0.0633  0.1518
15780W        W36060   5.847  17.658   0.530 -0.0770 -0.0441  0.0176
15781W        W36061  15.183   4.056  15.083  0.0179 -0.2548  0.1899
15782W        W36062   3.742  14.717  12.630  0.1237  0.1433 -0.0400
15783W        W36063   3.426  11.639   2.148  0.1762 -0.0535  0.1148
15784W        W36064  16.726   5.473   0.798 -0.0979  0.0645  0.0366
15785W        W36065   3.823  11.766   1.287 -0.0925 -0.0098 -0.0812
15786W        W36066   0.728  14.851   4.148 -0.0655  0.0902  0.0545
15787W        W36067  15.016  16.233   4.544  0.1381 -0.1787 -0.0300
15788W        W36068   8.359  13.329  14.572  0.0622 -0.1270  0.0574
15789W        W36069   1.553   7.584  14.851  0.0510 -0.2658  0.0850
15790W        W36070   0.153   0.774  14.458  0.2720 -0.0657 -0.1162
15791W        W36071   2.499  13.322  15.780 -0.2941  0.0467  0.1598
15792W        W36072  12.822   4.972   3.510 -0.0711  0.3467  0.2766
15793W        W36073  10.807  16.264   1.909 -0.2208 -0.2876 -0.1349
15794W        W36074   3.030  12.796   0.005  0.0300  0.1030  0.0620
15795W        W36075   0.932   5.120   0.353  0.0946 -0.0358  0.1744
15796W        W36076   0.071   1.928  16.824  0.2707  0.1999  0.0393
15797W        W36077   2.684   3.332  13.644 -0.1150  0.0990 -0.0135
15798W        W36078  10.079  11.258  12.842 -0.0777 -0.0330 -0.1380
15799W        W36079   5.590  13.059   0.764  0.1667 -0.1449 -0.0662
15800W        W36080  10.310   4.321   4.591 -0.0308  0.0743  0.0633
15801W        W36081  12.266   9.813  13.431  0.1134  0.0591  0.0515
15802W        W36082  12.798   2.797   0.965 -0.1134  0.3102  0.0987
15803W        W36083  14.497   6.189  16.667 -0.1406 -0.2089  0.1530
15804W        W36084   9.963  12.144   1.268 -0.1032  0.3338  0.0280
15805W        W36085   1.979   6.267   0.908 -0.0306  0.1370 -0.0957
15806W        W36086   9.920   1.438  13.280 -0.1432  0.3029 -0.0982
15807W        W36087   1.072   2.782  16.781  0.0827 -0.3190  0.2636
15808W        W36088  13.052  10.458   4.552  0.1332 -0.0294  0.0765
15809W        W36089  13.245  12.045   4.454 -0.1815  0.2958 -0.1318
15810W        W36090  12.873   8.406   2.819 -0.2043  0.1824 -0.1667
15811W        W36091  12.397   4.003   0.576  0.0977 -0.1128 -0.0837
15812W        W36092  16.089   2.214  12.523  0.3690  0.1238 -0.1289
15813W        W36093   5.139  10.207  13.487 -0.3779  0.1553  0.0441
15814W        W36094  11.702   1.592  16.234  0.0473  0.2076 -0.3031
15815W        W36095  12.671  13.742   3.595  0.0904  0.1510 -0.1126
15816W        W36096   3.380   3.942   2.467 -0.1053 -0.0157 -0.3011
15817W        W36097   9.531   1.000  14.551  0.0701 -0.0722 -0.0548
15818W        W36098   6.948   9.153  16.793  0.0520 -0.1611  0.0549
15819W        W36099   0.261   3.326   4.294  0.1300  0.1015 -0.0927
15820W        W36100   5.910  13.941   0.830 -0.0221  0.0053 -0.1268
15821W        W36101   7.471   8.419  13.339  0.1093 -0.1739 -0.3612
15822W        W36102   7.589  14.924  13.967 -0.0701 -0.0074 -0.2431
15823W        W36103   1.134   8.775  16.129  0.4158 -0.0142 -0.0419
15824W        W36104  16.345   7.640   3.550  0.2121  0.0011  0.1356
15825W        W36105   4.865  10.702   2.475 -0.0365 -0.2144 -0.0201
15826W        W36106  10.510   2.285  15.081  0.2899 -0.0409  0.1512
15827W        W36107   6.237  10.737   1.149  0.0288  0.1408  0.1938
15828W        W36108   9.511   2.036   3.816 -0.0218 -0.0330  0.1061
15829W        W36109   8.679   2.269   3.818 -0.1334 -0.4761 -0.0641
15830W        W36110   0.686   7.220  15.228  0.1624 -0.1647 -0.2747
15831W        W36111  12.806   4.215   4.899 -0.3214  0.0725  0.0907
15832W        W36112  14.934   4.888   4.541 -0.0799  0.2943 -0.0345
15833W        W36113   7.918   0.638  14.907 -0.0418 -0.0795  0.0788
15834W        W36114   7.731   9.653   3.801  0.2878 -0.1872 -0.1227
15835W        W36115   3.835  16.154   0.723  0.0854  0.0162 -0.0552
15836W        W36116  12.234  11.338   3.763 -0.0025 -0.1505 -0.0221
15837W        W36117   0.462   1.509   1.123 -0.0953  0.2337 -0.1145
15838W        W36118   2.036  13.404  16.005 -0.0419 -0.1273  0.1711
15839W        W36119   9.508   1.964  14.965  0.0170 -0.0995 -0.0563
15840W        W36120  15.087  13.947   1.699 -0.0628 -0.0380  0.1180
15841W        W36121   5.095   7.559   1.546  0.1172 -0.1341 -0.1818
15842W        W36122   8.980  11.586   3.951 -0.1549 -0.0883  0.1057
15843W        W36123  14.725   7.704  14.915  0.0004 -0.0247 -0.2737
15844W        W36124  17.169  16.346   2.119 -0.0761 -0.0432 -0.0617
15845W        W36125   9.788  12.494  11.937 -0.1629  0.3415 -0.2279
15846W        W36126   9.141  10.995  15.049  0.1009  0.0187  0.2508
15847W        W36127   5.905   5.261   4.843 -0.1505  0.1498  0.0923
15848W        W36128   6.028   6.980   2.631  0.1526 -0.0136  0.2232
15849W        W36129   2.109   5.962  14.878  0.0835  0.2951 -0.0877
15850W        W36130  16.607  16.005   2.796 -0.1797  0.2096 -0.1765
15851W        W36131  14.145   9.907  15.312  0.0780 -0.3645 -0.1543
15852W        W36132   0.179   6.163   2.746  0.3053 -0.1508 -0.0949
15853W        W36133  12.828  15.988  13.169  0.0087 -0.1313  0.1516
15854W        W36134   8.212  12.264  14.742  0.1482  0.1051 -0.1972
15855W        W36135  15.692   6.879  12.322 -0.1994 -0.0979 -0.0241
15856W        W36136  10.051  17.389   0.838  0.3777 -0.2290  0.2231
15857W        W36137  13.521  17.025  12.507  0.1756  0.0560  0.0094
15858W        W36138  15.314  13.639   2.162  0.1542  0.2435  0.0591
15859W        W36139  13.030   2.100   3.866 -0.0574  0.2066  0.0554
15860W        W36140  14.200   4.775  12.044  0.0446  0.3508 -0.1890
15861W        W36141  16.019  13.234   4.048 -0.1389  0.2233 -0.2157
15862W        W36142   5.648  10.299   4.597  0.2079  0.0354 -0.2912
15863W        W36143  12.924   7.069   3.972 -0.0204  0.2674 -0.1090
15864W        W36144  12.868   8.440  13.106 -0.3048 -0.1010 -0.1266
15865W        W36145  16.574   5.635   3.346 -0.2124 -0.1066  0.1007
15866W        W36146   1.334  10.016   1.687 -0.1088  0.0804 -0.0802
15867W        W36147   7.487   4.387   1.339  0.3842 -0.0211  0.0170
15868W        W36148   2.251   9.159  16.153 -0.0980  0.1066 -0.1515
15869W        W36149  12.922  10.205  16.759 -0.0268  0.1289  0.0955
15870W        W36150  11.286  10.689   0.392  0.0686  0.0576  0.0601
15871W        W36151  13.797   0.002   1.175 -0.2709 -0.0708 -0.0102
15872W        W36152   2.025   9.328  14.683 -0.0300 -0.2166 -0.0344
15873W        W36153  16.473   4.848   1.491 -0.0581  0.2867 -0.0178
15874W        W36154   4.682  13.736  15.089  0.0176  0.1249  0.0798
15875W        W36155   8.549  17.009  13.134  0.1766  0.0499  0.2226
15876W        W36156  12.793   5.254   4.814 -0.0021  0.2620 -0.2470
15877W        W36157  17.240  17.496   3.124  0.1275  0.2152 -0.0272
15878W        W36158  15.645  15.734  16.729 -0.0507 -0.1075 -0.0810
15879W        W36159  15.525  12.170  16.509  0.0693  0.1545 -0.1670
15880W        W36160  16.279  13.053  16.664  0.1331  0.0614 -0.0569
15881W        W36161  11.489   3.693   1.919  0.2016  0.0294  0.2784
15882W        W36162   9.398   3.436   4.796  0.2576 -0.1742 -0.0383
15883W        W36163   5.902  12.047  14.860 -0.0192  0.0122 -0.4651
15884W        W36164  11.990   5.420   2.334 -0.0967  0.0057  0.2288
15885W        W36165  14.588   9.006  15.867 -0.0208 -0.2295  0.0226
15886W        W36166  12.362  17.640   2.473 -0.0678  0.3567 -0.2026
15887W        W36167  14.661  11.461   4.088  0.1537 -0.1777 -0.0210
15888W        W36168  15.330  14.056  14.151 -0.4452  0.0018  0.4114
15889W        W36169  14.600   3.324  13.617 -0.0261 -0.0696  0.2450
15890W        W36170   8.046   4.648   2.101  0.1121  0.0232 -0.1806
15891W        W36171   7.263   2.922  13.453  0.2303  0.1080  0.0556
15892W        W36172   4.169   7.316  13.853  0.4587 -0.2012  0.1360
15893W        W36173  12.346   8.229   2.937 -0.2382 -0.3312  0.0934
15894W        W36174   7.663  14.050   0.587  0.0390  0.2367 -0.2426
15895W        W36175  16.320  15.972   4.242  0.1986  0.3169 -0.1086
15896W        W36176  16.299   7.911  12.038  0.4236 -0.1785  0.2494
15897W        W36177   8.274   0.359  14.048  0.0087  0.2353 -0.0565
15898W        W36178  12.336   5.929   1.102 -0.0245  0.0732 -0.0692
15899W        W36179  13.908   5.302   0.384  0.1144 -0.2096  0.0406
15900W        W36180  12.346  11.214  15.856 -0.1099  0.1344  0.1586
15901W        W36181  10.335   7.177  16.262  0.2232 -0.0125 -0.1989
15902W        W36182   1.739   5.383   0.631  0.1597 -0.1292  0.0575
15903W        W36183  15.776   2.912   4.761 -0.0841 -0.0128  0.1827
15904W        W36184   4.171  17.185  16.738  0.1467 -0.1845 -0.2646
15905W        W36185  12.065   3.515   5.138 -0.1267  0.3402  0.0470
15906W        W36186   5.617   6.131   2.984  0.2124 -0.0780 -0.1320
15907W        W36187   1.348  14.536  14.338  0.2189 -0.0476  0.2742
15908W        W36188   0.461  14.618   2.293 -0.0323 -0.0087 -0.0900
15909W        W36189  16.343   5.936   1.745  0.1196  0.0031  0.2619
15910W        W36190   1.225   3.813  11.875  0.2361  0.0983 -0.1818
15911W        W36191   9.579   7.436   1.303  0.2716 -0.2242 -0.0013
15912W        W36192   8.246  14.980  14.767 -0.2536 -0.3639  0.2045
15913W        W36193   7.513   8.212  11.971 -0.0586  0.4119  0.0962
15914W        W36194   8.112  17.454   4.387 -0.0242  0.1086  0.1024
15915W        W36195  14.354  13.364   1.409  0.0028  0.0764  0.0698
15916W        W36196   5.613   7.887   3.376 -0.0761 -0.1403  0.0399
15917W        W36197   3.255   5.775   4.438 -0.0855  0.0560 -0.1635
15918W        W36198  11.614  12.157   1.776  0.0818 -0.2897 -0.0267
15919W        W36199   4.687  17.498   0.978 -0.4636 -0.2410  0.2607
15920W        W36200  11.138  15.588   1.108  0.2922 -0.1319  0.0309
15921W        W36201  12.689   7.274   1.061 -0.0208 -0.0951 -0.0330
15922W        W36202   5.908  10.734   4.904 -0.0390  0.1002  0.2018
15923W        W36203   8.320   4.762   4.526  0.4342  0.1062  0.1908
15924W        W36204   4.518  16.629  13.127  0.1699 -0.1894 -0.2810
15925W        W36205   6.607   2.104  13.318  0.1736  0.0679  0.2953
15926W        W36206   3.651  15.455  16.757  0.0104  0.0319 -0.3266
15927W        W36207   3.050   3.981  15.298 -0.0418 -0.0928  0.1887
15928W        W36208  12.526  14.764   2.617  0.0511  0.0450 -0.0273
15929W        W36209  16.465  12.881   3.778 -0.1078 -0.0380 -0.0691
15930W        W36210   0.135  10.045   0.548 -0.1590 -0.0405  0.0594
15931W        W36211   8.970   6.337   1.968 -0.0212  0.1119  0.2157
15932W        W36212   0.851   1.426   4.127  0.0781  0.2086  0.0206
15933W        W36213   0.692  11.924   4.068  0.0920 -0.0735 -0.1067
15934W        W36214   8.798   3.737   0.905  0.1538  0.1445 -0.3093
15935W        W36215   3.563  14.384  15.304  0.1630 -0.1372 -0.0285
15936W        W36216   3.841   7.789   0.736 -0.2287 -0.0173  0.2242
15937W        W36217  11.093   1.364   4.049  0.2440  0.1064  0.0019
15938W        W36218  14.757  14.248  15.499 -0.2018 -0.0034 -0.1975
15939W        W36219   3.581   8.605   3.347  0.1108  0.2685  0.1601
15940W        W36220  14.746  15.111   3.761  0.0441  0.0790  0.0918
15941W        W36221   8.533  13.640   2.871  0.1931 -0.2284  0.2844
15942W        W36222  13.947   1.064  12.763 -0.0909  0.2184  0.3175
15943W        W36223  17.286   5.130  16.034 -0.0653 -0.1991  0.1735
15944W        W36224  14.244   8.729  14.105  0.1450 -0.0008  0.4107
15945W        W36225  17.677   5.833   3.692  0.2838  0.0958 -0.2287
15946W        W36226   7.818   6.837  16.300 -0.1036 -0.0910 -0.1771
15947W        W36227  14.213   7.310  16.472  0.0340  0.0611 -0.0385
15948W        W36228  10.459  11.335  12.556  0.1851 -0.3173 -0.0814
15949W        W36229  16.155  11.755  12.926 -0.3830  0.2359 -0.0029
15950W        W36230  15.951  16.928  13.579 -0.1423 -0.0092 -0.2995
15951W        W36231  13.396  15.071  12.759 -0.0358  0.2853  0.5594
15952W        W36232   2.087   8.923  16.529 -0.1068  0.2017 -0.0070
15953W        W36233   1.638  14.743   3.873 -0.0372 -0.4810 -0.1023
15954W        W36234   3.102  15.092   1.798  0.0943  0.1749 -0.0745
15955W        W36235   7.646  11.559  12.600 -0.1222  0.1076  0.0564
15956W        W36236  12.618   0.502  12.941 -0.2538  0.0616 -0.0906
15957W        W36237   4.099  13.323  15.900 -0.1297  0.0330 -0.1631
15958W        W36238   3.766  17.059   0.116  0.2416  0.0176 -0.0375
15959W        W36239  13.996   2.051   0.741  0.2610 -0.1599 -0.1300
15960W        W36240   6.174   6.147   3.105 -0.1285  0.1954  0.1948
15961W        W36241   4.364  13.106  13.376 -0.2709 -0.0502  0.1143
15962W        W36242  10.630   1.004  15.693 -0.2447  0.2233 -0.2372
15963W        W36243  14.721   3.046  16.540  0.1542 -0.0779 -0.1897
15964W        W36244   8.512   9.183   2.584 -0.1588  0.0125 -0.1818
15965W        W36245  11.400   3.056  13.375 -0.1844  0.2204 -0.0264
15966W        W36246   7.059   7.509   3.307  0.0308 -0.0237  0.1395
15967W        W36247   3.557  13.317   0.518 -0.0193 -0.0630 -0.2232
15968W        W36248  13.751  15.879   4.340  0.0522 -0.0157 -0.0373
15969W        W36249  14.457   7.335  15.046 -0.0089 -0.0975 -0.0958
15970W        W36250  10.611  11.999  16.783  0.1866 -0.0211 -0.0900
15971W        W36251  10.999  13.587   3.950 -0.0812  0.0735  0.1526
15972W        W36252   7.158  11.184  16.311  0.5848  0.0480  0.0155
15973W        W36253   2.230   7.073   3.428 -0.0629 -0.0304  0.1847
15974W        W36254  11.360   2.258  14.750  0.2021  0.0698 -0.1903
15975W        W36255   2.403   0.183   4.309 -0.1506 -0.0687 -0.1551
15976W        W36256   5.558  16.768   2.338  0.1811 -0.4662  0.1709
15977W        W36257   1.682   9.044  13.992 -0.2866 -0.1506 -0.2331
15978W        W36258  14.301  10.231   3.802 -0.1667  0.0258 -0.0619
15979W        W36259   4.753  12.794   4.674 -0.4555  0.1018 -0.2027
15980W        W36260   8.388   7.518   4.105  0.1325  0.2849 -0.0271
15981W        W36261  15.145  15.254   4.473 -0.3374  0.0209  0.0250
15982W        W36262   4.373   6.953   0.349 -0.2210 -0.0732 -0.1747
15983W        W36263   2.255  15.592   4.355  0.6319  0.2269 -0.0208
15984W        W36264   8.186   1.920   5.893  0.1013  0.1326  0.2298
15985W        W36265   8.568  17.600   1.196  0.1675 -0.0486 -0.0273
15986W        W36266  15.934   5.153   1.490 -0.0421  0.0279  0.2479
15987W        W36267  16.131   9.506  11.720  0.1527  0.3617  0.0198
15988W        W36268   9.922  17.535  15.460 -0.0091  0.2407 -0.1521
15989W        W36269  17.007  17.321   0.793  0.1103  0.2546 -0.2759
15990W        W36270  12.837   5.802  13.514  0.3319  0.2535  0.0424
15991W        W36271   8.921   9.787  13.754 -0.1553 -0.0877 -0.1916
15992W        W36272   2.339  14.557   3.469  0.4339 -0.1531 -0.2071
15993W        W36273  11.648   1.479  14.284 -0.0640 -0.0564  0.1371
15994W        W36274  11.050  11.889   1.429  0.1971  0.0397 -0.2738
15995W        W36275  12.527   3.784  12.577 -0.1231  0.0847 -0.0317
15996W        W36276  11.434  10.336  15.192  0.0252 -0.1921  0.2852
15997W        W36277  14.402   1.882  16.764 -0.1052  0.4219  0.0850
15998W        W36278  17.082  14.770  13.761  0.1690  0.2131 -0.2851
15999W        W36279   8.660  13.663  13.805  0.0202 -0.0587  0.0551
16000W        W36280  15.858  14.964  16.008 -0.2829 -0.3607 -0.3688
16001W        W36281  13.123  13.646   4.409 -0.0258  0.0625 -0.1461
16002W        W36282  14.317  12.449   2.917  0.3103 -0.2471  0.0547
16003W        W36283   6.927   9.407  15.321 -0.1045  0.3407 -0.3342
16004W        W36284  12.654   4.216  13.655 -0.1280  0.0810 -0.1189
16005W        W36285   7.102  17.510   2.129  0.1308 -0.2857  0.2287
16006W        W36286   4.896  17.387   0.350 -0.0045 -0.1409 -0.1825
16007W        W36287   5.496   4.207   2.322 -0.2082  0.3114  0.2183
16008W        W36288   4.335  17.355  13.601  0.0726 -0.0493  0.0925
16009W        W36289   1.254  17.710  12.455  0.1006  0.0276 -0.0867
16010W        W36290  15.341   2.420  12.929  0.1313 -0.1567 -0.2219
16011W        W36291  17.289  17.728  13.807 -0.1488 -0.0605 -0.2875
16012W        W36292  11.362  10.936  13.453  0.0364  0.1667  0.2398
16013W        W36293  17.494   7.045   2.155 -0.0690 -0.1361 -0.0816
16014W        W36294  15.615   8.484  15.351  0.1735  0.0250  0.0036
16015W        W36295  10.669   1.810   6.220  0.0029  0.0028 -0.1184
16016W        W36296   0.751  10.830   3.717 -0.0092  0.2332 -0.1041
16017W        W36297   5.923   7.077  15.849  0.1502  0.1633  0.0543
16018W        W36298  16.836   1.324  12.313 -0.1543  0.1001 -0.2015
16019W        W36299  11.375   1.666   3.379 -0.2774 -0.0166 -0.2790
16020W        W36300   8.645  10.426   3.155 -0.0166  0.1019  0.0502
16021W        W36301   0.448  14.734  12.282 -0.3053  0.0720  0.1623
16022W        W36302   9.279   6.084  14.674  0.0149  0.0891 -0.0063
16023W        W36303   7.259   3.300  16.200 -0.3433  0.1727  0.2152
16024W        W36304  11.156   2.894   1.980 -0.1899 -0.0516 -0.1430
16025W        W36305  10.456   8.073  15.285  0.2212  0.2510  0.1404
16026W        W36306   6.509  15.734   3.221 -0.1840 -0.1606  0.2878
16027W        W36307  11.043  16.786  13.617 -0.0861  0.0071 -0.1454
16028W        W36308  14.790  15.824   3.713 -0.0067  0.0257 -0.2733
16029W        W36309   6.143  16.919   4.417  0.3532  0.1369  0.0958
16030W        W36310  11.503   2.150  12.361  0.4397 -0.1868  0.2000
16031W        W36311   2.021   8.209   1.487  0.2292  0.0389  0.0030
16032W        W36312   9.578   0.556   0.992 -0.1248 -0.2550  0.3434
16033W        W36313  17.333   5.129   0.038 -0.0144 -0.0169  0.0115
16034W        W36314  10.141   4.769  13.645 -0.3973 -0.2831 -0.0671
16035W        W36315   9.407   7.257  15.297  0.3787  0.2892  0.0051
16036W        W36316   2.059   4.712   3.270 -0.1417  0.0873 -0.2170
16037W        W36317   5.138  11.586  13.504 -0.1316 -0.1008  0.1570
16038W        W36318  13.110   5.041   4.508  0.1890 -0.0293  0.0326
16039W        W36319  13.571   9.126  16.022  0.2343 -0.2584 -0.2067
16040W        W36320   4.386  15.416  15.405  0.1898  0.0283 -0.1406
16041W        W36321  13.632  11.435   1.103 -0.2926  0.0204 -0.1155
16042W        W36322   0.032  15.394   4.293  0.0907 -0.0358 -0.1762
16043W        W36323   2.495  15.612   2.615 -0.0543 -0.0760  0.0727
16044W        W36324   8.462  17.719  12.249  0.4158  0.1909  0.0868
16045W        W36325   1.035   9.208   2.730 -0.0016  0.1617 -0.0981
16046W        W36326  10.451   8.241   4.485  0.1236 -0.0142 -0.1379
16047W        W36327   7.959  10.034  14.171 -0.1587 -0.0559 -0.5762
16048W        W36328   2.403   9.639   0.746  0.1249 -0.3139 -0.0707
16049W        W36329  13.997  12.774  16.058  0.0909 -0.0249 -0.1207
16050W        W36330  13.636  10.337   1.459 -0.0754 -0.2130  0.0471
16051W        W36331   7.235   4.475   2.085 -0.0860  0.1518 -0.3226
16052W        W36332  15.443   8.307  14.438  0.4240 -0.2406 -0.1179
16053W        W36333   7.521   9.981  13.391 -0.0874  0.1077  0.0514
16054W        W36334   0.356   7.084  14.234  0.1744 -0.0371 -0.0187
16055W        W36335   7.319   9.109   3.713 -0.3519  0.3489  0.0898
16056W        W36336   1.607  17.070   1.170 -0.1218  0.0182  0.0392
16057W        W36337   9.131  10.740  15.502  0.3782 -0.1594 -0.0874
16058W        W36338   1.434   9.034   3.068  0.3511  0.1668 -0.1469
16059W        W36339  14.267  17.146   3.787  0.1037 -0.0572 -0.2054
16060W        W36340  17.022   0.551   3.931  0.2701 -0.0035  0.2918
16061W        W36341  12.219   9.116  16.265 -0.0995 -0.2226  0.1145
16062W        W36342   6.539   5.829  12.331  0.2114 -0.0149  0.0125
16063W        W36343  17.305  10.322  12.328  0.0576  0.3012  0.3214
16064W        W36344   4.785   3.024   2.521  0.0759 -0.0209 -0.1087
16065W        W36345  11.595   9.261  12.673  0.0011 -0.1587 -0.1270
16066W        W36346   4.813   6.688   1.050 -0.0619 -0.1328  0.2724
16067W        W36347   6.541   3.795  16.315 -0.1043 -0.1886 -0.0513
16068W        W36348   3.366   9.056   0.606 -0.0109  0.1568  0.1277
16069W        W36349  10.097  14.480  14.024  0.0415  0.0923 -0.0743
16070W        W36350  15.751   2.960  13.457 -0.2536  0.0762  0.1618
16071W        W36351   3.321  15.554   4.078 -0.2062 -0.0031 -0.0142
16072W        W36352  16.650   6.402  15.025  0.0636 -0.0842 -0.1287
16073W        W36353  12.386  15.306   0.729 -0.2793 -0.0556 -0.2057
16074W        W36354  14.956   4.807   3.960  0.0455  0.2863  0.0172
16075W        W36355   2.004   3.211   3.452 -0.0749  0.0901  0.1754
16076W        W36356   8.777   1.700   4.642  0.1380 -0.2665  0.0624
16077W        W36357  17.218   7.130  12.591  0.2062  0.0110  0.2709
16078W        W36358  14.344   3.129   4.895  0.1403  0.0399 -0.1656
16079W        W36359   8.778   2.048  15.959  0.2175  0.3721  0.0390
16080W        W36360  14.359   1.309   1.685 -0.2920  0.2778  0.0625
16081W        W36361  10.582   8.444   2.272  0.0481  0.0304  0.0589
16082W        W36362   4.453   4.537  12.861  0.0186  0.0378 -0.0781
16083W        W36363   5.422   5.655   3.043  0.1243 -0.0028 -0.0788
16084W        W36364   4.132   1.304   2.618  0.2611  0.0065  0.3208
16085W        W36365   9.635   8.401   3.847  0.1095  0.0257  0.2317
16086W        W36366   3.593  11.886  16.748 -0.1409 -0.0591  0.1573
16087W        W36367  14.609   1.711   0.484 -0.0337  0.1496  0.0609
16088W        W36368   0.794   3.763   4.743  0.0702  0.1738 -0.0053
16089W        W36369   9.553   0.789   2.760  0.0083 -0.1694  0.0539
16090W        W36370  10.650   2.832   2.496 -0.1021 -0.1628 -0.0362
16091W        W36371  16.655   7.892   1.080 -0.0293  0.0042  0.2500
16092W        W36372   9.488  15.938   1.656  0.3348 -0.3097 -0.1058
16093W        W36373  11.231  15.350   0.113  0.1653  0.0115  0.0946
16094W        W36374   8.375  14.955   0.584 -0.1959  0.1435  0.1378
16095W        W36375   4.994   3.114   3.692  0.0167  0.2907  0.0479
16096W        W36376  15.676  13.429   3.692 -0.1548 -0.1078  0.0448
16097W        W36377  15.239   3.281   3.914  0.2105  0.0872  0.0552
16098W        W36378   8.004   7.790  15.002 -0.1544  0.2963 -0.0426
16099W        W36379   6.756  11.123   3.415 -0.0408  0.1330 -0.0420
16100W        W36380  12.387   0.784  13.775 -0.1703  0.0604 -0.2734
16101W        W36381   2.882   4.848  12.012 -0.1464  0.2606 -0.1103
16102W        W36382   1.885  17.080  14.931  0.0528 -0.0918 -0.2024
16103W        W36383   7.038   0.289   3.885 -0.0889 -0.2982  0.1012
16104W        W36384  10.844   9.919  15.823 -0.0264  0.0810 -0.0141
16105W        W36385  17.681  16.101  16.407 -0.2080  0.0199 -0.1157
16106W        W36386  10.007  15.299  14.112 -0.1434  0.2639  0.3408
16107W        W36387  14.686   0.798  14.427 -0.1810 -0.1362  0.3429
16108W        W36388   8.360   9.275  12.156 -0.0893  0.3738  0.0047
16109W        W36389   9.444  15.461   4.804 -0.0102 -0.2291  0.1044
16110W        W36390  14.996  15.437  12.375  0.1410  0.3216 -0.1860
16111W        W36391   2.636  11.809  12.695 -0.0822  0.1858  0.1416
16112W        W36392   8.630   2.367  13.622  0.0864  0.2500 -0.1377
16113W        W36393   3.897   7.893  15.895  0.3051 -0.0106  0.0349
16114W        W36394   8.317  10.285   0.190  0.0677 -0.1779 -0.1901
16115W        W36395   4.287   7.164  15.338  0.0840  0.0310  0.3890
16116W        W36396   7.154  13.568  13.319 -0.2660  0.2669 -0.2541
16117W        W36397   3.991  12.992  15.480 -0.0773 -0.0617  0.0165
16118W        W36398   5.931   2.549  16.341 -0.1695 -0.1687  0.0859
16119W        W36399  11.310  14.651   3.928  0.1461  0.0799  0.0362
16120W        W36400  15.012   4.068   0.763  0.1531 -0.2000 -0.0649
16121W        W36401   5.249  10.186  14.626  0.0466 -0.0185  0.1749
16122W        W36402   5.570  15.643   3.045 -0.1347  0.0464  0.1101
16123W        W36403   0.974  12.971   0.853 -0.4308  0.0024 -0.1331
16124W        W36404   7.098   4.924   1.825  0.2392 -0.2153  0.0459
16125W        W36405  11.453   8.983   1.361  0.0142 -0.0195  0.2320
16126W        W36406  10.227   6.937  12.078  0.0872  0.1883 -0.1017
16127W        W36407  15.367  12.011   3.730 -0.0423  0.2975  0.0445
16128W        W36408   3.314  14.423  13.363 -0.3759 -0.2284 -0.0362
16129W        W36409  17.466   7.206  12.011 -0.0085  0.0844 -0.1726
16130W        W36410   5.423   3.401   0.480  0.0906 -0.2750  0.1054
16131W        W36411  13.414  12.512   2.745  0.0736  0.2036 -0.3898
16132W        W36412   7.314  10.109   0.025  0.0426 -0.1796  0.0237
16133W        W36413   4.126  12.024  12.723 -0.0806  0.1617  0.0842
16134W        W36414  17.250  11.884  13.198  0.0535  0.0179  0.0282
16135W        W36415  17.362  16.354   3.489 -0.1942  0.0586  0.0304
16136W        W36416   9.991  14.404  14.597  0.0962  0.2052  0.0886
16137W        W36417  12.906   1.956   1.189 -0.0610  0.4047 -0.0073
16138W        W36418  11.294   2.075  13.342  0.1737 -0.1719  0.0355
16139W        W36419  13.471  13.097  12.224 -0.0677 -0.2336 -0.0058
16140W        W36420   5.630  14.435  14.591 -0.1191 -0.0439  0.1281
16141W        W36421  13.241   1.836   3.404 -0.5423  0.0172 -0.2005
16142W        W36422  15.464  16.969  15.326 -0.1558 -0.2600 -0.1524
16143W        W36423  10.794   8.098   2.939 -0.0185  0.1006 -0.3661
16144W        W36424   9.988   4.244   0.642 -0.2256 -0.2095 -0.1060
16145W        W36425   9.775   7.708  13.620  0.1069 -0.1462 -0.1882
16146W        W36426   0.497   3.682   3.535 -0.0607  0.0983  0.2330
16147W        W36427  10.565  14.186  16.814  0.0355 -0.3767 -0.1390
16148W        W36428   0.633  12.381  11.893 -0.0447  0.0789 -0.3728
16149W        W36429  13.045   0.404   4.793 -0.2485  0.1392  0.2941
16150W        W36430   5.953  16.567   0.355 -0.1395  0.1692  0.1694
16151W        W36431  13.977  10.561  12.825 -0.2186 -0.3274 -0.4472
16152W        W36432   9.654  17.167   1.832 -0.0384  0.0922  0.2224
16153W        W36433  11.315  13.059  14.608 -0.0590  0.2605 -0.0449
16154W        W36434   3.199   9.221   1.569 -0.0034 -0.4264  0.0804
16155W        W36435   7.334   3.228  15.673  0.2834 -0.1028 -0.2017
16156W        W36436   2.356  11.375   0.070  0.0999 -0.0343  0.1968
16157W        W36437   2.088   5.644   3.685 -0.0018  0.1046 -0.1334
16158W        W36438   8.709  15.713  12.379 -0.0812 -0.0312 -0.1463
16159W        W36439  13.892  14.018   1.117 -0.5020 -0.0281 -0.0025
16160W        W36440  16.460  14.575   1.925 -0.1562 -0.3805 -0.2781
16161W        W36441  11.522  13.606  13.910  0.0371 -0.0435  0.0314
16162W        W36442  12.194  14.812   4.339 -0.0584 -0.0797  0.1768
16163W        W36443   2.344  11.657   3.124 -0.1889  0.1068 -0.3696
16164W        W36444  13.206   4.224   4.070 -0.1752  0.1918 -0.2042
16165W        W36445  12.129  16.369  12.421 -0.0151  0.2219  0.1042
16166W        W36446  15.727  17.036   1.142 -0.1831 -0.0234 -0.1263
16167W        W36447   6.316  12.777  12.325  0.1811 -0.1873 -0.0477
16168W        W36448  15.263   2.143  13.893 -0.0497  0.1374 -0.0226
16169W        W36449   7.533  16.471   2.257  0.2753 -0.0047 -0.3350
16170W        W36450  12.041  12.841   1.424  0.3284 -0.2021  0.0656
16171W        W36451  11.547   7.949  12.835 -0.0135  0.0615  0.0013
16172W        W36452  13.428   8.453   4.527  0.0539  0.3327  0.0995
16173W        W36453  13.096   1.499   4.632  0.1688 -0.0796  0.0720
16174W        W36454  12.152   9.301  13.140  0.2137 -0.0603 -0.0078
16175W        W36455  13.123  16.466  15.169  0.0567  0.0060  0.1045
16176W        W36456   6.263   9.108  12.939  0.1528  0.0527 -0.4165
16177W        W36457   8.642  14.232   0.928  0.4611 -0.1565  0.2022
16178W        W36458  16.494  14.101   2.861  0.2257  0.1594 -0.0940
16179W        W36459   2.672  11.794  14.266 -0.1349  0.0650  0.0696
16180W        W36460  16.866  10.106  13.819  0.1118  0.0611 -0.0400
16181W        W36461  13.918  15.747   1.660  0.0854  0.3535 -0.2841
16182W        W36462   3.109   5.941   3.966  0.1014 -0.1380 -0.0588
16183W        W36463   4.335  13.683  13.476  0.0502 -0.1907  0.1477
16184W        W36464   4.584  14.367   2.661  0.1230  0.1758 -0.0807
16185W        W36465  15.219   5.698   4.534 -0.1030  0.0433  0.1438
16186W        W36466  12.414   2.839  16.858 -0.0514  0.0200 -0.1733
16187W        W36467   6.386  16.646   4.035 -0.3630 -0.0283 -0.0558
16188W        W36468   9.664   9.030   4.848 -0.0075  0.0739 -0.1522
16189W        W36469  16.661   2.997  14.696 -0.0644 -0.1518 -0.2173
16190W        W36470   8.740   1.771   0.013  0.1271 -0.0932 -0.0843
16191W        W36471  10.591  16.632  12.168 -0.1268  0.0865  0.1282
16192W        W36472  15.861   8.601  13.204  0.1047  0.0211  0.0166
16193W        W36473  10.587   4.981  13.938  0.3019  0.2429 -0.1164
16194W        W36474  12.626  16.283   3.681 -0.2471  0.3758  0.1314
16195W        W36475   9.626   3.147  12.116  0.3158 -0.1714  0.0378
16196W        W36476   9.821   0.722   3.814 -0.0034 -0.0455  0.3399
16197W        W36477   5.215   4.363  13.325  0.3443 -0.0044 -0.0053
16198W        W36478  14.477  11.249  15.522  0.1949 -0.0840 -0.0809
16199W        W36479  10.289   6.522   4.392  0.3028  0.1201  0.5766
16200W        W36480   5.735  12.247  13.602  0.2358 -0.0751 -0.2784
16201W        W36481   6.796  16.098   0.766 -0.1159  0.2318  0.1226
16202W        W36482  11.461   5.068   1.943  0.1617  0.3067 -0.1372
16203W        W36483  16.422   4.151  16.835 -0.0533  0.1983  0.0683
16204W        W36484   8.402  14.719  16.458  0.2048 -0.0456 -0.0748
16205W        W36485   5.716   8.978  14.129 -0.1300 -0.0045 -0.1748
16206W        W36486  15.468  13.869   3.356  0.2757  0.1479 -0.0425
16207W        W36487  12.264   2.250   4.370  0.0889 -0.1441 -0.0767
16208W        W36488   4.195   6.859   1.789  0.2291 -0.0452  0.2343
16209W        W36489  16.498   9.613  16.465  0.0149 -0.1738  0.1556
16210W        W36490   1.193   1.086   2.563 -0.1268  0.0394 -0.3411
16211W        W36491  14.475  15.065  14.253 -0.0848  0.0755  0.1463
16212W        W36492  12.905  12.145  14.755 -0.0590  0.1640 -0.1585
16213W        W36493   8.343  12.430   0.984  0.0643  0.1459 -0.2053
16214W        W36494   9.925   0.453   4.559 -0.1142  0.2600 -0.0010
16215W        W36495   8.282  14.245   2.200 -0.3137 -0.1705  0.2462
16216W        W36496   7.210   1.511   3.294  0.0480 -0.2350 -0.0733
16217W        W36497  16.007   6.805   1.108 -0.0945  0.3179  0.1945
16218W        W36498  15.450   3.228   2.004 -0.0244  0.0294 -0.0430
16219W        W36499   7.691   8.364  15.780  0.0472  0.1213 -0.2771
16220W        W36500   5.953   0.371  12.660 -0.1287 -0.0845 -0.0469
16221W        W36501   7.369  14.228   2.119 -0.3060 -0.2738  0.0538
16222W        W36502  15.965   7.545  15.146 -0.1179  0.3634  0.0619
16223W        W36503   0.034  12.234  15.304 -0.2725  0.0776  0.0093
16224W        W36504   7.086   6.865  15.201 -0.2965 -0.0128 -0.1853
16225W        W36505   2.672  14.372  13.369  0.1170 -0.3486  0.1939
16226W        W36506  13.223   1.308   3.459 -0.0885  0.1924 -0.1775
16227W        W36507  15.250   2.982  14.311 -0.0255  0.0646 -0.1238
16228W        W36508   0.919   4.934   4.082 -0.2883 -0.0508 -0.4039
16229W        W36509   1.433   4.076   1.394 -0.1515 -0.2560  0.0130
16230W        W36510  10.946   8.591  14.657 -0.3581 -0.2404 -0.1935
16231W        W36511  11.333   3.625   3.419  0.0138  0.2319  0.0190
16232W        W36512   4.185   5.105   1.938 -0.0498  0.1452  0.0921
16233W        W36513   7.582   9.883   3.191 -0.0535 -0.0632 -0.2231
16234W        W36514   6.404   6.862  12.444 -0.2054 -0.0362  0.0844
16235W        W36515  12.481  12.358  12.918  0.1885  0.2864  0.2200
16236W        W36516   2.750   5.039  12.907 -0.0717  0.0944  0.0521
16237W        W36517  14.902  14.586   0.965  0.0757  0.4985 -0.1345
16238W        W36518  14.507  15.264  15.776  0.0959 -0.1209 -0.0319
16239W        W36519  12.088  15.078   3.893 -0.1975 -0.2009  0.0759
16240W        W36520   1.285   8.665  11.524 -0.3154 -0.1273 -0.1674
16241W        W36521  11.882   0.666  14.619  0.3483 -0.3668 -0.2679
16242W        W36522   7.776   8.643   2.069 -0.2191  0.0247  0.0089
16243W        W36523  12.933  10.163   3.594 -0.0034  0.0686  0.2575
16244W        W36524  14.217   0.725   0.542 -0.1348  0.0227 -0.1358
16245W        W36525  16.588   3.218   4.163  0.1254 -0.1593 -0.1788
16246W        W36526   8.341   8.866   1.361 -0.0298  0.0608 -0.1719
16247W        W36527   7.193  10.804   2.443  0.2061  0.2009 -0.1771
16248W        W36528  15.510  16.258   0.156  0.0533  0.0491 -0.4271
16249W        W36529  14.042   0.220  14.667  0.2656 -0.0217  0.0100
16250W        W36530   2.665  14.931   3.754 -0.0071  0.2147  0.0951
16251W        W36531   5.176   4.109   3.148 -0.2554 -0.0898  0.4611
16252W        W36532   3.972   0.648  15.021  0.0027 -0.1426  0.0471
16253W        W36533  13.177   4.709   0.060  0.1580 -0.2449 -0.0839
16254W        W36534  16.299   4.658   4.150  0.3873 -0.2995 -0.0899
16255W        W36535   4.867  14.817   2.612 -0.0610  0.2475  0.1702
16256W        W36536  10.202   4.974  16.256  0.1271  0.3993 -0.2086
16257W        W36537  10.274  15.767  15.891  0.0793 -0.1614 -0.0159
16258W        W36538   2.319   2.343   4.308 -0.0941  0.1128  0.2473
16259W        W36539  15.026  12.537   1.449 -0.2319  0.0359 -0.0549
16260W        W36540  14.136  16.955   2.180  0.1500  0.0332  0.1271
16261W        W36541   0.254   2.100   1.215  0.1472  0.2001 -0.2087
16262W        W36542  13.622   0.429   3.069 -0.0045 -0.0842 -0.1026
16263W        W36543  15.117  13.872  16.070  0.0524  0.0200 -0.0805
16264W        W36544   9.175   9.403  13.593  0.2344  0.1031 -0.0838
16265W        W36545   5.521  13.955  14.457 -0.1845 -0.1255 -0.0348
16266W        W36546   8.774   9.074  12.310  0.1868  0.2285 -0.4903
16267W        W36547  13.381   8.381  13.194  0.1128  0.0507 -0.0190
16268W        W36548   8.984   6.493  16.705 -0.1569  0.3828 -0.0529
16269W        W36549  16.658   0.660   2.867  0.4080 -0.2345 -0.0285
16270W        W36550  11.861  16.451   1.070 -0.2208 -0.3975  0.3061
16271W        W36551   7.756   1.526  14.910  0.0094  0.3900  0.2246
16272W        W36552   8.502  17.638   2.247  0.2034  0.1382  0.3215
16273W        W36553  16.959  11.901  12.348 -0.2596  0.0379  0.3062
16274W        W36554  12.061  10.807  15.721 -0.0221  0.3526 -0.1059
16275W        W36555  17.084   4.261  15.754 -0.2082 -0.0841  0.0360
16276W        W36556   4.022  13.373  13.121  0.2725  0.1943  0.0952
16277W        W36557   4.372  15.684   1.487  0.2296  0.0381  0.0676
16278W        W36558   4.944  13.239   1.582 -0.1772 -0.1739 -0.1599
16279W        W36559   2.009  16.386  12.964  0.2051  0.0866 -0.3040
16280W        W36560  16.887   6.887   4.181  0.0015 -0.0444 -0.0418
16281W        W36561   1.402  11.559  15.416  0.4052  0.0269  0.1622
16282W        W36562   2.810   3.184   2.760  0.0448 -0.1176 -0.0431
16283W        W36563  13.710   1.932   0.349 -0.2900  0.1023 -0.4299
16284W        W36564  11.943  15.774  15.890 -0.2197  0.0764  0.0935
16285W        W36565   4.270   9.936  15.844  0.0193  0.1629 -0.2261
16286W        W36566   1.980   1.452  14.353 -0.0337  0.3908  0.1972
16287W        W36567   0.887   4.293   0.084 -0.1769  0.0607 -0.0817
16288W        W36568  12.363  13.407   4.625  0.2103  0.0640 -0.4476
16289W        W36569   8.953  11.326  15.468 -0.1133  0.2355  0.3918
16290W        W36570   0.561   8.825   3.987  0.0657 -0.0553  0.0604
16291W        W36571  11.484   0.133   3.558 -0.0979 -0.1260  0.1781
16292W        W36572  15.345  12.063   1.325  0.3568  0.1690  0.0698
16293W        W36573   6.337   9.473   4.138 -0.2429  0.0534  0.0640
16294W        W36574   2.434  17.442   2.164 -0.1065  0.1944  0.4619
16295W        W36575   8.492   1.608   1.727 -0.3477  0.0819  0.2450
16296W        W36576  16.724  11.925   1.789 -0.0286 -0.2190 -0.1427
16297W        W36577  11.575  10.228  16.785  0.0402 -0.1958 -0.1377
16298W        W36578   3.686   2.071  16.573 -0.0513  0.0466  0.0540
16299W        W36579   5.848  12.593  14.575 -0.0871  0.2922  0.0979
16300W        W36580  14.845   6.883   1.821 -0.1574 -0.1551  0.2008
16301W        W36581  10.938   0.401   1.951  0.0325  0.0194 -0.0338
16302W        W36582   3.369   4.017   0.392  0.0907 -0.0719  0.1041
16303W        W36583  11.883  10.064   2.382 -0.2381 -0.0621 -0.1100
16304W        W36584  16.118   2.210   1.329  0.0498 -0.0419 -0.2231
16305W        W36585  15.704   9.455   3.739  0.2050 -0.1804 -0.0523
16306W        W36586  13.820  15.797  16.258 -0.0380 -0.1301 -0.1778
16307W        W36587   5.570   8.042  14.517  0.0070  0.0778 -0.4394
16308W        W36588  15.777   0.363   0.667 -0.2153 -0.3446 -0.0899
16309W        W36589   7.172   6.017  13.625  0.0110  0.0620  0.1405
16310W        W36590  16.567   8.903   3.246  0.1380  0.0647 -0.4211
16311W        W36591   2.212   1.575  16.228 -0.0884 -0.3945  0.2150
16312W        W36592   4.243  17.472  15.799  0.1637 -0.0659 -0.1760
16313W        W36593   8.532   7.227   3.679 -0.1233  0.0752  0.0265
16314W        W36594   7.123  17.225   4.382  0.1692 -0.2149 -0.1050
16315W        W36595   6.380   6.368  11.634 -0.0966 -0.0402  0.0137
16316W        W36596   7.428   3.216  12.573 -0.1037  0.0496  0.0963
16317W        W36597  12.861  12.736   1.030 -0.2097  0.0209 -0.1398
16318W        W36598  11.212   7.874   4.893 -0.0280  0.2095 -0.0666
16319W        W36599  10.903   6.797   3.411  0.0403 -0.0302 -0.2910
16320W        W36600  17.397   2.101   5.723  0.1008  0.0544 -0.4197
16321W        W36601  12.709  13.339  16.818 -0.2276  0.2518 -0.1159
16322W        W36602  13.074   3.958   2.076 -0.1274  0.0591 -0.0013
16323W        W36603  14.771  12.612  15.239 -0.2310  0.0420 -0.3035
16324W        W36604   6.388   7.194   0.613  0.0614  0.2534  0.1230
16325W        W36605   0.308   0.411   0.367  0.1605 -0.0459  0.1334
16326W        W36606   5.883  10.070  15.871 -0.0088 -0.2285  0.0467
16327W        W36607   8.421   0.179   2.721 -0.0109  0.0353  0.1505
16328W        W36608   1.204  11.194   3.652  0.1917 -0.2189  0.1936
16329W        W36609   7.924   2.168  13.364  0.0485  0.0059  0.2064
16330W        W36610  11.649  11.615  16.291  0.2829  0.1628 -0.2343
16331W        W36611  15.251  16.101   3.041 -0.3310  0.0462  0.0816
16332W        W36612   8.612  12.437   5.823 -0.0078 -0.1760  0.1362
16333W        W36613   9.381   1.445   0.667 -0.1691 -0.1368  0.2389
16334W        W36614   4.268  17.169   3.935 -0.1329  0.1370  0.1944
16335W        W36615   1.620  15.772   3.594  0.0604 -0.4211  0.0324
16336W        W36616  10.845  17.477   3.231  0.0010 -0.2612 -0.1542
16337W        W36617   2.307   7.236  16.827 -0.2169  0.0126  0.2548
16338W        W36618  13.558   8.379   0.906 -0.2973 -0.0449  0.2551
16339W        W36619  13.467  11.275  15.839 -0.2290 -0.3645  0.0377
16340W        W36620   9.012   6.939   0.120 -0.2944 -0.2291  0.0137
16341W        W36621   7.390  15.446  12.113 -0.0437 -0.3841  0.2667
16342W        W36622  11.503   1.825  15.304  0.1273 -0.0837 -0.1260
16343W        W36623  17.658   7.351  12.923 -0.0287 -0.2339 -0.1008
16344W        W36624  17.573   3.903   1.210 -0.2420  0.0048 -0.0469
16345W        W36625   3.234  13.153  16.460  0.0585  0.1449  0.0336
16346W        W36626   9.194  17.214  12.427 -0.1819 -0.0945  0.1076
16347W        W36627  16.881  14.244  15.791  0.0736 -0.2182  0.1259
16348W        W36628   9.183   0.666   0.224  0.2048 -0.2047  0.0228
16349W        W36629   7.116  16.974  15.421 -0.2447 -0.1754  0.0465
16350W        W36630   0.570  10.386   1.969 -0.0628 -0.1548 -0.0444
16351W        W36631  14.896   6.294   3.411  0.0937 -0.1656 -0.2579
16352W        W36632   7.339   6.438  13.378 -0.0925 -0.0282  0.2894
16353W        W36633   3.515  10.346   4.141  0.0820  0.0994  0.3530
16354W        W36634  10.559  13.504   3.664  0.2392  0.3340 -0.2093
16355W        W36635   1.093  13.903  14.706 -0.1375 -0.0326 -0.0682
16356W        W36636   8.885  16.363  15.557 -0.2169  0.2508  0.3153
16357W        W36637   5.051   6.522   2.003 -0.0496  0.2153 -0.1420
16358W        W36638   2.732   1.853  13.579  0.0218 -0.1969 -0.0172
16359W        W36639   4.715   7.851   1.658  0.0237 -0.1055  0.1475
16360W        W36640   3.879   7.293  15.058  0.2590  0.1235 -0.0341
16361W        W36641   8.032   8.028  16.376  0.1416  0.1302  0.1090
16362W        W36642   2.015   9.632  15.449  0.1266  0.3272 -0.0787
16363W        W36643   0.740  17.549   2.367 -0.0765 -0.0617 -0.4431
16364W        W36644   3.586  15.643  13.159  0.0587  0.1595 -0.1023
16365W        W36645   8.073  12.047   1.872 -0.0789  0.0533  0.2454
16366W        W36646  13.726   4.290   4.183 -0.1626  0.0882 -0.0649
16367W        W36647   1.813   1.256   1.593  0.1152 -0.2315 -0.4621
16368W        W36648  13.902   8.991  13.815  0.0999  0.3075 -0.0722
16369W        W36649   6.607   8.618  13.055 -0.0336 -0.1784 -0.2456
16370W        W36650   5.231  11.740   3.010 -0.0267 -0.1345  0.1661
16371W        W36651   8.988   1.666  15.640 -0.1133  0.4293 -0.0831
16372W        W36652  16.174   3.029  16.197  0.1506 -0.3269  0.2082
16373W        W36653   0.403  17.371  14.885 -0.3603 -0.2457  0.3699
16374W        W36654  10.911   8.087   2.341  0.0066 -0.3904 -0.1267
16375W        W36655   7.219   5.219   2.752  0.0767  0.1217  0.1622
16376W        W36656  14.189   6.827   0.580  0.1195  0.1345 -0.1683
16377W        W36657   1.415   1.964   2.625 -0.0665  0.0995 -0.0697
16378W        W36658   6.094   4.782  13.304 -0.3257  0.0914 -0.2304
16379W        W36659   2.093  17.277   2.908  0.2411  0.0310  0.1307
16380W        W36660  10.943   9.295  14.258  0.1138  0.1005 -0.0153
16381W        W36661   5.943  12.218   1.020 -0.2746  0.2192  0.1314
16382W        W36662   7.948  15.667   3.848 -0.2165 -0.4254  0.0881
16383W        W36663   2.572   0.683   3.476  0.2925 -0.2538 -0.0354
16384W        W36664   9.176  17.342  12.920  0.1374  0.1667  0.4538
16385W        W36665  12.868   9.199   4.032  0.0695  0.1180 -0.1225
16386W        W36666   8.676   8.440  14.939  0.1799  0.1983 -0.3083
16387W        W36667   2.796   2.089  14.098 -0.0258 -0.0682 -0.1600
16388W        W36668  14.166   2.410  12.629  0.0057 -0.2216 -0.0312
16389W        W36669  12.001  14.838   2.557  0.1325 -0.0684  0.0093
16390W        W36670   1.213  12.706  13.682  0.1487  0.3258 -0.1644
16391W        W36671   7.702   5.670   0.785  0.2056 -0.0681 -0.1879
16392W        W36672  13.322   1.027  14.697  0.3264  0.0543  0.2726
16393W        W36673  10.630   6.755   4.040 -0.4199 -0.0575  0.0679
16394W        W36674  14.451   9.379  16.723 -0.2273  0.2993  0.2716
16395W        W36675  15.597   1.680   1.970 -0.1797  0.2426  0.1185
16396W        W36676  14.806   7.870  14.476  0.0682  0.0238 -0.1306
16397W        W36677   5.533   1.416  16.278  0.2043  0.0230  0.0837
16398W        W36678   5.757  15.939  13.845 -0.0325 -0.0464  0.3085
16399W        W36679   4.708  13.696  16.723 -0.2161 -0.3154  0.3701
16400W        W36680   7.826   6.297   4.672 -0.1604 -0.0262 -0.1122
16401W        W36681   0.822  15.253  13.011  0.0261 -0.1502 -0.0452
16402W        W36682   5.608  17.603   3.444  0.0277  0.1386  0.3411
16403W        W36683   4.599  11.381  14.693  0.0601 -0.0088 -0.2686
16404W        W36684   0.670   6.934   4.343 -0.1472 -0.0454  0.0494
16405W        W36685   3.464  13.118  15.328 -0.0522  0.1101 -0.1302
16406W        W36686  16.830  14.587  14.676 -0.1112  0.0035  0.0404
16407W        W36687   3.209  10.067   1.861  0.3567  0.2262  0.3625
16408W        W36688   5.917   5.161  12.482 -0.2040 -0.0158  0.4893
16409W        W36689  12.407   7.909  15.340  0.2114  0.0432 -0.1205
16410W        W36690  14.636  10.765  15.498 -0.2013  0.2673 -0.1501
16411W        W36691   4.174   1.475   0.221 -0.2074  0.1169  0.0379
16412W        W36692  16.697  17.405   0.365  0.0964 -0.1545 -0.3046
16413W        W36693  13.044   9.728   1.147 -0.2554 -0.0701 -0.0034
16414W        W36694   5.386   0.833   0.715 -0.1030  0.1337 -0.1745
16415W        W36695  12.947   3.628  12.822 -0.3779  0.0700 -0.3125
16416W        W36696   9.939  15.647   3.155 -0.1193  0.2982 -0.0792
16417W        W36697   0.942   6.699   4.740 -0.1248  0.3088 -0.0339
16418W        W36698  12.565   6.159  14.807 -0.1422  0.2224 -0.1180
16419W        W36699  17.655  12.929  12.883  0.2150 -0.0064  0.0317
16420W        W36700   8.897   5.604  15.944  0.0204  0.1050 -0.1255
16421W        W36701   0.174  12.518  13.094  0.0821 -0.1790  0.2439
16422W        W36702   7.322   4.705   4.200  0.1246 -0.1964  0.0449
16423W        W36703   1.185  12.058   2.274 -0.1929  0.0770  0.0663
16424W        W36704   0.646   0.534   4.155  0.0303 -0.0071 -0.4114
16425W        W36705  12.993  10.585   0.808  0.2446  0.0435  0.2280
16426W        W36706   2.551  10.586   4.847 -0.1355 -0.2472 -0.1991
16427W        W36707  17.679  17.023  12.449  0.1092  0.1394  0.3162
16428W        W36708   0.530   4.960   3.391 -0.2754 -0.1133  0.0596
16429W        W36709   2.970   4.552  12.997 -0.1194  0.0522  0.0906
16430W        W36710   7.523   0.700   1.714 -0.0625  0.0188 -0.0186
16431W        W36711   1.168  16.900  14.365 -0.2206 -0.1090  0.0535
16432W        W36712  16.703  11.568  16.646  0.2264 -0.1608 -0.1860
16433W        W36713   5.420   0.144   3.074  0.1665 -0.0033 -0.0199
16434W        W36714   7.211   7.308  14.402  0.1541 -0.0799  0.3247
16435W        W36715   6.047   2.490  12.485 -0.0194 -0.2950  0.0741
16436W        W36716   0.855  12.333  12.396 -0.0350  0.2286  0.0023
16437W        W36717  11.896   6.575   3.313  0.1419  0.0537  0.2214
16438W        W36718  12.989   7.404   3.626 -0.1464  0.0360 -0.2533
16439W        W36719  12.944   2.767   0.049  0.1736  0.0299  0.0520
16440W        W36720   3.282   7.067  11.656 -0.0347 -0.0439 -0.0385
16441W        W36721   3.421   2.283  15.326 -0.4686  0.0372  0.0392
16442W        W36722   3.450  16.135  16.747  0.0467  0.3817 -0.1615
16443W        W36723  14.071  16.443   2.245 -0.1991  0.0771 -0.1701
16444W        W36724   6.465   8.350  15.639  0.1375  0.1539  0.1366
16445W        W36725   3.898   0.029  13.461  0.1483 -0.0065 -0.0361
16446W        W36726   2.460   1.876   2.629 -0.0484  0.0550 -0.3757
16447W        W36727  15.354   9.204  14.785 -0.0457 -0.0082 -0.0485
16448W        W36728  11.734   4.022  16.292  0.0712  0.1629 -0.2093
16449W        W36729   0.049  11.720   4.795 -0.0849 -0.0718 -0.0086
16450W        W36730  12.262   1.561  16.239  0.2342  0.3228  0.0941
16451W        W36731  11.842   1.769  16.651 -0.0051 -0.0182  0.0881
16452W        W36732   8.887   8.578  13.051 -0.3685 -0.0637 -0.0873
16453W        W36733  11.303   2.663  15.086 -0.0079  0.0985 -0.1080
16454W        W36734   4.074   4.745   2.230 -0.1867  0.2310  0.0466
16455W        W36735  14.416  10.356   0.770  0.1017 -0.2464 -0.1013
16456W        W36736   9.128  11.264  14.598  0.1190 -0.3731 -0.1318
16457W        W36737  11.055   1.390  12.037  0.3380  0.1934  0.2365
16458W        W36738  15.864   2.315   0.384 -0.0163  0.0428 -0.1178
16459W        W36739   3.589   0.509   2.599  0.0176 -0.1485 -0.0544
16460W        W36740   2.486  15.154   2.447  0.0450 -0.1301 -0.0180
16461W        W36741   6.416  16.335   3.058  0.1050  0.1735  0.1584
16462W        W36742  11.509  14.859   0.726 -0.0423  0.0050  0.0672
16463W        W36743   0.856  14.181  12.331 -0.1588 -0.1130  0.1070
16464W        W36744   2.531   1.835   3.573  0.1159 -0.0820 -0.3254
16465W        W36745   7.252  17.316   2.562 -0.0992  0.2200 -0.1856
16466W        W36746  16.096   9.730  12.700  0.0604  0.1801  0.1572
16467W        W36747   9.025   4.972   0.486 -0.1103  0.0702  0.1801
16468W        W36748   1.229   7.298  12.656 -0.2866  0.2416  0.1821
16469W        W36749  11.565  15.695  15.252 -0.1363 -0.3030  0.1781
16470W        W36750   4.546  14.674  16.757 -0.1570  0.2084 -0.0667
16471W        W36751  12.138  12.436  14.640 -0.1307  0.2361 -0.0798
16472W        W36752  10.347   8.504  12.770 -0.3433 -0.2931 -0.0250
16473W        W36753   6.099  10.649   2.412 -0.3552  0.0086  0.0848
16474W        W36754  11.775   8.656   1.494 -0.0409  0.1657  0.1986
16475W        W36755   3.857  10.477  13.222 -0.0461 -0.0819  0.1069
16476W        W36756   7.849  14.426   2.019 -0.1617 -0.0942  0.0138
16477W        W36757  13.431   6.245   1.743 -0.5283 -0.0103  0.2969
16478W        W36758   6.816  11.383  15.507  0.1072 -0.0939 -0.1233
16479W        W36759   6.830   3.896   2.149 -0.0577  0.0858  0.0212
16480W        W36760  16.937  12.216  14.159  0.0555  0.0652  0.3047
16481W        W36761  14.556   4.288   0.740 -0.2002  0.0143  0.1279
16482W        W36762  15.170  10.676  13.541 -0.0398 -0.0548  0.2509
16483W        W36763   8.171   2.862   3.480 -0.0267  0.2592  0.2088
16484W        W36764   7.352   0.400   4.351 -0.0211 -0.2643  0.1934
16485W        W36765   9.893   6.060   3.746 -0.0094 -0.0449 -0.0695
16486W        W36766  17.006  13.103  16.003 -0.2452  0.0176 -0.1377
16487W        W36767   4.224   4.043   3.278  0.1544 -0.0569  0.1841
16488W        W36768  16.842  15.313   2.805  0.1061 -0.1202 -0.0736
16489W        W36769   2.160   3.746   3.116  0.2815 -0.3518 -0.0197
16490W        W36770   9.808  16.632  15.718  0.2362 -0.0842  0.0808
16491W        W36771   2.070  17.692   1.991 -0.0156  0.0752  0.3752
16492W        W36772   8.650   3.408  14.288  0.2455 -0.0164  0.2037
16493W        W36773  16.433   1.090   2.636  0.0474  0.0977 -0.0605
16494W        W36774  15.091  16.637  14.507  0.2994  0.1382  0.2136
16495W        W36775   6.045  14.342   1.633  0.0955 -0.1048 -0.1611
16496W        W36776   9.994  15.521   4.917 -0.0649  0.1302 -0.1644
16497W        W36777  15.584   1.982  14.943  0.2179 -0.1170  0.0236
16498W        W36778   7.703   5.016   3.913 -0.0711  0.2993  0.3974
16499W        W36779  15.891   0.197   4.896  0.1350  0.0956 -0.1412
16500W        W36780   5.979   2.380   2.986 -0.1142 -0.0776 -0.0207
16501W        W36781  10.897   2.369  12.994 -0.0745  0.0382 -0.1191
16502W        W36782  16.753  13.644   2.858  0.0868  0.0566 -0.2763
16503W        W36783   3.786  12.477   3.835  0.1681  0.2128 -0.0201
16504W        W36784   4.064   6.993  12.512  0.2859 -0.2460  0.0466
16505W        W36785  13.251  13.415  16.693 -0.1572 -0.3263  0.2824
16506W        W36786  15.418  15.787   0.252  0.0660 -0.1928  0.0958
16507W        W36787  11.015   4.546  13.253  0.1613 -0.0969 -0.0977
16508W        W36788  16.494   4.265   2.745  0.1491 -0.0723 -0.0569
16509W        W36789   2.085   0.965   0.825  0.0783 -0.0599  0.0166
16510W        W36790  11.699  14.675  12.523 -0.1118 -0.1039  0.1677
16511W        W36791   8.139   2.550   1.478  0.1618  0.1301 -0.2825
16512W        W36792   7.732  13.739  16.586 -0.0709  0.1144 -0.3588
16513W        W36793   1.625   2.255   0.832  0.1868 -0.1210 -0.1417
16514W        W36794   0.085   6.078  12.415  0.1300  0.1477 -0.1612
16515W        W36795  12.233  12.416   4.553 -0.0825  0.1769  0.0641
16516W        W36796   6.238   0.260  13.439  0.4907 -0.2122 -0.2903
16517W        W36797  11.742   6.842  14.488 -0.0587  0.0017 -0.1013
16518W        W36798  11.871  16.250   4.410 -0.0460  0.3058  0.2289
16519W        W36799   9.011   8.536   2.218 -0.0321 -0.3263  0.0719
16520W        W36800   8.378  10.660  13.336  0.1860 -0.0518  0.0598
16521W        W36801   4.294   6.853  13.788  0.1961 -0.1296 -0.0759
16522W        W36802   4.526   9.519  13.761  0.2083 -0.1041 -0.3382
16523W        W36803  11.794   2.192   3.602 -0.0703 -0.1685  0.1216
16524W        W36804  11.988  13.428   0.789  0.1561 -0.0440 -0.1638
16525W        W36805   9.864   2.407   3.623 -0.0095  0.1968 -0.5262
16526W        W36806   7.819   0.720  12.626 -0.1050  0.0227 -0.0827
16527W        W36807  15.334   1.733   0.942 -0.0247 -0.0155  0.1611
16528W        W36808  10.136   8.252  16.291 -0.0138 -0.0465  0.0156
16529W        W36809  12.520  15.942   0.969  0.1333 -0.2466 -0.1672
16530W        W36810   8.262  16.168  14.078 -0.1423  0.0062 -0.0915
16531W        W36811   1.453  10.649   3.175 -0.0711 -0.1456 -0.1406
16532W        W36812   7.399   5.764   0.357 -0.0604 -0.0459 -0.1011
16533W        W36813   3.139  14.523   1.087 -0.1147 -0.0759  0.1341
16534W        W36814   9.454   2.986  15.445 -0.1264  0.0023  0.0104
16535W        W36815   6.727  10.184  15.556 -0.1697  0.0883 -0.0693
16536W        W36816  14.509   8.182  14.214 -0.0625 -0.6969 -0.1851
16537W        W36817   1.869  17.262  15.816 -0.0856  0.3113 -0.0290
16538W        W36818   7.771  15.789  13.155 -0.2907 -0.1143 -0.0442
16539W        W36819   8.631  15.554  14.609 -0.1374  0.1517 -0.2119
16540W        W36820   7.671  13.347   1.527  0.0955  0.1555  0.3526
16541W        W36821  14.924   6.422   0.000 -0.0901 -0.3698  0.2043
16542W        W36822   3.570   5.918   2.553  0.2367  0.0207  0.2302
16543W        W36823   4.945   6.429  14.589 -0.0315  0.0399  0.0546
16544W        W36824   8.824   9.224  16.270 -0.0661  0.2461 -0.0303
16545W        W36825  17.480  12.235  15.669  0.0245  0.2276  0.2154
16546W        W36826   7.020  10.185  12.235  0.1906 -0.2978  0.0818
16547W        W36827  17.736  17.505  12.613 -0.2247  0.2647  0.4485
16548W        W36828   0.005   5.415   2.762 -0.0674  0.0806  0.1151
16549W        W36829   1.820  14.919  16.431  0.1648  0.0484 -0.1176
16550W        W36830  12.303  12.230   1.066  0.3250 -0.2503 -0.1029
16551W        W36831  10.885  11.072   1.715 -0.0250 -0.1348 -0.0159
16552W        W36832   1.896   2.007  15.042  0.0590  0.2419  0.0078
16553W        W36833  17.694  15.504   3.134  0.2295  0.1705 -0.2628
16554W        W36834  13.768   6.369  13.808  0.2152 -0.1264  0.1019
16555W        W36835   6.437   1.389   0.959 -0.2536  0.2197 -0.2133
16556W        W36836  14.753  13.604   4.671 -0.0642  0.1764 -0.3386
16557W        W36837   2.845   6.034   0.555  0.1450  0.0961 -0.1633
16558W        W36838   5.036   2.338   3.032 -0.0688  0.2201  0.0742
16559W        W36839  15.733   9.141  14.324  0.0495 -0.0876 -0.1069
16560W        W36840   3.585  13.094   1.859 -0.1275 -0.0563 -0.0243
16561W        W36841  14.939   1.382   3.822 -0.0623  0.3385 -0.0614
16562W        W36842  15.734  11.264   2.249  0.3870 -0.0422 -0.0605
16563W        W36843  10.111  13.946  12.911 -0.0493  0.1512  0.2221
16564W        W36844   1.777  10.553   2.729 -0.1959 -0.1354  0.0262
16565W        W36845  14.447  14.227   0.286 -0.1114  0.2164  0.1245
16566W        W36846   3.653   3.344   3.311  0.0567 -0.0668  0.0381
16567W        W36847  16.642  14.503   0.892  0.0854  0.0362 -0.1145
16568W        W36848   8.957  17.331  14.385 -0.0369 -0.0705  0.1403
16569W        W36849   8.348   8.723   1.842 -0.3238 -0.0549 -0.0397
16570W        W36850  11.627   2.322  15.299  0.2394 -0.3125  0.3808
16571W        W36851   4.134  11.716  15.484  0.2161  0.0110  0.1121
16572W        W36852   4.505   1.725  13.751  0.1452 -0.1043 -0.0920
16573W        W36853   3.327  11.459  16.714 -0.1932 -0.1777  0.3991
16574W        W36854   4.474   8.432   2.562  0.1297 -0.1101  0.0170
16575W        W36855  12.398  15.305   4.202 -0.0037  0.0254 -0.1012
16576W        W36856   2.199  10.129   1.610  0.3282  0.0978 -0.1046
16577W        W36857   3.879  16.816  16.529 -0.0472 -0.1593 -0.1864
16578W        W36858   9.240  12.896  16.709 -0.0200 -0.0158 -0.1024
16579W        W36859  10.483  14.227   4.382 -0.1103  0.3226  0.1180
16580W        W36860   0.741  13.192  14.066 -0.1937 -0.2975  0.1113
16581W        W36861   3.075   7.515  16.269  0.3134 -0.0902  0.0489
16582W        W36862  15.699   7.808   1.176 -0.0257  0.3104  0.1052
16583W        W36863  16.685  11.813  12.875  0.0190  0.1374  0.0095
16584W        W36864   0.366   2.125  12.800  0.0764 -0.2531  0.0061
16585W        W36865  16.545   6.068   0.761  0.3189  0.1174 -0.0877
16586W        W36866   9.028   6.211   3.917  0.0996  0.1733  0.0850
16587W        W36867   9.711  12.787  14.981 -0.1410 -0.1770  0.2578
16588W        W36868  15.810  12.512   0.433 -0.0908 -0.3079  0.1944
16589W        W36869  11.898  17.639   2.666  0.0786  0.0286  0.1986
16590W        W36870  12.536   1.918  16.473  0.0185  0.1574 -0.1679
16591W        W36871  14.372   8.529  15.687  0.0193 -0.2282 -0.1204
16592W        W36872   8.463   8.815  16.138 -0.1547 -0.3088 -0.0702
16593W        W36873  16.196   8.282  12.942 -0.1200 -0.1022 -0.1692
16594W        W36874   1.980  16.339  15.620  0.2536  0.0154 -0.0428
16595W        W36875   6.769  13.481   4.553  0.1113  0.1998 -0.1043
16596W        W36876  15.714   2.980  14.919 -0.0646 -0.3531  0.1462
16597W        W36877  13.576  12.982   2.671 -0.1399 -0.1730 -0.2568
16598W        W36878   4.959   4.145  12.361  0.1455 -0.1038 -0.1834
16599W        W36879  16.692   1.694  15.273 -0.1766  0.1636 -0.2722
16600W        W36880   2.862   6.418  14.915 -0.0778 -0.0317 -0.1720
16601W        W36881  13.437  16.567  13.754  0.1512  0.2283 -0.0124
16602W        W36882   2.604   5.159  16.493  0.1518 -0.1946 -0.2206
16603W        W36883  15.033   5.970  16.839  0.1136 -0.2338 -0.0952
16604W        W36884  12.682  10.391   1.833 -0.2230  0.1380 -0.0073
16605W        W36885  16.502   2.801  16.483 -0.2769  0.0980  0.2088
16606W        W36886  16.979   9.894  14.394  0.1100 -0.1284 -0.2318
16607W        W36887   8.317  10.846   3.066  0.0406 -0.1858  0.3457
16608W        W36888  16.732  15.709  14.093 -0.2118 -0.1610  0.2920
16609W        W36889   0.801  11.933  13.712  0.0784  0.0353  0.0952
16610W        W36890  17.475  11.125   4.977  0.2979  0.1822  0.0664
16611W        W36891   9.331   4.541  13.855  0.0327 -0.1001  0.0316
16612W        W36892   3.830  15.615  12.192  0.1508 -0.2649 -0.2283
16613W        W36893   3.223  13.525  15.562  0.2601 -0.1198  0.1731
16614W        W36894  17.105  15.493  15.097  0.0898 -0.0963  0.2252
16615W        W36895   8.703  11.193  13.472 -0.3419  0.1934 -0.1104
16616W        W36896  12.761   4.355   1.262 -0.2070  0.2302  0.0252
16617W        W36897   1.736  16.346   4.659 -0.2789  0.0585 -0.0459
16618W        W36898  15.543  13.956  12.124 -0.1142 -0.3775 -0.1428
16619W        W36899   6.329   4.808   3.630 -0.0630 -0.1308 -0.0320
16620W        W36900  11.807   2.597  16.313  0.1488  0.4382  0.2993
16621W        W36901   6.699  12.026   0.635 -0.2982  0.0990  0.2223
16622W        W36902   5.125  11.857  12.921  0.0052  0.0931  0.1206
16623W        W36903  14.421   6.026  14.662  0.4077 -0.1581 -0.0684
16624W        W36904   1.444   5.948   0.141 -0.0120  0.1200  0.0885
16625W        W36905   4.250  17.461   4.574 -0.0217 -0.3338 -0.2715
16626W        W36906  12.539   1.729   5.178 -0.0650 -0.0076  0.2244
16627W        W36907   8.339  13.759   3.308  0.2070 -0.2008 -0.3283
16628W        W36908   9.072  11.923   2.968 -0.0108 -0.3097  0.0588
16629W        W36909   0.803  14.374   4.108  0.0985 -0.1511 -0.1035
16630W        W36910   8.018  10.162   4.527  0.2687  0.1390 -0.1814
16631W        W36911   3.476   0.552   3.495 -0.0609  0.1130 -0.0333
16632W        W36912  13.592  11.948  14.247 -0.0190 -0.1568  0.3047
16633W        W36913  17.724  15.011  16.145  0.0498 -0.1785 -0.0970
16634W        W36914   8.560  16.710   1.207  0.0223  0.1451 -0.0264
16635W        W36915   5.863  11.085  14.992  0.0853  0.0288  0.1029
16636W        W36916  12.759   1.718   0.004 -0.0559  0.0182  0.0816
16637W        W36917  10.498   3.713   0.989  0.0758 -0.0102 -0.0587
16638W        W36918   5.204   9.625  15.724  0.1271  0.2186 -0.1273
16639W        W36919  11.413   9.468  16.392  0.0604  0.0480 -0.2472
16640W        W36920  13.970   2.556   1.564 -0.1058  0.0727 -0.0921
16641W        W36921   1.140  16.070   5.375  0.0662 -0.4007 -0.0411
16642W        W36922  17.022  17.113  13.040  0.0150 -0.2796 -0.2760
16643W        W36923  13.643  11.148   3.167  0.2735 -0.2887 -0.1885
16644W        W36924  11.939   7.935  13.501  0.0737 -0.0146  0.0596
16645W        W36925   3.087  13.946   0.891 -0.1190 -0.0502  0.1329
16646W        W36926  12.774  11.800  15.226  0.3371  0.0138  0.0326
16647W        W36927   4.294  11.514   3.497 -0.3373 -0.1420  0.1652
16648W        W36928   7.450  13.595  16.186  0.0342 -0.0204  0.1331
16649W        W36929   8.313   3.236   0.932 -0.0032  0.0725  0.0548
16650W        W36930  16.181   8.675   3.654 -0.0178 -0.0642 -0.4402
16651W        W36931  14.165  11.764  15.667 -0.3833 -0.0033  0.2109
16652W        W36932  11.785   3.668   1.238  0.0826  0.1102  0.0613
16653W        W36933   1.855  17.166  16.705  0.0857  0.0339  0.1515
16654W        W36934  14.863   2.089  15.963 -0.0412  0.1115  0.1647
16655W        W36935   3.205   4.968  12.573 -0.1927  0.0492  0.0329
16656W        W36936   2.219   7.751  12.942  0.0434 -0.0904 -0.1432
16657W        W36937  17.389  14.256   4.655 -0.1893 -0.0479  0.2491
16658W        W36938   3.083  13.462   2.596  0.0605 -0.0288  0.1041
16659W        W36939   3.897   4.929   2.651  0.2903 -0.1860 -0.1711
16660W        W36940   4.555  17.374   2.338  0.0534  0.0771  0.2670
16661W        W36941  13.971   3.688   3.495 -0.1036  0.0454  0.0748
16662W        W36942   0.261  11.190   1.752 -0.3325  0.0386 -0.0274
16663W        W36943   2.002   8.923   4.817 -0.2227  0.0896  0.0447
16664W        W36944  15.677   6.436   4.739  0.0394 -0.1368  0.0385
16665W        W36945  14.886   1.470   0.773  0.0107 -0.1020  0.2425
16666W        W36946   2.932   7.303  16.834  0.0957 -0.3932 -0.0450
16667W        W36947   5.187  11.085   1.503  0.1577 -0.0062 -0.0576
16668W        W36948   4.306  16.651   0.570 -0.1018  0.0979  0.4182
16669W        W36949  12.371  11.156  13.012  0.1307  0.0007 -0.0449
16670W        W36950  10.607   4.729   1.930  0.1972 -0.0481  0.0573
16671W        W36951  15.356  11.985  12.561  0.2345  0.0992  0.0788
16672W        W36952  15.040  11.663   3.533  0.0182  0.0443 -0.4143
16673W        W36953   5.422  12.733  14.434  0.2843  0.0032 -0.2320
16674W        W36954  10.067  16.222   5.015  0.1535 -0.0644 -0.0409
16675W        W36955  16.797   6.058  13.188  0.0612 -0.0197 -0.0463
16676W        W36956   1.970  11.881  14.028 -0.1892 -0.1566 -0.1499
16677W        W36957   8.483   6.636   3.097  0.1080 -0.2103 -0.0801
16678W        W36958  12.345  14.554   3.892  0.0018  0.0577  0.3688
16679W        W36959  13.703   7.534  14.515  0.2112  0.0047 -0.1349
16680W        W36960   2.081  17.389  12.932 -0.2433  0.0812 -0.0257
16681W        W36961   0.702   0.748  12.982 -0.2586  0.2414  0.4100
16682W        W36962   1.773  12.419   4.604 -0.1071 -0.0335 -0.1400
16683W        W36963   5.064   7.744   3.439 -0.1593  0.0895 -0.2711
16684W        W36964   9.661   0.247  15.444 -0.0016 -0.0538 -0.0166
16685W        W36965   9.494   0.693  13.305 -0.1253  0.0468  0.2513
16686W        W36966   8.038   8.567   3.892 -0.1874  0.0985  0.3128
16687W        W36967  17.568  15.595  13.171 -0.1336  0.3755 -0.0714
16688W        W36968   9.367  16.147  15.789  0.2257  0.0440  0.4781
16689W        W36969  17.721  13.691  12.452  0.1408  0.1856  0.0283
16690W        W36970   5.183   2.640   3.869 -0.0106 -0.1895  0.0991
16691W        W36971  10.637   7.151   0.114  0.2731  0.2253 -0.2266
16692W        W36972  11.252   0.648   2.706  0.0144  0.1690 -0.1400
16693W        W36973  11.375   4.145   0.928 -0.3133  0.1117 -0.2090
16694W        W36974   8.687   0.546  16.191 -0.0845 -0.0893  0.0465
16695W        W36975   4.391   1.961   0.267  0.4241 -0.1688 -0.1944
16696W        W36976  11.279  16.889   4.850  0.0516  0.0407 -0.1088
16697W        W36977  11.500   8.269   3.055  0.1585  0.3268  0.0618
16698W        W36978  16.520   1.237   0.101  0.1495  0.1257 -0.1888
16699W        W36979  10.479  11.726   3.742 -0.0780  0.1739  0.0191
16700W        W36980   9.540   5.285  15.340 -0.2023 -0.0940 -0.1817
16701W        W36981  12.289   5.455   1.316  0.2428 -0.4250  0.2003
16702W        W36982  13.554  11.658   4.535  0.0404 -0.0018  0.0322
16703W        W36983  13.742   3.345  16.410  0.2402  0.1514  0.3213
16704W        W36984  16.717  11.471  12.518  0.1976 -0.1834  0.1549
16705W        W36985  15.669   5.554   3.195  0.4815  0.0118 -0.2856
16706W        W36986   8.454   5.650  16.518  0.0174 -0.1570  0.0980
16707W        W36987   7.740   8.380  14.028 -0.1579  0.5438  0.0176
16708W        W36988  14.263  15.464   2.386  0.0478  0.1588  0.0637
16709W        W36989  17.410  15.942   1.756 -0.4916  0.1337  0.3440
16710W        W36990   1.257  12.970  15.140  0.0627  0.0171 -0.0836
16711W        W36991  16.615  15.711   0.319 -0.1290  0.0347  0.0682
16712W        W36992   1.260   0.353   1.502 -0.0433  0.2064  0.4189
16713W        W36993   2.508   2.989  14.463  0.2309 -0.1081 -0.0391
16714W        W36994  15.128  17.403   1.693  0.1607 -0.3522  0.1913
16715W        W36995  10.321   0.764   4.439 -0.0885  0.1208 -0.5701
16716W        W36996   0.582  13.921  15.789  0.0962 -0.0750  0.2085
16717W        W36997  17.267  13.780   4.772  0.2746 -0.0500 -0.1547
16718W        W36998   9.708   9.916   0.578  0.0635 -0.1398  0.0176
16719W        W36999   3.246   9.701  14.164  0.1243  0.1917  0.0920
16720W        W37000  16.923   2.086   1.851 -0.3012 -0.1047  0.2247
16721W        W37001   1.484  12.381  13.912 -0.1228  0.0793  0.0014
16722W        W37002  10.140   9.174   2.316  0.1257 -0.1367  0.5018
16723W        W37003   8.385  13.708   0.222  0.2995 -0.0522 -0.1194
16724W        W37004   6.733   9.259   3.865 -0.0106 -0.0689  0.2509
16725W        W37005   7.677   3.170   1.077 -0.0668 -0.0597  0.2598
16726W        W37006   9.270   4.245  16.806 -0.0677  0.3029 -0.0021
16727W        W37007   8.185   7.298  13.234  0.0122  0.0924 -0.2508
16728W        W37008   2.166   2.266  13.776 -0.1545  0.3310  0.0889
16729W        W37009  16.978  13.497   1.736  0.0106 -0.0969 -0.1809
16730W        W37010  15.415  12.713   2.607 -0.1322 -0.0033 -0.3902
16731W        W37011  11.464   2.348  12.923 -0.0406 -0.1550 -0.0535
16732W        W37012   6.827   7.169   2.190  0.1497 -0.0085 -0.3222
16733W        W37013  14.844  13.948   2.129  0.0347 -0.1043  0.1531
16734W        W37014   1.658   1.830   3.142 -0.1689 -0.2310  0.0069
16735W        W37015   0.815   5.964   1.360  0.0271 -0.0539 -0.0634
16736W        W37016  16.360  12.423   1.816 -0.2445 -0.0164  0.2804
16737W        W37017   0.061  17.326   3.055  0.0569  0.0535  0.1130
16738W        W37018  15.502  16.852  15.809 -0.2985  0.1580 -0.0675
16739W        W37019   6.423  11.933  13.049 -0.1576 -0.0724 -0.1419
16740W        W37020   9.514   2.648  14.303 -0.0512 -0.0168 -0.1684
16741W        W37021   0.529   6.220   2.315  0.1857  0.0789 -0.1753
16742W        W37022   5.991   3.085   4.091  0.0935  0.0897 -0.2916
16743W        W37023  10.677   7.319   1.622 -0.3234 -0.4257  0.2239
16744W        W37024   6.503  16.581   4.620  0.0000  0.3580  0.0778
16745W        W37025   2.500   3.048  13.001 -0.0275 -0.1294  0.1513
16746W        W37026   4.381  10.235  12.567 -0.3956  0.1268 -0.1472
16747W        W37027   2.219   2.669  15.710 -0.1266 -0.1195  0.0345
16748W        W37028  13.985   7.080  14.464  0.0777 -0.1700  0.2185
16749W        W37029  10.265   1.039  12.068 -0.1077 -0.2826 -0.0797
16750W        W37030  15.835   8.092  14.165 -0.1998  0.0304 -0.0534
16751W        W37031   9.756   9.060  15.861 -0.1768  0.0176 -0.0434
16752W        W37032  13.776  15.292  16.469  0.3578 -0.1444 -0.0223
16753W        W37033   2.396   8.749   0.599  0.0551 -0.1910  0.3204
16754W        W37034  14.371   3.744  12.905 -0.2919  0.2129  0.0278
16755W        W37035   1.448  12.488  15.906 -0.1857  0.0903 -0.0074
16756W        W37036  15.495  12.968   3.544  0.0854 -0.1581 -0.0457
16757W        W37037   0.139   9.924  12.428  0.1687  0.2522 -0.1279
16758W        W37038  16.109   1.689  13.736  0.1216  0.4237  0.1271
16759W        W37039  12.773   5.576  16.793  0.0624  0.0920 -0.1663
16760W        W37040  14.067  11.885   0.999  0.1749  0.3088  0.1755
16761W        W37041  10.869  12.679   2.614 -0.2114 -0.0999 -0.2004
16762W        W37042   2.044  14.602  14.166  0.1497 -0.1221  0.2462
16763W        W37043   7.493   9.325  16.072  0.0198 -0.1102 -0.2302
16764W        W37044   7.835  15.007   0.229  0.1698  0.2626  0.1917
16765W        W37045  17.381   5.276  13.041 -0.0235 -0.0491 -0.0671
16766W        W37046   6.232  15.755   1.591 -0.1265  0.2018  0.3349
16767W        W37047  17.459  11.697  14.508 -0.1691  0.0638 -0.0523
16768W        W37048   7.111   1.245   4.104  0.1827  0.0190 -0.1860
16769W        W37049  10.585  12.385   0.145 -0.2059  0.0565 -0.0762
16770W        W37050   6.762   8.745  12.119  0.0827 -0.0333  0.4152
16771W        W37051   0.994   6.823  15.035 -0.1134 -0.0254  0.0659
16772W        W37052   0.651   8.644  12.123 -0.0670  0.1862 -0.0986
16773W        W37053  17.660  12.985   1.805  0.0418 -0.2596  0.4598
16774W        W37054  17.133  15.034  12.513  0.0808 -0.1186 -0.0732
16775W        W37055  13.469  15.749  13.950 -0.0724 -0.0574 -0.0070
16776W        W37056  16.616   7.377   3.917 -0.1321  0.1227  0.1002
16777W        W37057   1.054  11.780  11.199 -0.2144 -0.0904  0.2337
16778W        W37058   4.552  15.214  14.918 -0.0825 -0.2795  0.2069
16779W        W37059   2.722  14.193   2.687  0.2956  0.3436  0.0126
16780W        W37060  16.160   5.587   3.054  0.3739 -0.0066  0.0824
16781W        W37061  10.187  11.719  12.669 -0.1854  0.0206  0.0221
16782W        W37062   8.644   2.254   0.109 -0.2004  0.4790 -0.3244
16783W        W37063   7.527  12.956  16.731  0.1971 -0.2805  0.1684
16784W        W37064  16.592  13.163   4.612 -0.0436  0.1023 -0.3216
16785W        W37065   9.672   4.632  13.447  0.0939 -0.2468  0.0935
16786W        W37066  13.793   8.863   2.060  0.1063 -0.0110 -0.1617
16787W        W37067   6.432  15.366  14.777  0.3478 -0.1765 -0.3963
16788W        W37068  14.783   8.201  12.585  0.1082 -0.0011  0.1733
16789W        W37069   4.725   7.684   3.034  0.2907 -0.0221  0.0936
16790W        W37070   1.203   0.824  14.317 -0.1646 -0.3143 -0.0736
16791W        W37071  15.266   4.589   3.064 -0.0683 -0.3896  0.0348
16792W        W37072  14.893   7.553   3.205 -0.2022  0.1258  0.0782
16793W        W37073  11.918   9.483  13.603 -0.0760 -0.0235 -0.1459
16794W        W37074   1.887  13.715  14.136  0.1071  0.1156 -0.0860
16795W        W37075   6.128   1.153  15.793  0.2047 -0.1532  0.0678
16796W        W37076   4.481  15.742   4.968 -0.0619  0.2576 -0.1753
16797W        W37077   7.289   8.501   0.912  0.3111  0.1105  0.0165
16798W        W37078   2.832   1.754  15.073  0.0713 -0.1655  0.1144
16799W        W37079  13.636   0.898   2.635 -0.1682  0.0655  0.0236
16800W        W37080   3.118   8.798   4.090 -0.1269 -0.0749  0.0085
16801W        W37081  12.617  14.307  13.097  0.0124 -0.0532 -0.4185
16802W        W37082   9.305  10.532  15.041  0.0873  0.1944  0.0009
16803W        W37083  13.402   7.082   2.305  0.0065  0.1207 -0.0543
16804W        W37084   6.418   2.474  16.227 -0.0936 -0.2283 -0.2247
16805W        W37085   2.104  13.635  13.145  0.3057 -0.0528 -0.0702
16806W        W37086   1.750   9.376  15.092 -0.0608  0.1288  0.4086
16807W        W37087  16.986  12.913   3.792  0.3039 -0.1462 -0.1189
16808W        W37088   1.096  11.613   2.605 -0.1913  0.0184 -0.0892
16809W        W37089  12.562  16.705   4.493  0.0530 -0.0172 -0.3152
16810W        W37090  14.075   4.852   1.392  0.0706 -0.1532  0.0810
16811W        W37091   0.622  10.299   3.661  0.1495  0.0900  0.2388
16812W        W37092   7.111   7.871   1.575  0.3804 -0.1204  0.0855
16813W        W37093   5.157  15.148   1.041 -0.2083 -0.2304  0.1931
16814W        W37094   1.525   0.583   0.416 -0.2456  0.1215  0.0988
16815W        W37095  15.729   3.695  12.437  0.0169 -0.2242  0.0401
16816W        W37096   5.642   6.246   1.406  0.0075  0.2635 -0.0058
16817W        W37097   9.924   2.410  12.153  0.1806 -0.0251  0.2287
16818W        W37098   7.866  16.872   2.171 -0.1249 -0.0506 -0.0234
16819W        W37099   6.240   9.567   2.723 -0.1356  0.2024 -0.2264
16820W        W37100   7.215   0.839  14.385 -0.1987 -0.0757  0.2687
16821W        W37101   2.881  12.204  12.954 -0.2928 -0.2242  0.0661
16822W        W37102   2.084   6.941  12.726  0.0622  0.0430  0.0656
16823W        W37103  12.401   5.669   2.256 -0.1682 -0.0253 -0.2678
16824W        W37104  14.839   4.883   3.106  0.0605  0.0796 -0.2040
16825W        W37105  10.571  13.454  15.480  0.0619 -0.1140  0.1581
16826W        W37106   5.064   3.781  15.382 -0.0118 -0.0052 -0.0119
16827W        W37107   6.026   7.934  15.471  0.0726  0.2411  0.0038
16828W        W37108   8.884   0.093  13.532  0.0884  0.1827  0.0940
16829W        W37109  13.001   9.328  15.332 -0.1742  0.1380  0.4846
16830W        W37110  15.812  16.280   0.549 -0.2131 -0.1816  0.2046
16831W        W37111   1.878   2.035  14.122  0.2382  0.2374  0.0769
16832W        W37112   1.281  14.030  16.088  0.2716  0.1724 -0.4396
16833W        W37113  15.913  14.917   1.214 -0.0541  0.0299 -0.0297
16834W        W37114  11.203   4.593  12.083  0.3424 -0.0895 -0.1376
16835W        W37115   5.273   9.316  16.143 -0.0577  0.1017  0.0811
16836W        W37116  15.333   3.940  12.720 -0.1597 -0.2912  0.0509
16837W        W37117  13.654  11.829   2.183 -0.0759  0.1621  0.2110
16838W        W37118   4.130  15.858  15.463 -0.0917  0.0985 -0.2080
16839W        W37119   9.022   3.916  15.671 -0.0924  0.1082 -0.1573
16840W        W37120  13.338   5.305  14.744 -0.0302 -0.3250 -0.0480
16841W        W37121   8.035   1.287  12.606 -0.5543  0.0373  0.0314
16842W        W37122   5.760   1.588  15.876  0.3612 -0.1142 -0.0572
16843W        W37123  10.091  11.194   3.174  0.0677 -0.1929  0.1027
16844W        W37124  16.686   0.347   1.005  0.1687  0.2180 -0.0072
16845W        W37125  11.609  11.657   4.893  0.2118 -0.2027 -0.1242
16846W        W37126   2.980   0.851   1.377  0.1145 -0.2427 -0.2753
16847W        W37127   6.096  17.161   1.153  0.3995  0.0281 -0.1110
16848W        W37128   4.114  14.630   3.597  0.0013 -0.0500  0.0194
16849W        W37129   8.575  12.482  16.179 -0.2425 -0.1757 -0.3577
16850W        W37130   4.325  16.252   3.020 -0.0572  0.0538  0.4190
16851W        W37131  12.610   8.605   0.379 -0.0023  0.1576 -0.3287
16852W        W37132  13.544  12.883   4.186  0.1734 -0.2237 -0.1883
16853W        W37133   7.301  16.510   1.362  0.1428  0.0066 -0.2105
16854W        W37134  10.048  15.762  14.727 -0.0787 -0.0516  0.1384
16855W        W37135  11.508   5.790   4.191 -0.1131 -0.1612 -0.0650
16856W        W37136   7.045  13.822   2.897  0.2342  0.0207  0.0064
16857W        W37137   5.398   0.000  15.435  0.0351 -0.0610  0.0804
16858W        W37138   5.205  14.747   5.300  0.0737 -0.0017  0.0363
16859W        W37139   3.787   7.448   4.530  0.0620 -0.1182  0.3634
16860W        W37140   3.792  14.392   1.614  0.1107 -0.0381  0.1449
16861W        W37141  14.313  13.984  14.751 -0.1652 -0.0924  0.2066
16862W        W37142  14.507  13.882   3.475  0.0931  0.0363 -0.3907
16863W        W37143   9.763  15.538  12.402  0.0048  0.1166 -0.2687
16864W        W37144  14.177  15.083   1.033 -0.0574 -0.1185 -0.1920
16865W        W37145  10.593   0.413  16.505 -0.1098  0.1103  0.4234
16866W        W37146   0.617   7.147  14.730  0.4926  0.1394 -0.0309
16867W        W37147  14.686   6.859   4.928  0.0686 -0.2042  0.3500
16868W        W37148  17.150   5.440   4.806  0.1829  0.0555  0.0749
16869W        W37149   4.865   1.644  13.394 -0.1821 -0.1646 -0.1699
16870W        W37150   5.091   9.558  16.886  0.0392  0.2572  0.0357
16871W        W37151  16.101  11.227   0.457  0.0460  0.0334  0.1820
16872W        W37152  11.222   1.757  14.887  0.2304 -0.3470  0.2215
16873W        W37153   8.258   4.396   0.706 -0.1279  0.2353 -0.1321
16874W        W37154  16.374  12.162  12.713  0.1669  0.0712  0.0096
16875W        W37155   0.926   3.234   0.947 -0.3209  0.2227 -0.0935
16876W        W37156   0.116  16.913  15.281  0.3253 -0.1710  0.2184
16877W        W37157   5.826   0.939  14.021 -0.1882  0.1519 -0.0023
16878W        W37158  17.053   2.800  13.942  0.0065 -0.1355 -0.0233
16879W        W37159   4.687   0.900  15.465  0.0711  0.3113 -0.0012
16880W        W37160  10.266  15.343   2.824 -0.0290 -0.2289 -0.1114
16881W        W37161  12.968   1.762  12.381 -0.0133  0.2189  0.1405
16882W        W37162   8.918   8.688   4.487  0.0638  0.0455  0.0152
16883W        W37163  11.613   9.985  14.341 -0.1658 -0.0020 -0.1535
16884W        W37164   2.833  15.652   1.786  0.0426  0.0212  0.1652
16885W        W37165  15.053  17.156   0.323 -0.1551  0.1422 -0.0843
16886W        W37166  11.537   0.366  16.867 -0.1388 -0.0362  0.3774
16887W        W37167   7.219   1.779   0.312 -0.2100 -0.1243 -0.0308
16888W        W37168   7.943  10.408  15.282  0.3197  0.0007  0.1601
16889W        W37169   5.098   4.353  16.184  0.0288  0.0526  0.2438
16890W        W37170   1.955   2.387   3.954 -0.1350  0.0810 -0.1179
16891W        W37171  17.343  12.465   0.681 -0.1721 -0.0547  0.3075
16892W        W37172  13.589   4.855   0.336  0.0599  0.0219 -0.1192
16893W        W37173  15.210  17.011   4.012 -0.0791  0.1777 -0.1512
16894W        W37174  17.072  10.074  13.362 -0.2690 -0.1627 -0.4089
16895W        W37175   1.576  14.444  12.375 -0.2156 -0.1776 -0.0734
16896W        W37176  16.320  17.255  13.762  0.0846 -0.0838 -0.1142
16897W        W37177  15.898   2.504  12.045 -0.1801  0.0578 -0.0816
16898W        W37178   9.778  11.012   3.513 -0.1211  0.2316 -0.1092
16899W        W37179   9.229   8.323  13.312  0.1148 -0.1815 -0.1890
16900W        W37180   1.853   6.573  13.052 -0.0738  0.1166 -0.0195
16901W        W37181  13.317  15.876   0.114  0.2489 -0.1852  0.2316
16902W        W37182   3.214   4.456  13.931  0.1318  0.1814  0.3471
16903W        W37183   3.321   3.768  13.639  0.2185  0.1785  0.1176
16904W        W37184   1.964  11.720  16.881 -0.1368  0.1517  0.3969
16905W        W37185  14.239   6.785  13.076 -0.0535  0.1066 -0.0877
16906W        W37186  12.486  10.134  13.169  0.0190  0.0165  0.0027
16907W        W37187   1.530   2.556   3.882 -0.0710  0.0650  0.2248
16908W        W37188  11.487   4.781   2.673 -0.1243  0.1031  0.3275
16909W        W37189   3.571   4.322  15.685  0.0154 -0.2270 -0.0365
16910W        W37190   3.326  11.170   2.074  0.1049  0.3058  0.0036
16911W        W37191   6.067   1.053   2.993 -0.1448 -0.2347 -0.0048
16912W        W37192  15.493   3.461   3.074 -0.0024  0.1014  0.2689
16913W        W37193  15.581  13.612   0.166  0.4481  0.1494  0.2107
16914W        W37194  13.020   5.987   1.929 -0.0817 -0.1054 -0.1316
16915W        W37195   0.225   4.118  13.334  0.2971  0.1752  0.0707
16916W        W37196  12.666  13.404  15.965  0.0181 -0.1238  0.0397
16917W        W37197   1.120   9.686  12.386 -0.1903  0.2233  0.0564
16918W        W37198  11.492   6.110   0.501  0.4770  0.0127 -0.0821
16919W        W37199  15.700  16.676   4.664 -0.1233  0.2632 -0.0228
16920W        W37200   3.046   5.011  13.290 -0.1255 -0.1166  0.2107
16921W        W37201  11.927   6.974   2.105 -0.1638 -0.1846 -0.1608
16922W        W37202   8.385  15.121  16.123 -0.0023  0.0191 -0.3495
16923W        W37203  10.032  11.028   2.700 -0.0529  0.0782  0.0627
16924W        W37204   7.237   6.998  12.411 -0.0749  0.2222  0.1800
16925W        W37205  10.454  15.869  16.798 -0.2968 -0.2915  0.3904
16926W        W37206   9.472   8.938   3.357 -0.3749  0.1522 -0.2731
16927W        W37207  12.773   4.390  12.700 -0.0024  0.1085 -0.2129
16928W        W37208   2.822   9.403  12.915 -0.0861  0.0988 -0.0048
16929W        W37209  14.282  17.525   1.447 -0.0504  0.0873  0.0323
16930W        W37210  12.620  12.071   2.103  0.0367 -0.0055  0.0717
16931W        W37211  16.677  10.216  14.267 -0.0493 -0.2014 -0.2217
16932W        W37212   5.045   9.309  15.295  0.0472 -0.0732 -0.0619
16933W        W37213   4.210   3.574   1.210 -0.2306  0.0524 -0.0051
16934W        W37214   0.349  11.305   0.937 -0.1776  0.0893 -0.3446
16935W        W37215   8.271  13.310  12.341 -0.0996 -0.2360 -0.0721
16936W        W37216  16.262  10.839   0.073  0.2282  0.0694  0.1290
16937W        W37217  15.503   1.712   3.913  0.1283 -0.1789 -0.0695
16938W        W37218  15.448  15.056   3.414  0.0469  0.2638 -0.1055
16939W        W37219   2.195  14.347  15.827  0.1766  0.0620 -0.1029
16940W        W37220   8.960   7.206   0.570  0.0462 -0.1484 -0.3093
16941W        W37221   3.506   8.909   3.759  0.0093 -0.0460  0.1103
16942W        W37222  11.509   4.760  12.520 -0.1630 -0.0909 -0.0600
16943W        W37223   3.859  16.675  14.895  0.1744  0.0385 -0.1250
16944W        W37224  17.510   2.050   2.932  0.0561 -0.2413  0.0775
16945W        W37225  17.685  15.015   2.953 -0.0153  0.1195 -0.0049
16946W        W37226   1.811   7.853   1.699  0.0690 -0.0659 -0.1451
16947W        W37227  10.077   4.793  16.711 -0.2293 -0.1229 -0.0383
16948W        W37228   4.931   6.844   3.151 -0.1159  0.1382 -0.0454
16949W        W37229  12.098  16.169  13.963  0.0739 -0.0660  0.1252
16950W        W37230   9.388  13.455  15.510  0.0964  0.0472  0.2142
16951W        W37231   8.548  11.613  15.419 -0.0183  0.0965 -0.1364
16952W        W37232   0.367   8.718   2.508  0.2292  0.2424  0.1051
16953W        W37233  15.025  12.980   3.377  0.0378  0.1028 -0.2014
16954W        W37234   1.036   0.960   4.795  0.2687  0.0918  0.1156
16955W        W37235   6.106  14.645  14.309 -0.1018  0.1602 -0.1054
16956W        W37236  14.906   1.119  16.669 -0.2589  0.1943 -0.2862
16957W        W37237   2.025   2.812  11.759  0.1491 -0.1598 -0.3087
16958W        W37238  13.000  12.043   0.592 -0.2273  0.2090  0.0857
16959W        W37239  16.310   4.361   3.703  0.1881  0.0816 -0.0876
16960W        W37240   0.786   0.257  15.780  0.0668 -0.2757 -0.2356
16961W        W37241  11.449  13.517  16.502 -0.1356 -0.0181  0.0064
16962W        W37242   6.226  11.008   4.644  0.0922  0.1047  0.1502
16963W        W37243   8.444   9.790   0.080 -0.1885  0.0126 -0.1300
16964W        W37244   3.357  15.110   2.351 -0.2093  0.3296  0.0526
16965W        W37245  16.238  10.137  12.938 -0.0700  0.2409  0.2719
16966W        W37246   6.913  14.778   0.840  0.3706 -0.1452  0.1700
16967W        W37247   5.879   5.543   2.289  0.0312  0.1017  0.0735
16968W        W37248   2.733  12.364   0.124  0.0521  0.1543 -0.1664
16969W        W37249  13.092   3.373  12.421 -0.1366  0.0433 -0.0379
16970W        W37250   3.432   4.820  13.012 -0.2115  0.0603 -0.3160
16971W        W37251   0.807  13.882   3.317 -0.3000  0.1522  0.0514
16972W        W37252  16.547  10.216  13.324 -0.2515  0.0313 -0.1313
16973W        W37253  15.133   1.333  13.800  0.0939  0.0323 -0.1318
16974W        W37254   8.247  13.807   2.481  0.1131  0.1817  0.0016
16975W        W37255  14.449  10.928   2.465 -0.1477  0.1487  0.1007
16976W        W37256   0.247  14.889  13.534 -0.2842 -0.1577  0.4142
16977W        W37257   1.983   9.866  13.523  0.1538  0.2075  0.0015
16978W        W37258  17.069  15.502  16.031  0.2584 -0.2491 -0.0493
16979W        W37259   8.844   0.342  12.264  0.3319  0.1440 -0.1761
16980W        W37260  17.448   5.922   2.807 -0.0106 -0.0332 -0.1872
16981W        W37261  17.599   4.872   0.798  0.1789  0.0426  0.0195
16982W        W37262   5.214   6.583  12.500 -0.0453 -0.0478 -0.2511
16983W        W37263   3.181   7.749  15.093  0.0634  0.0400 -0.1012
16984W        W37264   6.940  11.195  12.994 -0.2749  0.2376  0.0682
16985W        W37265   9.189  11.040   3.314 -0.1682  0.1992 -0.1641
16986W        W37266  11.804  10.701   1.697 -0.3359  0.0894 -0.0573
16987W        W37267   1.941  14.246   0.298  0.2665  0.3141 -0.0963
16988W        W37268   6.474  17.314  14.890 -0.1399 -0.0321 -0.1412
16989W        W37269   4.025  14.170  15.527 -0.1309  0.2396 -0.2077
16990W        W37270  12.117   1.990   2.833 -0.0900 -0.2310 -0.0113
16991W        W37271   3.253  13.676   1.321  0.0207 -0.4479  0.2307
16992W        W37272   5.051   3.810   5.838 -0.1235 -0.1873  0.0469
16993W        W37273   8.857   2.180   4.418 -0.0470  0.3073  0.0623
16994W        W37274   7.286  15.179   0.130  0.1398 -0.1378 -0.0779
16995W        W37275  11.596   8.917   4.163  0.0480 -0.1975 -0.0115
16996W        W37276   7.396  13.116   0.799  0.1672 -0.0213  0.0305
16997W        W37277  10.433   6.801  14.787  0.0162  0.0375  0.3131
16998W        W37278  17.233   4.461  13.612 -0.0884 -0.0092  0.0595
16999W        W37279   0.854   5.918  11.578 -0.1150  0.1110  0.0274
17000W        W37280  16.550   9.860  15.666  0.2171 -0.0169 -0.1561
17001W        W37281   4.230  13.209  16.400 -0.1121 -0.2271 -0.0491
17002W        W37282   2.995   8.974   1.935  0.2219 -0.2418 -0.3170
17003W        W37283  16.993   9.441   3.503 -0.4590  0.0017  0.1167
17004W        W37284   3.474   3.442   2.266 -0.0506 -0.2259  0.1855
17005W        W37285   0.871   8.389  13.978 -0.0066  0.0331  0.0835
17006W        W37286  12.077  11.887   2.063  0.3033  0.1896  0.2056
17007W        W37287   2.987   5.251   4.558  0.0308  0.1063 -0.0371
17008W        W37288  11.025  15.144  14.346  0.1082 -0.0757  0.2074
17009W        W37289  17.061  14.093   0.080  0.2324 -0.1124  0.1920
17010W        W37290   4.638   9.797   4.035 -0.0376  0.2360 -0.2132
17011W        W37291  15.274   0.749   4.527 -0.0105  0.1654  0.0893
17012W        W37292  13.319  16.247  16.598  0.3761 -0.0389  0.1147
17013W        W37293   1.116   0.956  13.230 -0.0760  0.0406 -0.0372
17014W        W37294   1.930   8.895  14.936  0.0534  0.0785  0.1140
17015W        W37295  13.064  14.333  15.255  0.1172  0.4917  0.2335
17016W        W37296   6.217  10.447  12.845 -0.1929  0.1691 -0.1152
17017W        W37297  17.258   8.831   0.847 -0.1191 -0.1316 -0.1484
17018W        W37298  13.739   7.020  13.988 -0.2248 -0.0847  0.0132
17019W        W37299  13.910  11.129  12.835  0.2396  0.1550  0.2742
17020W        W37300   2.346  14.543  14.999 -0.0831  0.1240 -0.0849
17021W        W37301   3.778   5.661  12.556  0.1247  0.0018 -0.0154
17022W        W37302   1.326  10.252  15.272  0.1124 -0.1831 -0.2270
17023W        W37303   8.081  12.139   4.677  0.3443 -0.1050  0.2102
17024W        W37304  12.537  16.577   0.374  0.1030 -0.1193  0.0174
17025W        W37305   1.103   2.714  15.213 -0.1483  0.0179 -0.0981
17026W        W37306  12.258  13.621   1.634 -0.1045  0.2311 -0.0085
17027W        W37307   4.007   8.602  16.033 -0.1662 -0.0153  0.0197
17028W        W37308   8.637  17.646   0.290  0.3184  0.0490  0.2624
17029W        W37309   2.100   7.970   2.689  0.2872 -0.2152  0.2605
17030W        W37310  16.243  15.958  12.443  0.1381 -0.2358 -0.1059
17031W        W37311   7.143   5.876   2.954 -0.0889 -0.2114 -0.0537
17032W        W37312   8.943   1.979  15.203  0.0339 -0.2218 -0.1362
17033W        W37313   7.642  15.636   1.755  0.0082 -0.0351  0.0678
17034W        W37314  13.281   9.859  13.194 -0.0115 -0.0436  0.1445
17035W        W37315   0.829   4.260   0.831  0.3123  0.1303  0.0496
17036W        W37316  11.415   7.746  16.547  0.1757  0.1999 -0.1426
17037W        W37317   5.802   6.926  13.030 -0.1806 -0.0296 -0.1086
17038W        W37318   7.083   3.926   3.911 -0.2949  0.4998 -0.0676
17039W        W37319   4.310  14.146  16.537  0.0871  0.0949  0.3341
17040W        W37320  15.866  11.097   0.038 -0.0153 -0.0190 -0.0440
17041W        W37321   0.926   1.768   4.423 -0.0599  0.0996 -0.0405
17042W        W37322   7.893   2.853   3.978 -0.1968  0.2080  0.0369
17043W        W37323   6.074  15.952  14.225 -0.0169  0.0269 -0.2089
17044W        W37324   3.634  14.271   4.310  0.1136  0.0498 -0.1988
17045W        W37325  16.217  15.117  14.672  0.0890  0.1063 -0.0408
17046W        W37326  16.710   4.373   1.388 -0.2347  0.1076  0.0318
17047W        W37327   8.119  11.161  15.998  0.1371  0.0758  0.0219
17048W        W37328   0.589   4.864  14.467 -0.0902  0.0233 -0.0414
17049W        W37329   3.492   9.100  12.608  0.0927 -0.1458  0.1205
17050W        W37330  16.051  15.563   1.160  0.0767 -0.1273 -0.0426
17051W        W37331   9.845  10.556   1.831  0.1450  0.4751 -0.1673
17052W        W37332  11.635  15.453  14.803 -0.0947 -0.0150  0.1491
17053W        W37333   9.508  10.987  16.768 -0.0951  0.1135  0.1744
17054W        W37334   8.048   1.029   4.315  0.0913 -0.2029 -0.1790
17055W        W37335   8.922  14.603  15.935  0.1253 -0.2396  0.3181
17056W        W37336   2.085  15.322  16.567  0.0215  0.2751  0.0269
17057W        W37337  13.548   2.708   3.186 -0.1313  0.1052  0.1044
17058W        W37338   3.154  15.552   4.565  0.0793 -0.0985  0.0735
17059W        W37339  14.263   7.749   2.716 -0.0115  0.2591  0.0720
17060W        W37340   5.636  10.343  12.782  0.0227  0.0281 -0.0081
17061W        W37341  14.786  15.623  15.384  0.2604 -0.0689  0.1708
17062W        W37342  10.390   4.053  11.673 -0.0114  0.1461 -0.2264
17063W        W37343   1.724  10.979   4.950  0.0816  0.1353 -0.0861
17064W        W37344   8.502   6.228  12.457 -0.0802 -0.1129 -0.1179
17065W        W37345   2.525   6.215   2.390 -0.2524  0.3049  0.0342
17066W        W37346   4.777  16.280   2.693 -0.0767  0.0444 -0.1443
17067W        W37347   0.593  15.062   1.552 -0.0082 -0.1754  0.2210
17068W        W37348   7.510  12.060   2.236 -0.0402  0.1209 -0.0331
17069W        W37349  16.000  10.842  16.484 -0.0721 -0.4458 -0.1327
17070W        W37350   9.317  14.956   2.155 -0.4520  0.0911  0.0919
17071W        W37351   7.093   2.246  15.590  0.1071 -0.2949  0.0394
17072W        W37352  14.989   3.016  15.569  0.1688 -0.0969  0.1072
17073W        W37353   7.698  16.855   3.426  0.0098  0.3453 -0.2968
17074W        W37354  15.039  11.067  16.773 -0.0021 -0.0721  0.1644
17075W        W37355   1.042  12.591  15.612  0.0037  0.1918  0.1596
17076W        W37356   9.723   6.433  16.535 -0.0526  0.1296  0.2212
17077W        W37357   0.491   5.735   2.874  0.3207 -0.3074 -0.1376
17078W        W37358   8.975  15.383   2.786 -0.2006  0.1027  0.0768
17079W        W37359   4.977   8.535  13.826 -0.1049 -0.2311 -0.1102
17080W        W37360  11.227   8.599  15.632  0.4135 -0.0980  0.0352
17081W        W37361  15.412  12.670  16.458  0.0941  0.4295 -0.3314
17082W        W37362   7.384   3.436   3.688  0.0384 -0.0460 -0.0251
17083W        W37363   3.185   0.082   1.352 -0.1003 -0.1365  0.1305
17084W        W37364  16.116   2.026  13.396  0.2745 -0.1045 -0.2572
17085W        W37365   2.044  14.651  12.563 -0.2621 -0.2868  0.0283
17086W        W37366  17.453   1.769   3.327  0.2811 -0.0503  0.0507
17087W        W37367  13.953   8.362   4.225  0.0972 -0.2246  0.1586
17088W        W37368   5.006  12.185   0.752  0.1185 -0.4965  0.0076
17089W        W37369  11.066   4.139  12.241  0.0504  0.0679  0.1278
17090W        W37370  13.551   0.327   4.777  0.0006 -0.1643 -0.0905
17091W        W37371   3.240  12.270  16.837  0.2118  0.0309  0.0136
17092W        W37372   4.736  10.745   3.570  0.1728  0.1674 -0.1786
17093W        W37373  11.126   6.892  12.642  0.3951  0.3177  0.0745
17094W        W37374  17.027   9.709  13.014  0.0326 -0.0668  0.4535
17095W        W37375  17.347  17.196   1.893  0.1523  0.0451 -0.0472
17096W        W37376   6.061   7.564  13.868  0.1102  0.1182 -0.1473
17097W        W37377   7.176  15.006  16.243  0.1880  0.0450  0.1107
17098W        W37378  14.336   4.199  13.070  0.0285  0.0362  0.0918
17099W        W37379   0.294   7.111   3.336  0.2790  0.2928 -0.0343
17100W        W37380  14.360   3.757  15.465  0.0573  0.1403  0.1733
17101W        W37381   8.899   5.986  16.277  0.0167 -0.5063  0.0960
17102W        W37382  15.626   5.442   4.199  0.2255 -0.0687 -0.0517
17103W        W37383   0.387  13.118  15.532  0.0432 -0.0965 -0.0561
17104W        W37384  12.671   6.472   2.630  0.1653  0.1133 -0.0870
17105W        W37385   0.526  14.009   0.240  0.0968 -0.0176 -0.0545
17106W        W37386  14.902   4.164  12.466  0.0936 -0.0690  0.1401
17107W        W37387  11.165   1.502  12.611 -0.0974 -0.0581  0.1575
17108W        W37388  12.684  13.056  12.423 -0.1806  0.1962 -0.3242
17109W        W37389   6.201   0.944   5.559 -0.1113 -0.2708 -0.1697
17110W        W37390  15.511  13.895   0.573  0.0322  0.1027 -0.0308
17111W        W37391   9.164  11.637   4.489 -0.1584 -0.0475 -0.1317
17112W        W37392   5.173  10.305  12.418 -0.0612 -0.0690  0.1025
17113W        W37393  14.691  16.619   3.051  0.1115 -0.0999 -0.1799
17114W        W37394   1.187  14.013  14.199 -0.0676  0.3445 -0.1374
17115W        W37395   9.716   3.849   3.225 -0.1734 -0.0544  0.0360
17116W        W37396  13.112   7.230   1.442 -0.0516 -0.2323 -0.1597
17117W        W37397   2.608  17.078  16.280  0.0791  0.1163  0.0733
17118W        W37398   1.193   3.704  12.370 -0.0268 -0.2226  0.0288
17119W        W37399   3.427   8.412  16.677  0.2822  0.1562  0.0944
17120W        W37400  16.782   0.202   1.552  0.1262  0.1085 -0.1831
17121W        W37401   4.603  16.092   4.612 -0.1271 -0.0594 -0.1207
17122W        W37402  13.889   6.856  12.606 -0.1090 -0.2377  0.2911
17123W        W37403  13.567  14.101  13.721  0.0369  0.2226  0.1561
17124W        W37404  13.133  13.863   3.603  0.1878  0.0112 -0.0401
17125W        W37405  14.610  15.956   0.804  0.2688 -0.3559 -0.1351
17126W        W37406   1.291   9.287  16.373  0.1427 -0.0565 -0.5180
17127W        W37407   0.057   2.039   2.094 -0.0055  0.1763  0.1449
17128W        W37408   5.189  14.590   2.161 -0.1288 -0.3406  0.2009
17129W        W37409   7.625  11.065   1.612 -0.3605  0.1147 -0.0508
17130W        W37410  13.624   6.862  12.159  0.0832 -0.1068  0.2408
17131W        W37411   3.148   7.225   1.007  0.0584 -0.1282  0.0935
17132W        W37412   5.925   4.458   4.295  0.2052 -0.1924 -0.0420
17133W        W37413  12.472   4.315   3.737  0.2307  0.0028  0.1708
17134W        W37414   1.967  15.295  15.967 -0.1441  0.1024 -0.0677
17135W        W37415   6.886  11.256   0.496 -0.2801  0.0763 -0.0881
17136W        W37416  11.155  10.235  12.930 -0.0518  0.3330  0.1355
17137W        W37417  12.672  16.640   4.003  0.1949  0.1751 -0.1076
17138W        W37418   2.813   9.846   3.488 -0.2426 -0.1865  0.0135
17139W        W37419   8.402  10.333   4.805 -0.0359 -0.1436 -0.1084
17140W        W37420  14.283   7.977   4.597  0.0049 -0.0809 -0.3162
17141W        W37421  14.091   3.280   3.183  0.0380  0.0020 -0.0641
17142W        W37422   3.958   5.183  12.285  0.3125  0.0230 -0.3687
17143W        W37423   5.925   2.467  15.058 -0.0924  0.0809  0.0781
17144W        W37424   7.398  10.713   0.270 -0.2572 -0.0517 -0.0089
17145W        W37425  12.368   5.206  13.636  0.1267  0.2030  0.1061
17146W        W37426  10.378   9.418   0.978  0.0071  0.3037 -0.0997
17147W        W37427  15.829   3.277   1.251 -0.1278 -0.3036  0.1177
17148W        W37428  16.154  16.812   4.464  0.1310 -0.0952 -0.1105
17149W        W37429  13.328   4.171  14.717 -0.0423 -0.0253 -0.0660
17150W        W37430  12.073  15.235  15.726  0.1255  0.0554 -0.0679
17151W        W37431  11.179   8.004   1.751 -0.0991 -0.0997  0.0493
17152W        W37432  12.640   9.558   4.811  0.1233 -0.3995  0.0461
17153W        W37433  10.591   6.509  12.673  0.1434 -0.2302  0.0316
17154W        W37434   2.048   5.853  12.354 -0.3108  0.1250 -0.0763
17155W        W37435  13.086   4.752   3.069  0.2237 -0.0160 -0.1196
17156W        W37436   4.163  14.544  12.289  0.1354  0.2446 -0.1335
17157W        W37437  16.463   9.475  15.972  0.2142  0.0497  0.1196
17158W        W37438   5.417  17.460   3.912  0.1678 -0.0036 -0.1106
17159W        W37439   9.495  10.933  12.085 -0.3648  0.0240 -0.3639
17160W        W37440  11.535   2.862  16.011 -0.0792  0.0709  0.1189
17161W        W37441  16.117   0.612  15.841 -0.0170  0.2251 -0.1710
17162W        W37442  13.012  16.316  16.222  0.1191 -0.4113  0.1053
17163W        W37443   0.944   2.823   4.467 -0.1644 -0.3529 -0.0386
17164W        W37444   7.861  17.100  12.399  0.0070  0.2135 -0.0325
17165W        W37445   4.898  10.693   4.156  0.3036 -0.0975  0.3223
17166W        W37446   6.280  12.747   2.018  0.0031 -0.1192  0.1940
17167W        W37447  12.293   5.370   3.376 -0.2628 -0.0522 -0.1605
17168W        W37448  17.259   7.807  16.645  0.1420 -0.1613  0.1444
17169W        W37449   3.772   7.372  12.395  0.1216 -0.3061  0.0199
17170W        W37450   1.708   3.453   4.748  0.0652  0.0262 -0.0951
17171W        W37451   1.506   1.695   1.728  0.0305 -0.2375  0.3036
17172W        W37452  10.214  16.590  13.977  0.1350  0.0944  0.2313
17173W        W37453  11.780  15.454   3.984  0.0952 -0.1471 -0.3932
17174W        W37454  11.782   6.760  11.992 -0.1382 -0.2942 -0.1845
17175W        W37455  12.707   7.828   0.876 -0.0967  0.2292  0.1720
17176W        W37456   7.459   4.427   0.557 -0.1115  0.0373 -0.3192
17177W        W37457  12.751   8.112  13.871 -0.0707  0.0419  0.1552
17178W        W37458   8.694  13.267   3.140  0.1630 -0.2241  0.1694
17179W        W37459   4.373   1.601  12.807 -0.1595  0.1387 -0.0163
17180W        W37460  10.533   9.887   2.001 -0.0966 -0.1600  0.1699
17181W        W37461   3.756   7.560   4.050  0.0665  0.0751 -0.0270
17182W        W37462  11.970  10.054   3.272  0.0625  0.1438 -0.0528
17183W        W37463   9.891  10.941   4.896 -0.0385 -0.1069  0.0897
17184W        W37464  15.857   0.257  14.545 -0.2758  0.2515  0.4533
17185W        W37465   9.210   3.984  14.776 -0.1274 -0.2771 -0.2053
17186W        W37466  16.718   2.629  14.334  0.2877  0.0937  0.0309
17187W        W37467   5.088   2.566   0.019 -0.3311  0.0219 -0.1909
17188W        W37468   3.269   3.142   2.609 -0.0928  0.4579 -0.1857
17189W        W37469  13.242   5.402  11.949  0.1733  0.0841 -0.1070
17190W        W37470  17.014  13.198   4.266  0.1948  0.1432  0.2432
17191W        W37471  14.236   6.972   3.627 -0.0904 -0.3286  0.0803
17192W        W37472   0.862   9.782  13.737  0.1284 -0.1365  0.0192
17193W        W37473   3.495   7.202  13.179 -0.0348  0.1575  0.0782
17194W        W37474   2.301   3.084   3.854  0.1074  0.0536 -0.0704
17195W        W37475  14.721   8.962  14.102  0.1800 -0.1100  0.1716
17196W        W37476  12.868  17.093   4.383 -0.0272  0.1855 -0.5044
17197W        W37477   2.249   8.060  13.419 -0.0124  0.0970  0.2319
17198W        W37478   6.077   5.428  14.159  0.0116  0.2219  0.0097
17199W        W37479   1.928   7.065   0.519  0.0410 -0.0724  0.3731
17200W        W37480  14.724  11.799   0.879  0.0291 -0.2500 -0.0645
17201W        W37481   0.355  14.234  16.152  0.0602 -0.1102  0.0528
17202W        W37482  16.157  12.113   0.347 -0.2562 -0.1310  0.0130
17203W        W37483   3.287   0.745  16.300 -0.0431  0.1036  0.1046
17204W        W37484   1.778   4.531   0.138  0.0794 -0.1277  0.0652
17205W        W37485  15.317  10.798   3.449 -0.3244  0.2394  0.0876
17206W        W37486   2.324  16.665  16.000 -0.1320 -0.0197  0.1641
17207W        W37487   3.148   7.354  15.665 -0.3340  0.1498  0.2167
17208W        W37488  12.741   7.567  13.266 -0.0905  0.3311  0.0600
17209W        W37489  10.902  16.682  15.576  0.2560  0.1106  0.0297
17210W        W37490   8.064   6.078   0.735 -0.1990  0.0189 -0.1626
17211W        W37491   4.653  16.883   2.218  0.0691  0.0207 -0.2629
17212W        W37492   9.507   6.912  14.714 -0.0755  0.1338 -0.1488
17213W        W37493  15.819   6.969   2.765 -0.1173  0.3782 -0.1727
17214W        W37494   7.159   1.298  14.542 -0.1377 -0.0029  0.0891
17215W        W37495   4.829   4.907   3.540  0.0259  0.1896 -0.0733
17216W        W37496   5.853  14.238  15.236  0.0581  0.0195  0.2173
17217W        W37497   2.183   1.940  12.351  0.2099  0.1170  0.1290
17218W        W37498  11.343  10.458  12.040 -0.2241  0.0662 -0.1513
17219W        W37499  14.701   0.697   0.286  0.2225 -0.1874 -0.3427
17220W        W37500   4.830   2.829   0.589 -0.1554  0.0453 -0.1327
17221W        W37501   1.335   9.111  14.327  0.1014  0.1574 -0.1773
17222W        W37502  11.250   6.545  14.562 -0.0726  0.0888 -0.2225
17223W        W37503   0.707   1.149  13.402 -0.1606 -0.3469 -0.0849
17224W        W37504   0.910   9.495  12.820  0.0808  0.1160  0.0234
17225W        W37505   0.646   2.459  15.297  0.1058  0.1721  0.0502
17226W        W37506  15.815   1.667  13.306 -0.2738  0.2167  0.0033
17227W        W37507  13.460   3.725  15.601  0.1675  0.2635 -0.3498
17228W        W37508  16.653   2.898  13.652 -0.0748  0.1360 -0.0002
17229W        W37509  17.491   9.969   1.440  0.2233  0.0102 -0.3573
17230W        W37510  13.347  12.892   0.970  0.1823 -0.0306 -0.0916
17231W        W37511   4.209   0.155   3.143  0.1548  0.2421 -0.0352
17232W        W37512  13.413  12.076  16.258 -0.1449  0.0431 -0.1877
17233W        W37513   5.826  12.777  13.579  0.1664  0.1630  0.1546
17234W        W37514  11.906   0.369  12.393 -0.0295  0.2938 -0.1938
17235W        W37515  11.665   1.436   0.703 -0.0262 -0.0832 -0.0188
17236W        W37516   1.164   2.689   1.769 -0.0660 -0.0933  0.3149
17237W        W37517   8.113   8.340  11.889  0.0963 -0.0823 -0.4684
17238W        W37518   9.471  12.430   0.962 -0.0432  0.1968  0.0322
17239W        W37519  14.079   0.828   3.813 -0.2861 -0.2921  0.3857
17240W        W37520  17.009   6.417   3.266  0.0710  0.0194 -0.0524
17241W        W37521   0.387   9.485  13.338  0.0802  0.0821 -0.3871
17242W        W37522   0.114  12.831  15.153  0.0096 -0.3069 -0.1423
17243W        W37523  17.035  12.427   0.296  0.1132  0.2617  0.1097
17244W        W37524  10.386   2.953  14.173 -0.2709 -0.0800 -0.3995
17245W        W37525   0.801  14.573   4.609  0.2423  0.2494 -0.0352
17246W        W37526  13.742   8.684  14.841  0.1046 -0.1943 -0.2279
17247W        W37527   2.039   8.386  15.108  0.2600 -0.3628 -0.3436
17248W        W37528   9.883   5.299   3.683  0.0637  0.3139 -0.1714
17249W        W37529  15.588   3.264   2.584 -0.0410  0.1622  0.1226
17250W        W37530  12.274  16.910   2.322 -0.2376 -0.2650  0.0671
17251W        W37531   2.633  11.014   0.347 -0.3323 -0.0971  0.1344
17252W        W37532   0.666  16.697  13.225 -0.0003  0.2954  0.5050
17253W        W37533  17.700   9.298  13.140  0.1564 -0.2017  0.3253
17254W        W37534   1.433   8.102   0.509 -0.0402 -0.2981 -0.1207
17255W        W37535   1.330   5.401   0.268  0.1271 -0.1940 -0.1108
17256W        W37536   6.772  13.239  13.790 -0.0573  0.2539 -0.1573
17257W        W37537  13.590  11.500   2.751  0.0457 -0.0883 -0.2461
17258W        W37538  17.324   9.824   3.435  0.0828 -0.0423 -0.3150
17259W        W37539   9.626   5.511  14.041  0.1310  0.3201  0.2822
17260W        W37540  14.867   0.602   1.675 -0.0819 -0.0518 -0.0241
17261W        W37541   0.488   5.660  14.895  0.0941  0.0893  0.0863
17262W        W37542   3.972  13.086   4.584 -0.0119 -0.1375 -0.0522
17263W        W37543  10.843  15.604  16.651  0.0247 -0.0448  0.3660
17264W        W37544  14.736  15.009   0.338 -0.1664 -0.1323  0.0423
17265W        W37545   4.582  12.625   2.519  0.0238  0.3130 -0.2081
17266W        W37546   7.578  17.637  15.143 -0.0732 -0.2110  0.1772
17267W        W37547   4.052  12.214  15.479 -0.3363 -0.0378 -0.1046
17268W        W37548   2.761   6.452  13.961 -0.0390  0.1112  0.1132
17269W        W37549  13.593  13.162  12.825 -0.3419 -0.0912  0.0143
17270W        W37550   8.783   7.673   4.681 -0.0036  0.0157 -0.1520
17271W        W37551   1.411  13.835  13.673 -0.0271 -0.0391  0.1780
17272W        W37552   0.600   0.667   0.788 -0.1126 -0.0090 -0.0373
17273W        W37553   5.014  13.780  13.639  0.2800  0.1232  0.0046
17274W        W37554   7.847  15.196  15.240 -0.2641  0.0644  0.0661
17275W        W37555   2.415   1.183  15.713  0.0715 -0.1016  0.1528
17276W        W37556  16.725  17.642  14.614 -0.0680 -0.0357  0.0538
17277W        W37557  14.959  13.925   3.186 -0.0558  0.3842  0.2835
17278W        W37558   5.697   2.639  14.202 -0.1975 -0.2201 -0.1795
17279W        W37559  10.930   9.770   2.344  0.0409  0.2352  0.0188
17280W        W37560  11.473  12.094  16.182  0.2417 -0.0228 -0.1553
17281W        W37561  11.218   3.867   2.362  0.0543 -0.0604  0.0160
17282W        W37562  10.902  11.205   4.464  0.0039  0.0957 -0.0669
17283W        W37563  16.247   1.440   0.839 -0.2796  0.0140 -0.2327
17284W        W37564  10.127  11.704  16.555 -0.1911 -0.0622 -0.0006
17285W        W37565  13.582   2.926   4.527 -0.2292 -0.2595  0.0873
17286W        W37566   2.326  14.891   1.405 -0.1821 -0.1329  0.0312
17287W        W37567   3.166   8.422   5.103 -0.0604 -0.1217 -0.0050
17288W        W37568   3.652  17.690   3.295 -0.0790 -0.1611  0.1411
17289W        W37569   2.060   0.868  15.798  0.2523  0.2953  0.4599
17290W        W37570  16.847  14.454   1.557  0.0066 -0.1157 -0.0337
17291W        W37571   3.601   3.274   4.181 -0.0499  0.2394 -0.0668
17292W        W37572  10.510   2.198   1.230  0.2737 -0.1032 -0.0883
17293W        W37573  16.887   2.361   4.314  0.0379 -0.0691 -0.0224
17294W        W37574  11.138   3.288   4.799 -0.1985 -0.4886 -0.0684
17295W        W37575  10.493   4.901  12.321  0.2442 -0.1462 -0.0634
17296W        W37576   4.764  14.462  15.845 -0.1430  0.0096  0.0495
17297W        W37577  16.501  13.765   0.021 -0.2107  0.1106  0.2095
17298W        W37578  15.459  17.221  13.391 -0.1328 -0.5914  0.1201
17299W        W37579  12.917  16.839   0.610  0.0074  0.3149  0.0263
17300W        W37580  14.678   0.830  15.362 -0.4575 -0.1319 -0.1755
17301W        W37581  17.066   6.115  12.728 -0.0280 -0.0828  0.0604
17302W        W37582   6.959   2.257   4.480 -0.0553  0.1477  0.2807
17303W        W37583  15.279   8.384   3.326  0.0869 -0.0747 -0.0015
17304W        W37584   3.935  16.875  14.029  0.0443  0.1077 -0.1008
17305W        W37585  11.205  17.094   2.063  0.0357  0.1101 -0.1361
17306W        W37586   9.216   5.933   2.423  0.0909 -0.2327  0.1298
17307W        W37587   8.323   0.009  15.561 -0.0557 -0.1152  0.2921
17308W        W37588   5.972  13.668  13.747  0.0101  0.1851  0.0816
17309W        W37589   9.297  17.382  15.965  0.0429 -0.2252 -0.0797
17310W        W37590  10.433  11.351   0.529 -0.1032  0.2266 -0.1717
17311W        W37591  10.110   4.257  14.383 -0.3665  0.0645  0.0193
17312W        W37592   2.704   0.534   2.154  0.2038  0.0293  0.1265
17313W        W37593   2.971  13.879   3.498  0.1755  0.0269  0.4176
17314W        W37594  11.917   2.616   4.524  0.2394 -0.0038  0.2831
17315W        W37595   0.061   6.680   0.809 -0.1516  0.0409 -0.1307
17316W        W37596   2.369  12.712  13.819  0.1156 -0.3982 -0.1971
17317W        W37597  11.066   7.139  15.982 -0.1330  0.1504 -0.2064
17318W        W37598   4.566   6.853  14.654 -0.1924 -0.2171  0.0176
17319W        W37599  17.634  15.698   0.095 -0.4089 -0.1152 -0.0354
17320W        W37600   6.733   4.013  11.662  0.0041  0.1572  0.3221
17321W        W37601  14.622  12.121  11.859  0.2014 -0.0364  0.0700
17322W        W37602  12.455   6.714   1.743 -0.0622  0.0006 -0.1021
17323W        W37603   3.037  11.108   1.676  0.2030 -0.0141 -0.0344
17324W        W37604  17.476   9.893  14.262  0.0741 -0.1652 -0.0585
17325W        W37605  11.106   0.000  14.688 -0.2179 -0.1959  0.0581
17326W        W37606   1.570   2.573  16.800  0.0539 -0.2368 -0.0411
17327W        W37607   2.846  16.349   2.272 -0.2986 -0.1116 -0.0237
17328W        W37608   6.400   0.269  15.465 -0.0559 -0.0658 -0.0296
17329W        W37609  11.048  15.286   4.794  0.0626 -0.0529 -0.1674
17330W        W37610  13.229  16.748   1.954 -0.0779  0.1599  0.0737
17331W        W37611   7.516  17.172   1.326  0.0998  0.0897 -0.0727
17332W        W37612  16.185  15.134   4.771  0.3051  0.0040 -0.0550
17333W        W37613   4.015  10.699  14.510 -0.2907  0.1161 -0.3688
17334W        W37614  14.809   7.100   4.033  0.3165  0.1860 -0.2892
17335W        W37615  12.269  17.681   1.952  0.0226  0.1463 -0.1455
17336W        W37616   6.083   7.073   4.398 -0.1863  0.2397 -0.0657
17337W        W37617  16.094  13.823   2.091 -0.1667  0.0449  0.1436
17338W        W37618   7.283  10.138  13.806  0.1894  0.1282 -0.0517
17339W        W37619  11.334   7.943   0.838 -0.0864 -0.2301 -0.0352
17340W        W37620  16.187  15.100   2.943 -0.0985 -0.3349 -0.3157
17341W        W37621  16.123  17.653   2.983  0.0199  0.0176  0.1821
17342W        W37622  12.866  13.906  15.257 -0.2408 -0.2986  0.0187
17343W        W37623  14.188   5.988  12.522  0.1959 -0.2674  0.0363
17344W        W37624   1.357  16.817   2.849  0.1125 -0.1154 -0.1395
17345W        W37625  14.986   5.228   4.944 -0.4421 -0.0994 -0.0722
17346W        W37626   9.289   6.839  13.671 -0.0080  0.2585 -0.2493
17347W        W37627   6.515  16.697  12.203 -0.0307 -0.1046  0.2245
17348W        W37628  13.918  10.342  14.307  0.2020  0.1320  0.3389
17349W        W37629   0.651  15.870   1.992  0.1055 -0.0016 -0.0226
17350W        W37630   2.688   7.631  15.295 -0.1614 -0.3087 -0.0643
17351W        W37631   2.968   2.666   2.648  0.2315 -0.1591 -0.2279
17352W        W37632  17.730  14.487   1.029 -0.0006  0.1974 -0.0344
17353W        W37633   4.433   9.333   2.661  0.0147 -0.0177  0.0361
17354W        W37634  14.775  11.203  16.359 -0.0023  0.1309  0.0660
17355W        W37635  12.154   1.181  13.675  0.2014 -0.2711 -0.0566
17356W        W37636   1.830  14.990   1.830 -0.0646 -0.0216  0.0458
17357W        W37637   9.944   2.127  14.523  0.2358  0.0898 -0.3362
17358W        W37638  17.004   6.335  15.381  0.1243 -0.3576  0.0322
17359W        W37639   9.729  14.979  12.170 -0.0945 -0.0826 -0.1624
17360W        W37640   0.028   8.900   0.914  0.2867 -0.1049  0.1501
17361W        W37641   9.560  17.493   1.324  0.2139 -0.0933  0.0014
17362W        W37642  17.639  14.819  12.366 -0.0257 -0.1234  0.0860
17363W        W37643   0.170  14.509  12.633  0.1423 -0.0049  0.1666
17364W        W37644   5.062   3.410  14.897  0.1276  0.3763  0.0173
17365W        W37645   0.758  13.685  12.255  0.0724 -0.0578 -0.0253
17366W        W37646   5.035   2.161  16.132  0.1106 -0.0428  0.1196
17367W        W37647  14.412  12.660  14.851  0.2414 -0.2306  0.0885
17368W        W37648  14.042  13.345   1.811 -0.1243  0.0890 -0.0404
17369W        W37649   5.428  15.564  13.636 -0.0465 -0.5276 -0.1467
17370W        W37650   2.541   2.134  14.693  0.2472 -0.1857 -0.0864
17371W        W37651   0.152   1.110   2.411 -0.1918  0.1076 -0.1043
17372W        W37652   9.547   3.926   1.469  0.0424 -0.0577  0.0084
17373W        W37653   7.142   5.240  13.238 -0.0182 -0.2508  0.2321
17374W        W37654   3.566  13.436  12.358 -0.0792 -0.0378 -0.1472
17375W        W37655  15.699   1.713   4.514  0.0617 -0.0161  0.2464
17376W        W37656  14.680  17.532   0.341 -0.0199  0.3474  0.0143
17377W        W37657  14.103   7.338   1.590  0.1667 -0.2533  0.0551
17378W        W37658  14.087   3.992  12.509 -0.4371 -0.1696  0.1648
17379W        W37659  14.483   7.963   3.085 -0.1145 -0.4919 -0.2843
17380W        W37660   8.141   1.904   2.030 -0.1560  0.0862 -0.3889
17381W        W37661   5.360  12.233   2.099  0.2831 -0.1368  0.1843
17382W        W37662   0.327   4.176  12.825 -0.0096  0.1774 -0.1302
17383W        W37663  12.942  10.466  14.563 -0.4616  0.2172  0.1018
17384W        W37664   5.423  16.430  16.654 -0.1245 -0.0355 -0.2788
17385W        W37665  17.510   7.511   1.791 -0.3065  0.0383  0.1550
17386W        W37666  12.899   6.429  14.050 -0.0391  0.5217  0.1797
17387W        W37667   3.601   8.872  15.727 -0.0397  0.2746  0.0583
17388W        W37668   9.787  14.255  12.652 -0.1461 -0.1432  0.1333
17389W        W37669   7.202  17.733   3.540 -0.2262 -0.1885 -0.0656
17390W        W37670   7.977   2.701  13.431 -0.0324  0.0481  0.1181
17391W        W37671  13.635   3.631   2.916  0.0521 -0.1127 -0.1729
17392W        W37672   5.596   0.697   3.038 -0.4404 -0.2665 -0.0598
17393W        W37673  14.938  10.222  16.462 -0.1141 -0.0479  0.2957
17394W        W37674   4.373  13.426  14.887  0.0776  0.3075 -0.2864
17395W        W37675  14.489  13.646  12.559 -0.4334 -0.2169  0.1879
17396W        W37676  16.225   3.455  14.198 -0.1626 -0.3886  0.2162
17397W        W37677  13.170   0.302  16.535 -0.0418 -0.1838  0.0653
17398W        W37678   9.620   9.073   0.985 -0.3353  0.0111  0.1801
17399W        W37679   3.198   9.557  12.476 -0.0609 -0.2536 -0.2889
17400W        W37680  12.032   4.428  14.814  0.0154 -0.0605 -0.0939
17401W        W37681   7.133   7.203  12.954 -0.0921  0.1537 -0.1645
17402W        W37682   6.112  16.739  13.740 -0.2929  0.0654  0.0979
17403W        W37683  13.214  12.399   0.876 -0.1441 -0.0692 -0.0195
17404W        W37684   0.204   9.814  14.065 -0.0913 -0.0054 -0.0538
17405W        W37685  14.667  16.065   1.439  0.2249  0.0612 -0.1705
17406W        W37686  14.362  15.775  13.539  0.1287 -0.1366 -0.1607
17407W        W37687   1.832   7.585   0.725 -0.3103 -0.2059  0.0114
17408W        W37688   1.593   0.372  13.373 -0.0757 -0.0898 -0.0982
17409W        W37689   0.677   1.973   3.970 -0.0228 -0.1365  0.0054
17410W        W37690   2.318  10.557   2.924  0.0534  0.0501 -0.1899
17411W        W37691   2.257   0.701   2.350 -0.0414  0.1458  0.0141
17412W        W37692   0.465  10.010  16.425  0.2844 -0.0354  0.0199
17413W        W37693  13.594   0.653   2.213  0.1235  0.0430  0.0454
17414W        W37694  14.868  10.160   3.468 -0.0667  0.3006  0.0222
17415W        W37695  12.164  17.037  14.877 -0.0507  0.2250 -0.0643
17416W        W37696  14.785  16.902   1.574  0.1491 -0.0199 -0.3130
17417W        W37697  12.277   3.215  14.341  0.0647 -0.3656  0.1955
17418W        W37698   1.425   7.069  15.312 -0.1130 -0.0780  0.2260
17419W        W37699   0.698   9.663  16.813 -0.0205 -0.0074  0.4053
17420W        W37700  14.456   1.940  15.703 -0.0155 -0.0968 -0.2340
17421W        W37701  12.379  17.294   1.243  0.1889  0.0831 -0.0207
17422W        W37702   9.151  10.182   2.144  0.1047 -0.0687 -0.1379
17423W        W37703   9.172   2.187  12.596 -0.1165  0.1529  0.1328
17424W        W37704   8.708   9.863   1.379  0.1263  0.4229 -0.0446
17425W        W37705   2.482   3.517   0.898 -0.2802 -0.0470  0.0259
17426W        W37706  12.998   6.700   1.340 -0.1504  0.3329  0.2672
17427W        W37707  17.085   7.942   3.129  0.0454 -0.4671 -0.1037
17428W        W37708   3.824   6.071   0.477  0.0235  0.0051 -0.2067
17429W        W37709  12.432   8.546  16.818  0.0532 -0.2319 -0.1677
17430W        W37710  14.818  16.764   4.395  0.1150 -0.2935  0.0394
17431W        W37711  15.055  14.281   3.633 -0.0112  0.0000  0.1740
17432W        W37712   4.027  13.634  14.645 -0.1527  0.1838  0.0607
17433W        W37713  10.760   6.947  16.483  0.4348 -0.1553 -0.1512
17434W        W37714   4.350   0.711  14.709 -0.0720 -0.1158  0.0206
17435W        W37715   1.454   2.131  15.475  0.3314  0.5241 -0.0158
17436W        W37716  11.581  15.276   1.902  0.1703 -0.0604  0.0585
17437W        W37717   7.585   0.626  15.910  0.2475 -0.0604 -0.0553
17438W        W37718  17.402   5.542  13.677  0.0107 -0.0443 -0.0540
17439W        W37719   3.993  15.888   3.770  0.0221 -0.0579  0.0389
17440W        W37720  13.813   8.802   0.964  0.1119  0.1827  0.1815
17441W        W37721   2.646  10.726   0.769  0.0020  0.1324 -0.1978
17442W        W37722   4.521   3.495  16.174 -0.1509  0.0367 -0.1503
17443W        W37723   8.381   0.040   4.163 -0.1224 -0.2385  0.0471
17444W        W37724   2.383  13.835   2.923  0.0211 -0.1884  0.1099
17445W        W37725  17.538   5.410   3.236  0.0421  0.0705  0.1292
17446W        W37726   5.510  13.903   3.323 -0.2298  0.1126 -0.0515
17447W        W37727  15.325   8.067  16.630 -0.1361  0.0242 -0.0787
17448W        W37728   4.960  12.074  13.764  0.1164  0.1183 -0.4147
17449W        W37729   0.419  11.554  12.026 -0.0330 -0.1497 -0.0982
17450W        W37730  13.203   5.945  13.182 -0.0115 -0.1221  0.0409
17451W        W37731   9.831  11.799  14.047  0.0326  0.0335 -0.1365
17452W        W37732  10.273   8.225  15.763 -0.1393  0.1175 -0.3102
17453W        W37733   5.323   2.143   0.915  0.1401 -0.3090 -0.0670
17454W        W37734   3.838   8.009   1.720  0.5871 -0.2070 -0.1186
17455W        W37735   0.825   4.436  14.554 -0.2473  0.3000  0.0501
17456W        W37736   2.598   2.511   0.400  0.0011  0.2085 -0.1896
17457W        W37737  12.222  15.567   1.168 -0.0656 -0.1237  0.0752
17458W        W37738  15.656   3.228  16.327 -0.1701 -0.2205  0.4842
17459W        W37739   4.809   4.448   4.354  0.2127  0.0756  0.0894
17460W        W37740   1.751   0.377   1.296  0.2842  0.0263 -0.2258
17461W        W37741   2.454   6.835  15.969  0.1287  0.2378  0.2173
17462W        W37742  15.580  10.468  14.302 -0.0017  0.0871 -0.0635
17463W        W37743  16.620   5.077  12.025 -0.0398  0.2543 -0.0726
17464W        W37744  17.296  14.764  15.968 -0.2853  0.0779  0.2126
17465W        W37745   5.443   9.546   4.720 -0.2104 -0.0149  0.0825
17466W        W37746   0.508   9.935   3.114  0.0113 -0.2157 -0.0559
17467W        W37747   4.660   7.689  13.358  0.1619  0.0440  0.0597
17468W        W37748  13.348  15.536  13.502 -0.2253 -0.0550 -0.3469
17469W        W37749   0.404   1.537   2.706 -0.0821  0.2814  0.2041
17470W        W37750  15.423  17.284   0.618 -0.3055 -0.0034 -0.0572
17471W        W37751   9.612   0.802   2.242 -0.2263  0.1124 -0.1278
17472W        W37752  17.113   4.557   0.857 -0.3415 -0.2032  0.0293
17473W        W37753   5.026  11.075   4.842 -0.0861  0.0555  0.1277
17474W        W37754   4.341   1.657  15.839 -0.0776  0.3176  0.0696
17475W        W37755   1.061  14.689  15.366 -0.2641 -0.0123  0.2112
17476W        W37756   4.531   5.676  16.219  0.1783 -0.0882  0.1504
17477W        W37757   0.664  10.000  15.594  0.3072  0.0464  0.1427
17478W        W37758   4.851  16.787  12.189 -0.0595 -0.0938 -0.1340
17479W        W37759   1.904   6.874  16.039 -0.2429  0.2151  0.0544
17480W        W37760  12.973  17.696   2.391  0.2076 -0.0980 -0.0263
17481W        W37761   2.151   9.727  14.916  0.0446  0.2525  0.1819
17482W        W37762  12.052   5.577   4.969 -0.0014 -0.1203 -0.0794
17483W        W37763  13.781   3.155  13.970  0.1186  0.2249  0.1810
17484W        W37764   6.745   0.497  15.931 -0.1131  0.2787 -0.1831
17485W        W37765   5.155  17.248  13.510 -0.0407 -0.1053  0.4166
17486W        W37766  13.510   4.817  15.703 -0.2940 -0.0899 -0.3901
17487W        W37767   9.323   7.029   3.133 -0.1119 -0.0219 -0.1736
17488W        W37768   0.861  10.060  12.522 -0.0074  0.2069 -0.1798
17489W        W37769  15.210   0.196  16.710  0.3058 -0.1090  0.1298
17490W        W37770   0.440   5.454  15.995  0.0824 -0.3987  0.2886
17491W        W37771   0.530   7.560   3.145  0.2215  0.2261 -0.1234
17492W        W37772   3.171   9.739   2.401 -0.1568  0.0861  0.4556
17493W        W37773   9.417  14.819   3.931 -0.1071 -0.3176  0.5429
17494W        W37774   1.517  15.021  14.664 -0.0428  0.5251 -0.0208
17495W        W37775   7.946  14.752  16.679  0.0151 -0.1007 -0.0985
17496W        W37776   4.298   5.679  12.524  0.2125  0.1606 -0.1857
17497W        W37777  11.411   2.962   1.536 -0.2327  0.2040  0.0021
17498W        W37778   9.813  10.174  14.329  0.4185  0.0132 -0.5686
17499W        W37779  15.526   6.376  12.994 -0.0508 -0.0671 -0.1493
17500W        W37780  13.840  14.602  15.344  0.0509 -0.0140 -0.0211
17501W        W37781   3.380   5.924   1.532  0.2251 -0.1736  0.0695
17502W        W37782   4.432  10.333   2.438 -0.0887 -0.1231  0.0757
17503W        W37783   6.565  14.647  14.106 -0.5994  0.0296  0.0433
17504W        W37784   2.022   5.309  13.367 -0.1906 -0.0323  0.0197
17505W        W37785  12.235   9.601   3.540  0.0524  0.0327 -0.1445
17506W        W37786   5.867  13.383  16.068  0.1976  0.0893 -0.1362
17507W        W37787   7.673  11.011  16.803  0.3962 -0.0511  0.0877
17508W        W37788   7.588   8.326  14.944  0.0166  0.1699 -0.1395
17509W        W37789   4.629   4.804  13.579 -0.0023 -0.2281  0.5859
17510W        W37790   8.413   2.296   4.283  0.0434  0.0410 -0.0214
17511W        W37791  10.441   0.629   3.137 -0.2086 -0.3008 -0.3018
17512W        W37792   7.445   7.657  15.305 -0.3112 -0.0477  0.1708
17513W        W37793   9.633   4.921  14.360  0.3394 -0.0342 -0.3857
17514W        W37794  12.870  16.145  14.388 -0.0322  0.0589  0.2173
17515W        W37795   9.687   4.228  16.110 -0.2921  0.0855 -0.1447
17516W        W37796   2.175   1.038   3.524 -0.0804  0.2561 -0.0497
17517W        W37797  12.697  11.264  14.474 -0.2096  0.2726 -0.0050
17518W        W37798   5.533   3.247  16.868 -0.1832  0.1189  0.1009
17519W        W37799  13.611   1.676   3.778  0.4030  0.1302 -0.1475
17520W        W37800   0.469  15.155   1.040  0.0071 -0.3326 -0.0965
17521W        W37801  14.466   1.828  16.268  0.2255 -0.2742  0.1385
17522W        W37802  12.436   8.505   1.499  0.0116 -0.1260 -0.1326
17523W        W37803   8.594   3.100   3.242  0.2720 -0.0426 -0.1672
17524W        W37804   5.441  16.956   3.839 -0.3646  0.1714 -0.0604
17525W        W37805   2.912  12.319   3.963  0.0780  0.0765  0.0187
17526W        W37806  11.430   5.568  14.398 -0.0892 -0.0594 -0.0222
17527W        W37807  14.143  11.200   4.919 -0.0485  0.2426  0.0171
17528W        W37808   4.178  14.446  14.361 -0.0466  0.2024 -0.0199
17529W        W37809   3.105   1.850  13.287 -0.1470 -0.0699 -0.1646
17530W        W37810   4.021  10.145  15.192 -0.1657  0.0850 -0.2024
17531W        W37811  10.474   8.673   1.523  0.0415  0.2276 -0.1068
17532W        W37812   5.120  17.394   4.323 -0.0868  0.0718  0.0483
17533W        W37813   5.385  17.530   0.282 -0.2164 -0.2059  0.0143
17534W        W37814   1.673   4.038  15.628  0.2319 -0.3251 -0.2176
17535W        W37815   7.838  14.523  14.596 -0.1201 -0.0131 -0.3888
17536W        W37816   6.388  10.141  14.871 -0.0884  0.0794  0.0443
17537W        W37817  12.092  10.343   4.405 -0.1241  0.4029  0.2844
17538W        W37818  11.001  13.962  11.009  0.0864  0.0182  0.2697
17539W        W37819  16.941   3.941   0.063 -0.0356 -0.1023 -0.0494
17540W        W37820  10.600  10.186  16.732 -0.1264  0.2267  0.0686
17541W        W37821  11.357  10.518   0.896 -0.0891 -0.1697  0.0751
17542W        W37822   3.454   5.462   1.741 -0.0557 -0.1073  0.1539
17543W        W37823   3.444   3.974  16.783 -0.2485 -0.0739  0.0337
17544W        W37824   6.650  10.657  14.099  0.1843  0.1044  0.2776
17545W        W37825   9.835   5.948  13.807  0.1190  0.2199  0.1166
17546W        W37826   7.128   2.180   3.878 -0.5036  0.1156 -0.3499
17547W        W37827   2.276  12.550   3.337  0.2003 -0.0156 -0.2965
17548W        W37828   1.377   1.822  14.970  0.2284 -0.3578 -0.0755
17549W        W37829   4.519  10.850  13.706 -0.2809  0.0626  0.3794
17550W        W37830   7.326  12.620   2.012 -0.0909  0.0842  0.0909
17551W        W37831  13.867   0.427   2.621  0.0540  0.0503 -0.1955
17552W        W37832  11.605  12.401  14.981 -0.2543 -0.0741  0.0693
17553W        W37833   6.323  15.865  15.862 -0.0310 -0.1526 -0.0443
17554W        W37834   3.625   4.424  16.660  0.1622  0.0364 -0.0896
17555W        W37835   4.739  11.001  13.011 -0.0398 -0.2477  0.0796
17556W        W37836   0.164  14.954   4.103  0.0703 -0.0910 -0.1198
17557W        W37837  13.991   4.866  12.504 -0.1426 -0.0932  0.2530
17558W        W37838   4.921   3.616   0.492  0.1184 -0.1050 -0.0999
17559W        W37839  13.973  10.400  15.775 -0.1291 -0.1251  0.0535
17560W        W37840   8.690   9.894   2.212 -0.0828 -0.0319  0.1549
17561W        W37841   1.752   6.686  15.476  0.1441 -0.0164 -0.0159
17562W        W37842  13.471  16.117   3.400  0.1674  0.0477  0.2297
17563W        W37843   5.315   7.374  14.968  0.0433 -0.0961 -0.0589
17564W        W37844  16.394  10.008  12.358  0.0314 -0.0555 -0.2370
17565W        W37845   0.834   5.810   2.523 -0.0632 -0.0146  0.2118
17566W        W37846   1.207  15.719   3.884 -0.1090  0.0377 -0.2088
17567W        W37847  10.021  17.720   1.207  0.3852 -0.0113 -0.1783
17568W        W37848  17.424   9.873  15.451  0.2161  0.0340 -0.2483
17569W        W37849  10.228   6.331   1.691  0.1076 -0.2847  0.1091
17570W        W37850  14.309  15.789   1.938 -0.1512  0.0987 -0.0964
17571W        W37851  15.904  11.514   4.501 -0.1166 -0.0117 -0.2213
17572W        W37852   1.208  11.514   2.069 -0.0959 -0.0498  0.0634
17573W        W37853   8.012   5.068   1.808  0.2079  0.0659  0.1604
17574W        W37854   5.044   0.566   0.531  0.0573  0.1272  0.1451
17575W        W37855  14.335  15.558   4.530 -0.1761  0.0257 -0.2008
17576W        W37856   5.137   2.196  15.463  0.0105 -0.0047 -0.2268
17577W        W37857  12.932  12.926  15.909 -0.0874 -0.0057  0.2463
17578W        W37858   5.303   3.724  16.766  0.1878 -0.1146  0.2163
17579W        W37859  13.895   2.874   1.154 -0.2309  0.0837 -0.2107
17580W        W37860   6.088   9.994  13.512  0.1067  0.1006 -0.1922
17581W        W37861   5.480   4.893  14.039 -0.0543  0.0632  0.1103
17582W        W37862  15.570   0.878   4.134 -0.1286  0.1478  0.1297
17583W        W37863   8.095   2.838   2.385  0.1905  0.0387 -0.1454
17584W        W37864   2.640   3.672  15.629 -0.0317 -0.2163 -0.1999
17585W        W37865   8.849   9.683   4.005 -0.0007  0.2343  0.1858
17586W        W37866   1.935   9.407   4.858 -0.0801 -0.1755  0.1940
17587W        W37867   9.015  12.661   0.217  0.1203  0.1646  0.3084
17588W        W37868  10.681   4.383   3.563 -0.0772  0.3414 -0.0552
17589W        W37869   6.446   7.573   4.111 -0.0565  0.0411 -0.2898
17590W        W37870  15.480  12.809  12.731  0.2779 -0.1516  0.0177
17591W        W37871   9.780   6.253   2.066 -0.1663 -0.3466 -0.0165
17592W        W37872  10.989   3.857   0.705 -0.0090 -0.3004 -0.0469
17593W        W37873   5.658  13.864   1.822 -0.4144 -0.1459  0.1571
17594W        W37874  11.766   0.781  16.451  0.2208 -0.0433  0.1378
17595W        W37875  16.962  15.133  13.476  0.0660 -0.3087  0.2859
17596W        W37876   3.862   9.949  11.873  0.0645 -0.0672 -0.1482
17597W        W37877  14.815  13.221  16.877  0.1338 -0.0710  0.0618
17598W        W37878   9.169  12.297  14.690  0.0173 -0.0116 -0.1074
17599W        W37879  16.483   1.632   2.337 -0.0636  0.0054 -0.0722
17600W        W37880   7.477   9.786   1.496 -0.1210 -0.2503 -0.0214
17601W        W37881  10.328   8.685  15.447 -0.3370  0.1258  0.3678
17602W        W37882  11.419  14.951   4.970 -0.1066 -0.2678 -0.3315
17603W        W37883  12.022   4.545   0.149  0.2565  0.1978  0.1103
17604W        W37884   8.553   7.436  16.437 -0.1435  0.1236  0.0878
17605W        W37885  11.308   6.878  16.817 -0.3018 -0.1491 -0.1421
17606W        W37886   4.314   4.739  16.223 -0.1805  0.0902 -0.0649
17607W        W37887   7.054   6.275  14.384  0.2732  0.2382  0.3272
17608W        W37888  17.259  10.255   1.883 -0.2344 -0.0524  0.0975
17609W        W37889   2.016  10.674   1.507 -0.0001  0.0093  0.1044
17610W        W37890   0.451   1.275  15.961 -0.0461  0.0364  0.0158
17611W        W37891   1.369   7.698  13.639 -0.2362  0.0568  0.0942
17612W        W37892  14.925   9.589   3.361 -0.0155 -0.1619  0.3019
17613W        W37893  11.341   0.373   2.265  0.0687 -0.1101 -0.2430
17614W        W37894   5.450  17.102   3.306 -0.0558  0.2314 -0.0702
17615W        W37895   5.210  14.905  12.875 -0.0760 -0.0855 -0.3622
17616W        W37896   9.692  10.775   4.432 -0.1073  0.0044  0.3342
17617W        W37897   2.768   2.237   3.374  0.1627 -0.0124  0.0844
17618W        W37898  10.567  16.521   2.816 -0.0638 -0.0349 -0.1093
17619W        W37899   6.612   1.120   3.908  0.3241  0.0140 -0.0204
17620W        W37900  14.562   3.101   2.745  0.3871 -0.2243  0.1967
17621W        W37901   4.965   5.631   2.397 -0.1280 -0.2904 -0.0396
17622W        W37902  12.459   3.415   4.862 -0.0580 -0.0236  0.0199
17623W        W37903   3.188   6.602  14.333  0.2135  0.0424 -0.1670
17624W        W37904  12.567  14.999  16.764 -0.0338 -0.3161  0.3683
17625W        W37905  12.198   0.930   2.068  0.1142  0.0496  0.2031
17626W        W37906   8.257  15.373   1.290 -0.0621 -0.0469 -0.1366
17627W        W37907   7.680   5.119   3.339 -0.0172  0.1721  0.0851
17628W        W37908   1.542   6.914   5.744 -0.0179  0.1472  0.0005
17629W        W37909   2.581  14.173   0.859 -0.2387  0.0812 -0.0469
17630W        W37910   2.870   7.456  14.238  0.1237  0.2025 -0.2448
17631W        W37911   7.245  12.437   2.526 -0.0032  0.1619  0.2647
17632W        W37912  10.430  16.439   4.707  0.1409  0.0746  0.1387
17633W        W37913  15.802   7.342  16.387  0.0842  0.0043  0.0148
17634W        W37914   8.765   7.602  14.617  0.0058 -0.1487 -0.1790
17635W        W37915   7.353   5.348  14.150 -0.1595  0.1384 -0.1930
17636W        W37916  11.526  15.681   2.209  0.1257 -0.2281  0.3072
17637W        W37917   1.543   7.049   1.361  0.1366  0.0257  0.0952
17638W        W37918  12.592   1.833   3.897 -0.1675 -0.1356  0.3150
17639W        W37919  13.557  15.368  15.988 -0.1220 -0.1616 -0.4768
17640W        W37920   4.058   9.345  13.584  0.1278  0.3171  0.0452
17641W        W37921  16.536  12.464  16.865  0.3716  0.0651  0.0908
17642W        W37922  12.135   5.145   4.228 -0.1055  0.1329 -0.4162
17643W        W37923   1.842   3.451  13.459 -0.4957  0.4220 -0.1864
17644W        W37924  14.944   8.885   3.337 -0.1299  0.0379 -0.0850
17645W        W37925  15.321   1.818  12.318 -0.0567  0.2061 -0.0638
17646W        W37926   1.912   4.521  12.108  0.1451 -0.0061  0.2745
17647W        W37927   8.011   5.825  14.052 -0.0801  0.2354 -0.0120
17648W        W37928  14.936   9.469   4.237 -0.1241  0.1083 -0.0203
17649W        W37929   4.943  15.694   4.893  0.1720  0.0218  0.0550
17650W        W37930   5.336   0.766   0.189  0.0812 -0.0375  0.0385
17651W        W37931   0.422  14.964  14.433 -0.1777  0.1405  0.3618
17652W        W37932  13.063   0.454   2.188 -0.1939 -0.0835  0.2263
17653W        W37933  17.610  15.716  12.690 -0.2184  0.0669 -0.1332
17654W        W37934   8.817  12.165   2.460  0.2347 -0.0728  0.0855
17655W        W37935  13.344   1.502  14.513  0.2615  0.0794  0.1475
17656W        W37936   6.135   2.196   4.242 -0.0929 -0.1179  0.1423
17657W        W37937  10.838  10.529  16.432 -0.1005  0.0428  0.1392
17658W        W37938   1.154  11.007   1.934  0.1277 -0.4329  0.2595
17659W        W37939   4.620   0.380  13.955  0.0908  0.0618  0.0476
17660W        W37940   8.181   1.706   1.235  0.1442  0.0565  0.0101
17661W        W37941   2.072  10.561   4.627 -0.3442  0.1539 -0.0213
17662W        W37942   3.580   1.786  14.696  0.3379  0.3415 -0.0067
17663W        W37943   6.324   1.853   0.858 -0.0443 -0.0569 -0.0803
17664W        W37944   4.790   7.935  12.936 -0.1713 -0.3007 -0.2337
17665W        W37945   6.739   2.284  16.512 -0.2240  0.0904 -0.0367
17666W        W37946  16.385  15.596  14.699 -0.0980 -0.1173  0.2392
17667W        W37947  12.306   3.887  12.093 -0.0419  0.1383 -0.3294
17668W        W37948  13.624   2.927   4.018  0.2140  0.0111 -0.2889
17669W        W37949   2.796  13.453  14.030 -0.0551 -0.1090  0.0567
17670W        W37950   9.120  14.493   3.728  0.0690  0.1345 -0.0854
17671W        W37951  10.012  12.960   4.708  0.2650 -0.0398  0.1351
17672W        W37952   1.483   8.765   2.399  0.1485 -0.2387  0.1528
17673W        W37953   3.849  14.123   0.449 -0.0605  0.0341 -0.2888
17674W        W37954  15.839   1.083  15.956  0.0359  0.1502 -0.0350
17675W        W37955  15.303   0.696  16.373  0.0964  0.2209  0.0291
17676W        W37956   4.562   1.910   2.467  0.0236  0.0695  0.1414
17677W        W37957  15.983   9.407   2.004  0.1041 -0.2024  0.0482
17678W        W37958  11.711  16.106  12.465  0.0537 -0.3022  0.1323
17679W        W37959   5.585  10.621  16.453 -0.0259 -0.1735 -0.0098
17680W        W37960  15.361   6.450  15.260 -0.2149 -0.0435  0.2374
17681W        W37961   8.139   6.488  16.047  0.0353  0.1961  0.2391
17682W        W37962  14.799   1.623  16.846  0.2281 -0.0830 -0.4654
17683W        W37963   3.033   1.705   0.836  0.0172  0.2935 -0.0429
17684W        W37964   5.704  10.919  13.063 -0.3070  0.0583  0.2606
17685W        W37965   1.800   0.149  15.447 -0.1076 -0.1421  0.0866
17686W        W37966   8.175   9.054  14.392  0.1652 -0.0345 -0.2125
17687W        W37967   6.882  17.219   0.112 -0.1738 -0.2299  0.0161
17688W        W37968  14.426   1.297   2.141 -0.0109  0.3135 -0.0046
17689W        W37969   4.317  11.462   0.261 -0.0107  0.1632 -0.2162
17690W        W37970   1.315   3.854  15.898  0.0970 -0.1500  0.0475
17691W        W37971  17.537   3.680  13.310 -0.0504 -0.1104  0.0363
17692W        W37972  10.523  14.404  16.325  0.2180  0.3995 -0.2057
17693W        W37973  17.515   0.424   3.774 -0.1579  0.0786 -0.0335
17694W        W37974   5.166  16.976  16.486 -0.0950 -0.0309  0.0265
17695W        W37975   1.362   4.657  13.392 -0.0595 -0.1110 -0.1317
17696W        W37976  10.655  14.006   3.831 -0.2715  0.0177  0.0631
17697W        W37977   3.811  12.349  15.917  0.2151  0.2013 -0.1785
17698W        W37978   4.929   0.170   3.037  0.3379 -0.1692 -0.2672
17699W        W37979   8.001  16.188  16.087  0.0782 -0.0840 -0.3242
17700W        W37980   0.623  17.704  14.608 -0.0126  0.0175  0.3465
17701W        W37981  15.928   8.480   1.022  0.0717 -0.0526 -0.0909
17702W        W37982   4.499  13.352  13.811 -0.1191  0.2405 -0.0161
17703W        W37983   6.997   0.671   1.758 -0.0557  0.0694  0.0435
17704W        W37984  12.080   8.795   4.081 -0.0506  0.0526  0.0202
17705W        W37985   9.175   8.047   0.538 -0.2021 -0.0353 -0.2639
17706W        W37986   2.306   3.365   0.035 -0.0325  0.0058  0.3916
17707W        W37987   1.254   9.200  15.906 -0.1320  0.3443 -0.0211
17708W        W37988   4.140   9.248   3.072 -0.0949 -0.1235 -0.1140
17709W        W37989   2.922  14.458   4.593 -0.0648 -0.0842  0.1243
17710W        W37990  14.823   9.526   4.945  0.0278 -0.2510 -0.3703
17711W        W37991  17.551  15.104   3.444  0.0536 -0.1001  0.1590
17712W        W37992  10.514  17.234   4.235 -0.0434  0.0096 -0.1896
17713W        W37993  13.002  11.199  16.354  0.0898 -0.5035  0.2362
17714W        W37994   8.899  12.617  13.198 -0.0988  0.1802 -0.0622
17715W        W37995   1.244  11.220  16.621  0.0438  0.1718  0.2594
17716W        W37996   9.495   6.858   2.664  0.0246 -0.2068  0.1269
17717W        W37997   7.966   7.290  12.022  0.1327  0.2912 -0.4158
17718W        W37998   1.612  10.333   3.592  0.0240  0.1078  0.0690
17719W        W37999   7.069   4.849   4.799  0.2935  0.1906  0.1069
17720W        W38000   9.532   5.676  14.510  0.0184  0.3347 -0.3175
17721W        W38001  12.101  14.917   3.241 -0.1986 -0.2362 -0.0449
17722W        W38002   2.871  13.874  14.642 -0.2542  0.0073 -0.0401
17723W        W38003  14.277   0.927  13.518 -0.0368  0.4178  0.0712
17724W        W38004   3.284  12.608  15.013  0.1984 -0.1511  0.2828
17725W        W38005  10.812  11.898   1.944 -0.1917 -0.2222  0.0681
17726W        W38006  17.630  12.467   5.108  0.1351  0.1593 -0.0882
17727W        W38007  10.157   8.204   1.365 -0.1496  0.1618 -0.2633
17728W        W38008   7.821   2.740   1.964 -0.1053 -0.2486 -0.0247
17729W        W38009   7.125   6.879   2.477  0.0271  0.3242 -0.2419
17730W        W38010  15.606   3.782  13.639  0.1093  0.2803 -0.2720
17731W        W38011   0.524   4.250  15.005  0.0767 -0.1147 -0.0498
17732W        W38012  15.157  11.539   3.975 -0.3133 -0.1810  0.1734
17733W        W38013  11.760  12.849  14.709 -0.1216 -0.2258 -0.0628
17734W        W38014  11.889   9.119   3.650 -0.4384 -0.2405 -0.0325
17735W        W38015   9.913   8.893   3.738 -0.0585  0.1381  0.2436
17736W        W38016   2.042  15.892   1.895 -0.0490 -0.0128  0.2324
17737W        W38017   3.677  15.052   1.942  0.0358  0.5814  0.4561
17738W        W38018  17.205   5.906  13.975 -0.1536 -0.0728 -0.0469
17739W        W38019  12.042   3.548  13.754 -0.1921 -0.0739  0.0140
17740W        W38020   5.517  11.435  14.134  0.1010  0.1546  0.0533
17741W        W38021   2.303   2.341  14.274 -0.2120 -0.0432 -0.0028
17742W        W38022  16.747  12.476   1.453 -0.0634  0.1175 -0.1649
17743W        W38023   8.501   2.028  15.044  0.0644 -0.3778  0.0117
17744W        W38024  15.533   8.626   1.285  0.2415 -0.0808  0.3310
17745W        W38025  16.343  11.266  16.333 -0.1313  0.1544 -0.2546
17746W        W38026   1.639  11.054   2.730 -0.0808 -0.0452 -0.0870
17747W        W38027  11.846  11.000  13.146 -0.0976  0.3079  0.1479
17748W        W38028   4.845  11.441  12.182  0.1960 -0.1092  0.1328
17749W        W38029  16.421   2.723   4.285 -0.0229  0.0156 -0.0853
17750W        W38030  11.807  14.704  11.542  0.0432 -0.2062 -0.0182
17751W        W38031   8.964   5.723   3.910  0.0680  0.1784  0.0692
17752W        W38032  15.593   9.392  11.488 -0.4494  0.2159  0.1539
17753W        W38033  11.462   5.318   3.851 -0.0482  0.1200 -0.3138
17754W        W38034   7.588  17.272   4.154  0.1242 -0.1525  0.4094
17755W        W38035   6.979  13.516  14.186  0.1805 -0.0176  0.1949
17756W        W38036  16.316   9.467   4.949 -0.1442 -0.1413 -0.0955
17757W        W38037  12.153  16.509  14.950  0.1494  0.3313 -0.2117
17758W        W38038  13.116   0.748  16.700 -0.3073 -0.2019 -0.2192
17759W        W38039   6.200  15.483   1.156  0.0368 -0.0169 -0.0503
17760W        W38040  13.286   0.576   2.630  0.0139  0.2540 -0.1105
17761W        W38041  15.860  11.611   0.186  0.1123  0.0293  0.1021
17762W        W38042  16.342  16.761   1.815  0.0924  0.0328 -0.0191
17763W        W38043   1.653  12.219   5.215 -0.0540 -0.0029  0.0477
17764W        W38044  10.021  17.068   3.358  0.0251 -0.2944 -0.1745
17765W        W38045  15.692   2.828  14.442  0.2390 -0.0914 -0.0805
17766W        W38046  15.855  13.314  14.457  0.0975 -0.0872  0.2457
17767W        W38047   3.480   7.063  12.646  0.0477  0.1170  0.0034
17768W        W38048  12.457  14.958   3.633  0.2276 -0.3472 -0.0312
17769W        W38049   0.781  15.922  12.554 -0.0450  0.0506  0.0270
17770W        W38050   0.957  12.489  16.188 -0.0018  0.0944 -0.0011
17771W        W38051  16.377   2.186   0.165  0.0041  0.2277 -0.0722
17772W        W38052  12.474   2.255   3.076  0.2190 -0.0138 -0.3433
17773W        W38053  13.586   2.355   0.587 -0.0501 -0.0478  0.1038
17774W        W38054  17.538   6.564   2.531 -0.0064 -0.2745 -0.2163
17775W        W38055   0.596   9.198   0.835  0.0663  0.4066  0.0842
17776W        W38056  13.771  15.366  14.072 -0.0511 -0.0556  0.0037
17777W        W38057  14.366   0.410   3.755 -0.1528  0.0482 -0.0055
17778W        W38058   5.470   8.266  15.221 -0.0704 -0.0859 -0.1395
17779W        W38059  14.846   0.960  14.886  0.2831 -0.2522  0.2576
17780W        W38060   3.840   1.891   2.041  0.0407 -0.2965 -0.2264
17781W        W38061  10.316   1.387  13.039  0.0589  0.0490  0.1867
17782W        W38062  13.739  17.673  15.867  0.0327  0.1062 -0.0077
17783W        W38063  14.759  17.663  12.523  0.2624  0.1894 -0.1205
17784W        W38064  13.727  13.558  13.812  0.0103 -0.3058 -0.1273
17785W        W38065  11.419  11.208   3.462  0.2057 -0.0264  0.0128
17786W        W38066  11.422   6.118   2.605 -0.3924  0.2079  0.0575
17787W        W38067  14.928   2.145   3.148 -0.1907  0.2198 -0.1783
17788W        W38068   8.456  15.491   3.745 -0.1221 -0.0762  0.2308
17789W        W38069   2.799  14.501  14.211 -0.2371 -0.0371 -0.1199
17790W        W38070  11.091   4.429   3.971 -0.0522 -0.0993 -0.0446
17791W        W38071   6.254   0.113   0.245  0.0748  0.1961  0.3359
17792W        W38072   0.610   4.603   1.823  0.1411  0.3690 -0.0005
17793W        W38073   6.915   4.491   4.399  0.0665 -0.0353 -0.0531
17794W        W38074   1.391   5.568   3.081  0.1846  0.0681  0.1039
17795W        W38075  13.520  11.794  15.050  0.1156  0.0350 -0.0651
17796W        W38076   1.286   9.494  15.018 -0.1929  0.4222  0.0675
17797W        W38077   8.537   1.202  14.219  0.0336  0.0503 -0.0695
17798W        W38078   8.920  13.771   1.765  0.0773  0.3440  0.0086
17799W        W38079   5.974  13.290   3.837  0.0599 -0.3895 -0.2974
17800W        W38080   0.480   1.651  11.971  0.0616  0.2199  0.3378
17801W        W38081  14.565   5.028   5.124 -0.2292 -0.0272  0.0674
17802W        W38082  11.961   6.576  15.481 -0.0092 -0.1077  0.1660
17803W        W38083  15.023   3.154   2.224 -0.0742  0.1537  0.0851
17804W        W38084  17.523  16.066   0.414  0.0844 -0.4549  0.2297
17805W        W38085   6.403   0.204  16.231  0.3415 -0.3258 -0.0709
17806W        W38086  16.677  10.365   3.240  0.0294 -0.5273 -0.0810
17807W        W38087  11.304  13.182   3.949 -0.4416  0.3391 -0.2308
17808W        W38088  17.091   3.245  14.884  0.0631  0.4590 -0.1348
17809W        W38089  16.692   9.036   1.786  0.2106 -0.2829 -0.3317
17810W        W38090  12.547  13.550  12.402  0.1701 -0.1438  0.2367
17811W        W38091  15.541  10.139  12.275 -0.0818 -0.1570  0.3161
17812W        W38092   6.623  10.815   2.564 -0.1817  0.2206 -0.2646
17813W        W38093   8.089   8.575  12.625  0.0753  0.0203 -0.2941
17814W        W38094  10.305  15.312  16.344 -0.0546  0.1162  0.4571
17815W        W38095   6.316  11.230  13.609 -0.1062 -0.0129 -0.1894
17816W        W38096   6.323  12.364  14.340 -0.0248  0.1391  0.1934
17817W        W38097  14.848   5.312   3.817  0.1831 -0.0009 -0.2053
17818W        W38098  16.356  12.510  11.918 -0.1477  0.0870 -0.0287
17819W        W38099   9.629  10.201  13.244 -0.0049 -0.0717 -0.1103
17820W        W38100  12.335   3.676  11.127 -0.1425  0.0457  0.1538
17821W        W38101   9.761   8.782  13.887  0.1505 -0.2914 -0.0946
17822W        W38102  10.563  12.949  12.507 -0.1778 -0.0628 -0.0371
17823W        W38103   5.582   5.089   2.170  0.1129  0.0714 -0.2445
17824W        W38104  17.181   7.771  15.144  0.1440  0.1130 -0.2256
17825W        W38105   7.804   6.230   2.544  0.0175 -0.0937 -0.0340
17826W        W38106  16.205   3.113  16.736  0.1422 -0.2927  0.1015
17827W        W38107   9.879   4.455  15.222 -0.0769 -0.1088  0.1227
17828W        W38108   0.435  14.185  14.832  0.0083  0.2603  0.3531
17829W        W38109  15.872  15.968   3.880 -0.0549  0.1903 -0.0234
17830W        W38110  11.149   2.166   3.497  0.2952 -0.0790 -0.1644
17831W        W38111  17.273   3.199   4.436 -0.1371 -0.1626 -0.0355
17832W        W38112  10.655  10.851  15.366  0.4589 -0.1658 -0.0696
17833W        W38113   8.220   8.385  13.901 -0.1165 -0.0637 -0.2178
17834W        W38114   5.164   3.282   2.619 -0.2839  0.1989 -0.2396
17835W        W38115   6.631   3.276   4.607 -0.2794 -0.1867  0.0880
17836W        W38116   2.668   7.174  11.050 -0.1838 -0.1839  0.1481
17837W        W38117   4.446   0.237  12.097  0.2777  0.0962  0.1472
17838W        W38118   2.701  11.739  13.551 -0.1139  0.0755  0.1599
17839W        W38119   6.415  14.743  12.770  0.2244  0.1860  0.1472
17840W        W38120   5.944  17.734  14.481 -0.1716  0.0280  0.0950
17841W        W38121  16.074   1.309  16.782 -0.2503 -0.2343  0.0519
17842W        W38122   0.877  15.963  13.706  0.1062  0.2119 -0.0972
17843W        W38123  17.680   1.102   3.630  0.1659 -0.0157  0.0771
17844W        W38124  16.718   0.454   4.821 -0.0545  0.2906  0.2941
17845W        W38125  11.328  14.468   0.524 -0.1196  0.1432  0.2760
17846W        W38126   5.938   5.124   2.500 -0.3799 -0.1367  0.2426
17847W        W38127  12.305   1.736   4.331 -0.1243 -0.0361  0.1242
17848W        W38128  11.057   4.710  13.853  0.1317  0.1046 -0.1273
17849W        W38129   4.972  14.259  15.306  0.1343  0.1242  0.3132
17850W        W38130  13.050  12.911   4.065 -0.0384  0.0384 -0.2177
17851W        W38131  14.494   0.439  14.925 -0.1383  0.1804  0.4196
17852W        W38132   0.500   8.693  13.204 -0.0773  0.2858 -0.0686
17853W        W38133  12.239   8.308  15.676 -0.0104  0.1772 -0.0278
17854W        W38134   3.369   2.171   1.370  0.1606 -0.1930  0.2173
17855W        W38135   1.828  10.860  12.661 -0.2043 -0.0329 -0.3666
17856W        W38136   4.767  16.865  16.190  0.1401  0.1263  0.3000
17857W        W38137  13.966  11.052   1.954 -0.0347  0.2508  0.0887
17858W        W38138  13.601  12.777   6.062 -0.2516  0.1077  0.0789
17859W        W38139  10.380   1.005  14.098  0.1667  0.1047 -0.0996
17860W        W38140  12.334   4.222  12.542  0.0521  0.0485  0.0735
17861W        W38141   4.681  15.713  14.075 -0.0443  0.0793 -0.1392
17862W        W38142   6.649   8.095   3.921  0.2530  0.0189  0.2018
17863W        W38143   2.045  11.840   4.446 -0.1370 -0.0192  0.1987
17864W        W38144  16.439   3.534  13.266 -0.1042  0.1294  0.2254
17865W        W38145   2.087  16.833   4.371  0.0601  0.3824 -0.2028
17866W        W38146   1.816  14.311  15.113 -0.2258 -0.2604 -0.3111
17867W        W38147   9.908  14.649  12.974  0.3631  0.0615 -0.0741
17868W        W38148  12.375  10.791  15.259  0.1564  0.0934  0.0073
17869W        W38149   2.288  16.946  12.955 -0.1461  0.0404 -0.0272
17870W        W38150  14.252  12.938   3.363 -0.4624  0.1545 -0.1323
17871W        W38151   7.384   3.878  13.234  0.0332  0.4945 -0.0102
17872W        W38152   8.739  17.424   1.809 -0.1072  0.0868 -0.1220
17873W        W38153  11.426   8.481   2.573 -0.1361 -0.1065 -0.0827
17874W        W38154   8.955   4.622   1.432  0.1212  0.0261 -0.3154
17875W        W38155  14.936  12.012   3.958 -0.0431 -0.1902  0.0949
17876W        W38156   3.896  12.299   0.585 -0.1022 -0.0356  0.1498
17877W        W38157  10.754   2.554  12.069 -0.1931 -0.0597 -0.1316
17878W        W38158  12.935  14.564   2.426 -0.2998  0.1938 -0.2757
17879W        W38159   1.009   6.017   4.512 -0.3618 -0.1572 -0.1220
17880W        W38160   3.032  13.327  14.538  0.1448  0.1333 -0.3553
17881W        W38161   4.404   7.287  16.301  0.1206  0.0945 -0.1239
17882W        W38162   4.485   9.368   1.547 -0.1865  0.0291  0.1174
17883W        W38163   0.687  16.697   3.510 -0.2681 -0.0825 -0.1164
17884W        W38164  10.646   7.429  15.908 -0.0035  0.0134 -0.1660
17885W        W38165  10.580   7.244  13.426  0.2568  0.1426 -0.0783
17886W        W38166   6.020  11.578  12.868 -0.0386  0.2286  0.0196
17887W        W38167   8.214  15.217  16.702  0.3139 -0.1605 -0.2235
17888W        W38168  10.411   0.441   2.146 -0.4417 -0.1038  0.0974
17889W        W38169   3.410  14.923   3.100  0.1921 -0.2514  0.0548
17890W        W38170  15.975  16.273  15.415  0.1739  0.1675  0.2795
17891W        W38171   2.300   7.470  12.529  0.0919 -0.3831  0.3429
17892W        W38172  11.039   7.256   5.180  0.1356 -0.1251  0.2197
17893W        W38173   5.974   4.203  13.806 -0.3553 -0.1557  0.2173
17894W        W38174   9.068   3.455  15.500 -0.1494  0.0647  0.1959
17895W        W38175  15.472   6.074   2.479  0.2056 -0.3851 -0.0102
17896W        W38176  12.918   1.295   0.525  0.1662 -0.1718 -0.3146
17897W        W38177   7.126   9.663  13.465 -0.2112  0.0712 -0.0740
17898W        W38178  13.631   7.966  11.136  0.1157 -0.1594  0.1633
17899W        W38179   5.655   2.084  15.864  0.0117  0.2990  0.3240
17900W        W38180  13.966   0.516  12.359  0.1317 -0.0827 -0.4769
17901W        W38181  10.223   9.837  16.629  0.3209 -0.2064 -0.0379
17902W        W38182   6.807   2.379   3.617 -0.0161 -0.0480  0.3757
17903W        W38183   0.090  12.417  14.548  0.0071  0.1453 -0.0208
17904W        W38184   2.622   1.223   0.699 -0.0150 -0.1727  0.0929
17905W        W38185  11.410  13.434   0.869 -0.0206 -0.1259 -0.1088
17906W        W38186   9.534  14.781   0.165  0.0404 -0.2058 -0.0774
17907W        W38187   0.376   3.771   3.026  0.1431 -0.1489  0.0081
17908W        W38188   1.216  10.775  14.815 -0.0067  0.0813  0.1879
17909W        W38189   4.275  15.403  14.075 -0.1352 -0.0234  0.0598
17910W        W38190   4.611   6.080  13.193 -0.0274  0.1678 -0.3502
17911W        W38191   9.125   7.334   4.536 -0.2374  0.0643  0.0506
17912W        W38192  12.052   3.830  15.180  0.0489 -0.0311  0.1643
17913W        W38193   7.830  14.822   1.611 -0.0773  0.0735  0.2616
17914W        W38194  17.225   2.986   3.763 -0.0068 -0.0063  0.0480
17915W        W38195  15.502   2.532   4.893  0.0889  0.1498 -0.0539
17916W        W38196  15.131  12.935   3.924  0.1869  0.0024 -0.1961
17917W        W38197  10.405  13.922   5.278  0.0465 -0.0261  0.0172
17918W        W38198  11.585  16.135  13.310  0.1513 -0.3631  0.0533
17919W        W38199   7.623   5.443   4.156  0.0743  0.2011  0.1691
17920W        W38200  15.553  15.146  12.270 -0.0606  0.0155  0.0492
17921W        W38201  13.824   7.659   5.447  0.1166 -0.1928 -0.1019
17922W        W38202   3.707   0.409  15.684  0.1307  0.3292  0.1521
17923W        W38203  11.472   9.291   1.808  0.1896  0.2302 -0.2847
17924W        W38204   2.316   2.131   0.696 -0.0193 -0.0289 -0.3603
17925W        W38205  16.732   4.179   0.858 -0.3672 -0.0912 -0.1129
17926W        W38206   1.130   8.684   2.012 -0.0179  0.0760 -0.2990
17927W        W38207   9.518  14.480  14.781  0.1127 -0.2415 -0.0167
17928W        W38208   7.371  15.029  14.465  0.0853 -0.0402  0.0156
17929W        W38209  12.383  10.046   3.681  0.1905 -0.0061  0.0464
17930W        W38210  13.885   8.287   4.719 -0.0162  0.2797  0.4082
17931W        W38211  14.897   3.366   1.349 -0.0224  0.0308 -0.0736
17932W        W38212  15.176   1.290   1.110  0.0815  0.1018 -0.2446
17933W        W38213  14.861  13.229  14.510 -0.1143 -0.1578  0.0749
17934W        W38214  17.250   5.832   1.824  0.0052 -0.0668  0.1231
17935W        W38215  14.456   7.933  15.942  0.0319  0.1935  0.0610
17936W        W38216   2.208   8.843  13.135 -0.2977  0.3930 -0.1378
17937W        W38217  11.605  16.995  14.917  0.0858 -0.4488 -0.2821
17938W        W38218  10.163   1.136  15.491  0.1270  0.0798  0.0666
17939W        W38219   7.299   7.009   4.702 -0.1125 -0.1375  0.0605
17940W        W38220   7.417   2.257  16.019 -0.0127 -0.2031 -0.2695
17941W        W38221   5.435  13.486  13.625 -0.0573 -0.1944  0.1481
17942W        W38222   3.009  11.724  13.093 -0.0691 -0.0514  0.2314
17943W        W38223  13.341  13.115   0.195 -0.2141 -0.2517 -0.0422
17944W        W38224  11.352   6.189  16.002 -0.0007 -0.1415 -0.1412
17945W        W38225   5.247   8.754  13.330  0.3339  0.4620 -0.2045
17946W        W38226  11.338  16.365   4.118 -0.2222  0.3113 -0.2002
17947W        W38227   4.404  13.468  14.323  0.1988  0.0841  0.3844
17948W        W38228   7.949  17.058  14.765  0.0309  0.1262 -0.2212
17949W        W38229  14.935  17.562  14.128  0.0904 -0.1420 -0.1249
17950W        W38230  11.989  12.535   2.050  0.5910 -0.0235  0.0050
17951W        W38231  13.814  10.050  16.144 -0.3193 -0.0877  0.4859
17952W        W38232  11.562  16.459   2.478  0.0325  0.3182 -0.1737
17953W        W38233   7.317  15.584   1.333  0.0356 -0.2094 -0.0598
17954W        W38234   4.029  10.544   3.877 -0.0875  0.3136 -0.0155
17955W        W38235  10.625   2.344  14.337  0.1395  0.1544  0.0752
17956W        W38236  12.280  14.825   1.755  0.0497  0.1974 -0.1045
17957W        W38237   4.582   2.090   4.270 -0.0775  0.0493 -0.2331
17958W        W38238   9.985  12.071  16.214 -0.0784  0.0243  0.1869
17959W        W38239  16.943   7.363   4.829 -0.0051 -0.1284 -0.2305
17960W        W38240   4.886   0.930   4.752  0.4428 -0.1911  0.2419
17961W        W38241  15.413   2.195  15.377  0.1189 -0.1862  0.0201
17962W        W38242  13.853  12.214   3.035 -0.0258  0.2789  0.1871
17963W        W38243  14.019  13.974   0.100 -0.1117 -0.4504 -0.0115
17964W        W38244   3.854  17.204   1.173  0.2819  0.0241  0.3178
17965W        W38245   5.345   8.744  12.111  0.1460  0.0405 -0.0720
17966W        W38246   2.915   0.034   2.880 -0.2179 -0.0205  0.2457
17967W        W38247  11.040   0.222  12.677  0.1062  0.1614 -0.0100
17968W        W38248  10.595  13.602  14.961 -0.1778 -0.3043 -0.0400
17969W        W38249   7.421  10.192   2.766 -0.1121  0.2783 -0.1004
17970W        W38250  17.234   9.225   4.009  0.0833  0.1443  0.2859
17971W        W38251   8.148  14.843   4.418  0.0977 -0.1127  0.2421
17972W        W38252  12.818   6.906   3.479 -0.3971 -0.3900  0.0418
17973W        W38253  11.104   9.101   4.193  0.0152 -0.0937 -0.0338
17974W        W38254   4.259   1.832  15.264  0.2328 -0.0046 -0.0563
17975W        W38255   2.921  17.573   0.970 -0.0519  0.2630 -0.1660
17976W        W38256   8.732  17.029  14.763  0.3803  0.2688 -0.1852
17977W        W38257  14.690  11.511   0.003 -0.2740 -0.1637  0.0769
17978W        W38258   5.092   0.220  14.238 -0.0422  0.1882  0.2793
17979W        W38259   2.210  17.018   1.956 -0.0725 -0.0932 -0.0082
17980W        W38260  11.092   5.737   3.883 -0.1798 -0.4041 -0.2842
17981W        W38261  13.242   0.117   2.849 -0.1323  0.0870 -0.2260
17982W        W38262  13.040  17.188  16.654 -0.1449  0.0516 -0.1093
17983W        W38263  12.256   0.437   1.927  0.2069  0.0905 -0.1165
17984W        W38264   2.785   9.388   1.191 -0.1006  0.2245 -0.0494
17985W        W38265   7.649   3.453  12.248 -0.1901 -0.1675 -0.1839
17986W        W38266   3.890   8.670   3.903  0.1315 -0.0536  0.0580
17987W        W38267   3.922  10.266   0.712 -0.0567  0.1743 -0.0359
17988W        W38268   3.945  13.811  12.407  0.0509  0.1145 -0.4660
17989W        W38269   6.787   5.275  16.577 -0.4492  0.4443  0.0759
17990W        W38270  10.272  11.146  16.163 -0.1638 -0.0921 -0.0144
17991W        W38271   3.462   0.076   4.247 -0.1085  0.0500 -0.0313
17992W        W38272   0.483   2.528   3.847  0.0608 -0.2567  0.1849
17993W        W38273  10.489  12.783   4.240  0.1185 -0.1329  0.0395
17994W        W38274   6.672  16.271  13.289 -0.0074 -0.0214  0.1543
17995W        W38275  12.827  15.236   3.840  0.1419  0.0140 -0.0035
17996W        W38276   5.333   3.427  16.355  0.1871 -0.3609 -0.1236
17997W        W38277  16.058   4.647  15.663 -0.0025  0.0833 -0.1789
17998W        W38278   9.765  14.722  15.774 -0.0859  0.2106 -0.1941
17999W        W38279   0.934  10.841  12.109 -0.2706  0.3631 -0.3243
18000W        W38280  12.572  17.577  13.636  0.3977 -0.0663 -0.2862
18001W        W38281  12.967   8.036   4.444  0.0779  0.0388  0.1343
18002W        W38282   2.406  14.515  12.892 -0.2648  0.1446 -0.0338
18003W        W38283   9.889  12.154   4.711  0.0068  0.1906 -0.1735
18004W        W38284   6.562  17.212  12.317  0.1227 -0.1531  0.3414
18005W        W38285  11.094  16.923  12.151  0.2353 -0.0593  0.1936
18006W        W38286   5.230   2.020  12.083 -0.0339 -0.2027 -0.2246
18007W        W38287  13.626   3.693   1.297  0.2693  0.1595  0.0322
18008W        W38288   0.703  11.360   1.934  0.2152 -0.1207  0.1174
18009W        W38289   6.760  12.163   2.753  0.1213  0.1920 -0.1292
18010W        W38290   4.953   3.548   3.400  0.2629  0.2178 -0.1265
18011W        W38291  15.891   9.677  14.638 -0.0422  0.0515 -0.0335
18012W        W38292   3.057   0.730   3.787  0.0284  0.2281  0.1749
18013W        W38293   0.794   0.917  16.743 -0.0552  0.0978  0.0754
18014W        W38294   6.863  17.084   2.945  0.1374  0.2853  0.1966
18015W        W38295   2.840  17.431   4.275 -0.0023  0.1057  0.0325
18016W        W38296  13.491  13.004  16.244  0.1131  0.2489  0.2407
18017W        W38297   1.686   9.812  12.580 -0.0225  0.1162 -0.3056
18018W        W38298   5.115   1.073   1.417  0.1763  0.1108  0.0157
18019W        W38299  12.566  15.245   1.775 -0.1100 -0.0384  0.2582
18020W        W38300   6.836  14.422   0.004  0.1669  0.0420  0.3602
18021W        W38301   8.264   2.902   1.841 -0.2308  0.0045 -0.0985
18022W        W38302  12.278   6.706   2.394  0.0835 -0.2460 -0.0628
18023W        W38303   4.340   6.281   4.310  0.3383  0.2079  0.1936
18024W        W38304   7.578   5.509   2.959 -0.2573  0.1074  0.0814
18025W        W38305   4.951   3.237   0.818 -0.2665  0.0759 -0.0491
18026W        W38306   5.325  10.099  11.954  0.1213 -0.0477 -0.2346
18027W        W38307   0.997   5.854   2.986 -0.1529 -0.1318 -0.0514
18028W        W38308  17.331   1.712   0.074 -0.1847 -0.0730  0.1233
18029W        W38309   5.566  13.930   4.786  0.1390  0.1637  0.1621
18030W        W38310   5.024  16.243   1.869  0.1408  0.0751 -0.4401
18031W        W38311   0.917   1.563  16.014 -0.2249  0.0535 -0.2465
18032W        W38312   4.454   5.627   2.299  0.1302 -0.2868 -0.3702
18033W        W38313   1.725   8.149  12.605 -0.0699  0.0489 -0.3002
18034W        W38314  11.130   8.784  15.155  0.0771 -0.0078  0.1949
18035W        W38315   6.841   2.871  14.996 -0.0166 -0.1858  0.2362
18036W        W38316  13.497  11.134   4.436 -0.0589  0.1204 -0.0249
18037W        W38317   7.191  17.330   4.870  0.1335 -0.0468 -0.1136
18038W        W38318   3.109   9.257  16.635 -0.2312 -0.1490 -0.0628
18039W        W38319   5.367  12.118  15.810 -0.2250 -0.3116 -0.1617
18040W        W38320  14.313  13.836   5.099 -0.3290  0.0934  0.0955
18041W        W38321  16.890   8.218  15.331  0.2352  0.0491 -0.0391
18042W        W38322   3.110  10.664  13.695  0.0425 -0.4489  0.2822
18043W        W38323   9.167   3.430   0.015  0.0854 -0.1697  0.2027
18044W        W38324  13.014   7.714   2.232 -0.0359 -0.0416  0.3600
18045W        W38325  10.424   8.983  10.943  0.0257 -0.1076 -0.5165
18046W        W38326  14.524  12.393   1.512  0.2695 -0.0112  0.1131
18047W        W38327   6.508   3.042  15.381  0.0585 -0.1984 -0.0569
18048W        W38328   2.441   9.666   1.472  0.3876 -0.1832 -0.3406
18049W        W38329  13.554   1.560   2.286  0.2601 -0.0502 -0.2419
18050W        W38330  14.748  17.619  15.783  0.0561  0.0444 -0.1220
18051W        W38331  17.602  12.985   3.099 -0.1630 -0.2956 -0.1835
18052W        W38332   8.029   1.344   1.941  0.0011  0.0541  0.0839
18053W        W38333  14.995  17.036   3.468 -0.0054 -0.3668  0.1169
18054W        W38334  16.907   5.693  14.605 -0.4058 -0.0596  0.4190
18055W        W38335  11.410  12.744   4.204 -0.1440  0.1316  0.0440
18056W        W38336   1.247  16.718   1.124 -0.1760  0.0574 -0.0512
18057W        W38337   4.123   0.239   0.274 -0.0136  0.2550  0.3893
18058W        W38338   5.889  12.822  16.409  0.1414 -0.0167  0.3160
18059W        W38339  15.011   5.482  16.573  0.0667 -0.3496 -0.1266
18060W        W38340   4.343   0.169   2.289 -0.3057 -0.2161  0.0213
18061W        W38341  13.671  12.296   4.375  0.0883  0.1822 -0.0784
18062W        W38342  13.306  17.388   4.082 -0.1161 -0.1607  0.2191
18063W        W38343   4.160   8.332   1.636  0.1946 -0.2587  0.0717
18064W        W38344   9.385   6.010   1.922  0.1484  0.1178 -0.2659
18065W        W38345  10.252   2.354   1.673 -0.1575  0.0930  0.1353
18066W        W38346  10.919   2.268   3.075 -0.3936 -0.0222 -0.1802
18067W        W38347  17.373  13.009  15.084  0.0478  0.1797 -0.0662
18068W        W38348   4.202   7.626  15.600  0.3524 -0.3074 -0.0037
18069W        W38349   1.865  15.277   0.111 -0.0017 -0.0532 -0.1226
18070W        W38350   0.827   9.291  14.173  0.3730  0.2603  0.0942
18071W        W38351   4.624   9.184   0.512  0.0481  0.0930 -0.0875
18072W        W38352  15.828  12.547   5.375 -0.3414 -0.0382 -0.0447
18073W        W38353   7.215   8.170  14.642  0.0328  0.0698 -0.1268
18074W        W38354  17.221   6.423  13.969 -0.0845 -0.0722  0.2202
18075W        W38355  11.034   5.224  14.213 -0.0330 -0.0548 -0.3988
18076W        W38356   0.007   4.798  12.875  0.1269  0.4307  0.2153
18077W        W38357  14.676  16.222  15.896  0.1497 -0.1081 -0.2571
18078W        W38358   4.316   2.687  16.796  0.1023  0.0765 -0.2046
18079W        W38359  12.005   7.738   2.162  0.0746  0.1931 -0.1614
18080W        W38360  16.257   9.082  16.268  0.1637  0.0919 -0.0561
18081W        W38361  15.771   6.926  12.823 -0.1357 -0.2115 -0.3124
18082W        W38362  16.110   8.113   4.429 -0.1821 -0.1795  0.0358
18083W        W38363  12.707  14.378   0.731 -0.1299  0.0301  0.1186
18084W        W38364   4.295  17.659  13.134  0.0800 -0.1587  0.1518
18085W        W38365   3.894   8.118   1.260 -0.0788  0.0691  0.3475
18086W        W38366  11.871   1.401  15.351 -0.0121 -0.0496  0.0620
18087W        W38367   1.013  16.590   2.301  0.2439  0.0102  0.0897
18088W        W38368  14.854  15.308  12.857 -0.1851  0.2061  0.2007
18089W        W38369   1.803  15.969  14.261 -0.0801 -0.0818  0.0249
18090W        W38370  13.498  15.922   2.868 -0.2021 -0.1779 -0.3552
18091W        W38371   8.091   2.830   1.102 -0.0281  0.0364  0.0918
18092W        W38372   1.327   9.824   1.250  0.1130  0.4187  0.0840
18093W        W38373  11.912  13.291   0.110  0.0278 -0.3839  0.3056
18094W        W38374   8.889  13.559   3.862 -0.0028  0.3476  0.0937
18095W        W38375   0.594   4.762  15.003  0.1059  0.1782 -0.0179
18096W        W38376   7.589   2.305   3.117 -0.1354 -0.3609 -0.0700
18097W        W38377  15.919  10.879   5.036 -0.0023 -0.0024  0.0396
18098W        W38378  14.865   9.049   5.020  0.1998  0.0053 -0.1863
18099W        W38379   1.561  16.153  15.347  0.0856  0.2580 -0.4452
18100W        W38380   2.626   8.419   4.506  0.0487 -0.1602 -0.1099
18101W        W38381   7.407  14.330   3.844 -0.0878  0.3275  0.0200
18102W        W38382   3.036   0.375  14.936 -0.4039 -0.0908  0.1429
18103W        W38383  15.154  10.828  14.077  0.1170  0.1105 -0.0583
18104W        W38384  10.385  13.668   1.185 -0.0573  0.1812  0.2817
18105W        W38385   0.716  10.928  15.551 -0.1531  0.0338  0.0743
18106W        W38386  14.361   0.180   4.885 -0.1155  0.2012  0.0176
18107W        W38387  11.061   0.040  13.629  0.0180 -0.0292  0.0813
18108W        W38388   3.752   2.416   1.426  0.1256  0.1216 -0.0801
18109W        W38389   3.801   5.181  13.724 -0.0460  0.1119  0.0639
18110W        W38390   1.404   7.376   2.324 -0.0753  0.1385  0.3099
18111W        W38391  14.022  13.594  12.662 -0.2894 -0.0544 -0.1652
18112W        W38392  15.049  11.272  11.993 -0.1414  0.3435  0.1592
18113W        W38393   5.648   3.303   2.703 -0.1397  0.2838  0.0197
18114W        W38394  17.226  16.941  16.101 -0.0642  0.2412  0.1090
18115W        W38395   7.701   5.237  12.815  0.1652 -0.0989 -0.4012
18116W        W38396  15.279  10.289  16.814 -0.3238  0.2139 -0.0926
18117W        W38397  17.142  14.420   2.697  0.3393  0.1414  0.0672
18118W        W38398  13.875  12.715  15.590  0.1121 -0.0474  0.0193
18119W        W38399  15.544   5.549  14.395  0.1846  0.0961 -0.2487
18120W        W38400   8.284   1.765  12.354  0.0817  0.2526  0.1917
18121W        W38401  10.962   1.164  16.142 -0.1427 -0.0660 -0.1707
18122W        W38402  16.115   7.269  12.811  0.4419 -0.0267 -0.0570
18123W        W38403  17.432  13.672   1.446 -0.0001  0.1616 -0.1862
18124W        W38404  16.123  16.506  14.374 -0.0211  0.1246 -0.1358
18125W        W38405   7.328   1.813   2.920  0.2550 -0.0134  0.0474
18126W        W38406   7.434   8.091   1.206 -0.2568 -0.0087  0.0751
18127W        W38407   6.465   6.878   2.941  0.1593 -0.1621  0.2123
18128W        W38408   0.633   5.605  13.893  0.1432  0.0648  0.1230
18129W        W38409   3.562  11.763  14.516  0.1420  0.0598  0.0289
18130W        W38410   4.127  12.063   3.734  0.0017 -0.1050  0.0719
18131W        W38411  11.913   4.360   1.817  0.2769  0.3094 -0.1313
18132W        W38412   6.386   3.825   2.738  0.0519  0.0001  0.0472
18133W        W38413   6.906   7.396  11.960 -0.1587  0.0576  0.0301
18134W        W38414  16.587   4.218   4.819  0.1009  0.2052  0.0108
18135W        W38415  15.817   5.975   0.250  0.1833  0.2161 -0.0348
18136W        W38416  15.175   1.668  15.084 -0.0081 -0.0811  0.0785
18137W        W38417   9.900   3.142  14.201 -0.1329  0.4179 -0.2205
18138W        W38418   6.861  13.732   1.188  0.2849 -0.2374  0.0358
18139W        W38419  12.757   6.141  13.035  0.1126  0.0265  0.2988
18140W        W38420  16.156  12.834   4.410  0.0475 -0.0050  0.0056
18141W        W38421   5.828  15.054  14.500 -0.0009 -0.2389 -0.0393
18142W        W38422  17.709   6.539  12.282  0.2660 -0.0076 -0.1154
18143W        W38423   7.911   0.780   1.305  0.0848  0.0726  0.1337
18144W        W38424  10.762   8.599   4.238 -0.1916 -0.2202  0.3613
18145W        W38425  12.220   1.052   4.884  0.0849 -0.1885 -0.0368
18146W        W38426  17.307   6.093   0.374 -0.2235 -0.2192 -0.0867
18147W        W38427   8.868  11.923   4.769  0.0722 -0.0111 -0.0815
18148W        W38428  15.294   4.153  13.725 -0.0440  0.0922  0.0862
18149W        W38429  17.229   4.853   1.832 -0.0864 -0.2910  0.2003
18150W        W38430   6.047   9.910  11.988  0.1331 -0.4718  0.0637
18151W        W38431  12.819  16.986   1.860 -0.0769  0.0950  0.3333
18152W        W38432   2.795  10.555   2.781 -0.0047 -0.1378 -0.1624
18153W        W38433  10.779  16.301   4.138 -0.0112 -0.0380  0.1155
18154W        W38434  13.120   9.007  15.782 -0.0406 -0.0569 -0.1421
18155W        W38435   4.834  11.536   4.755 -0.2380  0.2594  0.2667
18156W        W38436   0.529   8.744   3.485 -0.1292 -0.1467 -0.1216
18157W        W38437   8.683   0.984  15.943  0.0045 -0.1554 -0.1066
18158W        W38438   4.431   2.719  12.806  0.0611  0.2326  0.2400
18159W        W38439   5.550  12.621  12.610  0.0222  0.1085  0.0591
18160W        W38440   2.555   4.043   3.276  0.1747 -0.2511 -0.0092
18161W        W38441   6.131   9.164  15.867  0.2380 -0.2696 -0.0851
18162W        W38442   1.722  13.690   0.689 -0.2350  0.1551  0.1200
18163W        W38443  13.641   7.985   1.966  0.1983  0.2344 -0.1587
18164W        W38444   1.743  12.179  14.351  0.3038 -0.2218  0.0861
18165W        W38445  13.733  13.713   0.729 -0.0609 -0.1614 -0.0154
18166W        W38446   3.973   8.160   3.902 -0.0996 -0.0139  0.1476
18167W        W38447   6.888  14.116  15.297 -0.0567 -0.1012 -0.2471
18168W        W38448   7.142   8.009  16.190 -0.1306  0.0909  0.1030
18169W        W38449  13.693  11.725   3.159 -0.0592 -0.0915 -0.0424
18170W        W38450   3.308   2.817  12.622 -0.0917 -0.0281 -0.0906
18171W        W38451   9.563   6.995   4.063 -0.0571  0.2504  0.2120
18172W        W38452   6.664  13.123  14.868  0.1724  0.0369  0.2002
18173W        W38453   7.390   7.715  11.995 -0.2820 -0.1346  0.1361
18174W        W38454  17.654  15.550   3.718 -0.0007  0.3478  0.3078
18175W        W38455  12.213   0.392   1.163  0.1489  0.2512  0.1260
18176W        W38456  17.597   4.382   1.039 -0.0437 -0.0598  0.1498
18177W        W38457  15.136   8.383  15.489  0.0455 -0.0057 -0.0017
18178W        W38458  10.508   2.122   4.129  0.0398 -0.0672  0.0358
18179W        W38459   3.404  14.709   1.639 -0.0808  0.1789  0.0324
18180W        W38460   7.327  16.205  13.974 -0.3718  0.0591  0.1700
18181W        W38461   0.306  15.071   3.359  0.2955 -0.3358 -0.0414
18182W        W38462   4.145   9.850  12.277  0.0921 -0.3599  0.2277
18183W        W38463   3.051   2.976  14.366 -0.4135 -0.1006 -0.0114
18184W        W38464   1.218  13.669  12.470 -0.1416  0.4609  0.0663
18185W        W38465  11.019  14.665  16.320  0.1623 -0.1501 -0.2616
18186W        W38466   8.213   9.344  14.810 -0.0851  0.1970  0.1979
18187W        W38467   6.777   6.653   1.307  0.0401 -0.1006 -0.2977
18188W        W38468  15.735   2.685   3.626 -0.0673  0.1991 -0.2043
18189W        W38469  17.366   6.742   1.057  0.0207  0.0835  0.0372
18190W        W38470  13.512   4.572   2.649  0.1180 -0.0403  0.1477
18191W        W38471  10.741   0.027  15.626  0.0051 -0.1477  0.3680
18192W        W38472  16.359   6.145  13.039 -0.1328 -0.2159  0.3276
18193W        W38473   2.825   3.551   3.553 -0.0221  0.1484  0.1744
18194W        W38474   6.258   6.901  16.192  0.3028 -0.0121  0.1055
18195W        W38475  16.966   8.207  16.671  0.1710  0.1847  0.1821
18196W        W38476   7.891   4.582  16.259 -0.2032 -0.1094  0.2505
18197W        W38477   3.750  11.842  12.420  0.1994 -0.2024  0.2717
18198W        W38478   7.033  10.164  13.274  0.4237  0.1642  0.1595
18199W        W38479  10.944  11.164   2.255  0.1102  0.0543 -0.3494
18200W        W38480  15.653  12.481  13.892  0.1414  0.1673  0.0210
18201W        W38481   1.479  10.610  13.407  0.2921  0.1487 -0.0576
18202W        W38482  14.762   9.787  16.751  0.2953 -0.2640 -0.2170
18203W        W38483  10.266   6.995  13.734 -0.1253  0.0055  0.2912
18204W        W38484   1.181   8.319  16.324  0.1558  0.1699  0.3366
18205W        W38485  16.727  17.593   3.049 -0.0756  0.1412 -0.0238
18206W        W38486  15.575   6.925   0.964  0.4190  0.0221 -0.2145
18207W        W38487   2.167   3.627   3.636  0.1065 -0.2420  0.0051
18208W        W38488  10.534   6.476   2.756  0.1047  0.0437  0.0157
18209W        W38489   4.759   2.934  13.503  0.1303 -0.0743 -0.0319
18210W        W38490   2.494   0.466   2.864 -0.0389  0.1277  0.2672
18211W        W38491   4.776   7.510  12.059  0.1322 -0.1282  0.1209
18212W        W38492   8.602  17.418   4.406  0.3271  0.1915 -0.2033
18213W        W38493   1.875  11.509  12.650 -0.0882 -0.1354 -0.1116
18214W        W38494   1.108   8.296   1.120 -0.1648 -0.4516  0.1985
18215W        W38495   9.907   1.074  16.269  0.0875 -0.0225 -0.0278
18216W        W38496   5.321  13.730  12.679 -0.0053 -0.1013  0.2210
18217W        W38497   9.859   6.679   2.335 -0.2608  0.1769  0.4378
18218W        W38498   7.497   3.632   2.579  0.2573  0.0212 -0.1292
18219W        W38499   3.354   5.587  14.641  0.0513 -0.1304 -0.1232
18220W        W38500   9.811   8.322   4.354  0.0205 -0.1066 -0.1560
18221W        W38501   1.419   8.740  15.676 -0.0159  0.1667 -0.0553
18222W        W38502   4.070  11.208   0.824 -0.0901 -0.2859  0.0720
18223W        W38503  13.917   3.969  15.687  0.1104 -0.1527 -0.1804
18224W        W38504   3.961   6.153  14.439 -0.1935  0.2123 -0.3200
18225W        W38505  14.471  16.733  13.899 -0.1763 -0.1577 -0.0068
18226W        W38506   9.275  14.975  15.581 -0.0794 -0.0975 -0.4408
18227W        W38507   7.179   1.889   4.726  0.2221 -0.0671  0.2367
18228W        W38508   2.210   7.282  13.142 -0.2703 -0.1963  0.4522
18229W        W38509  16.861  14.621  12.823 -0.0220  0.0532  0.0241
18230W        W38510   8.792   3.200   3.685  0.0898 -0.1621  0.3012
18231W        W38511  14.134   6.960  14.926  0.0534  0.0109  0.1832
18232W        W38512  11.942   2.933   1.449  0.0395  0.4185  0.3855
18233W        W38513  17.346   4.057   4.813  0.2513  0.1356 -0.1412
18234W        W38514  13.278   2.486   4.047 -0.3732  0.0066  0.1385
18235W        W38515  10.686   6.937  12.316 -0.2986  0.2695 -0.1092
18236W        W38516   6.221   7.805  15.997 -0.1867 -0.1853 -0.1053
18237W        W38517  11.637   7.602  13.198 -0.1547 -0.0731  0.2970
18238W        W38518   6.838   6.621   3.463  0.1167 -0.1404  0.1593
18239W        W38519   0.935   0.958   4.278 -0.1865  0.0228  0.1396
18240W        W38520  13.401  13.486  14.475  0.0752 -0.0518 -0.1091
18241W        W38521  11.345  11.487  16.716  0.3172 -0.2112  0.0825
18242W        W38522   6.682   2.109  12.804  0.0804 -0.3362  0.0941
18243W        W38523  10.732  12.887   0.495 -0.1804  0.2595 -0.0783
18244W        W38524  16.384   6.058   5.126  0.1045  0.1179 -0.0121
18245W        W38525   0.769   9.335   4.680  0.1938  0.2685  0.3028
18246W        W38526   1.689  16.730   4.025  0.0564 -0.0766 -0.1084
18247W        W38527   6.159  10.593  16.238 -0.0338  0.0366  0.2311
18248W        W38528   5.009  16.171  13.251  0.0887 -0.1615 -0.0279
18249W        W38529   1.544   7.213  14.354 -0.0810  0.0330  0.1912
18250W        W38530   8.725   6.621   0.461  0.0769 -0.1213  0.0265
18251W        W38531   3.708  17.622   1.504 -0.0015  0.3778  0.3286
18252W        W38532   3.737  14.580   0.133  0.0644 -0.1664  0.0632
18253W        W38533   5.340   3.245   3.130  0.0135  0.1392 -0.0782
18254W        W38534   7.636  11.118  14.265 -0.2553  0.1647 -0.0580
18255W        W38535  12.452   9.749   1.024 -0.1041  0.2482  0.3652
18256W        W38536  11.360  11.713   0.932  0.0045  0.1330  0.1732
18257W        W38537  10.337   6.453  13.120 -0.0923  0.1998 -0.2378
18258W        W38538   9.620   0.263  12.398  0.2894 -0.1172  0.2842
18259W        W38539  13.734   0.457   0.851  0.0268 -0.0996  0.1122
18260W        W38540  14.822   4.073  13.001 -0.1882 -0.0013 -0.1482
18261W        W38541  15.030  13.612   0.460 -0.2672  0.0381 -0.1379
18262W        W38542  11.972  15.452   2.234 -0.0426 -0.1007  0.0850
18263W        W38543  14.611  15.286   1.888  0.2835 -0.2643 -0.1537
18264W        W38544  15.070  11.794  13.110 -0.0746  0.0959 -0.1293
18265W        W38545  13.960   7.238  15.906  0.3616  0.0200  0.0620
18266W        W38546   6.795  17.563   4.696 -0.3141 -0.1439 -0.0947
18267W        W38547  12.132  14.218   3.508  0.0457 -0.1035  0.0758
18268W        W38548  11.084  13.593   1.176  0.3275  0.3734  0.2366
18269W        W38549   0.348  17.534   3.475 -0.0442 -0.1622  0.0176
18270W        W38550   8.876   7.271   1.841 -0.0943  0.1960 -0.0457
18271W        W38551   1.155  15.418   2.924 -0.1980  0.3064 -0.1213
18272W        W38552  16.842   4.386  16.728  0.1966 -0.0503 -0.1272
18273W        W38553   3.416  13.582   3.643  0.0209  0.0984  0.1380
18274W        W38554   0.267  17.127  14.029 -0.0839  0.2287  0.0088
18275W        W38555   9.452  10.771   4.975  0.2414 -0.2995 -0.1748
18276W        W38556   5.373  17.436   1.569  0.0082  0.2567 -0.1946
18277W        W38557   3.122  17.218   3.332 -0.0073 -0.0995 -0.1017
18278W        W38558  15.137  13.765  14.800  0.2012 -0.2247  0.0189
18279W        W38559  15.716  12.507   4.508 -0.0700  0.1265 -0.0140
18280W        W38560  17.139  12.413   4.526  0.2262  0.0997  0.1085
18281W        W38561   9.265  16.157  16.326 -0.1005 -0.1415 -0.1735
18282W        W38562  15.680   9.029   5.931 -0.2039 -0.3022 -0.0212
18283W        W38563   6.963   5.319   1.440  0.1132  0.0180 -0.2529
18284W        W38564   6.422   5.509  13.274 -0.1068  0.1037  0.1132
18285W        W38565  15.619   1.573   2.877  0.0595 -0.2491  0.1371
18286W        W38566   5.160  17.516  14.951 -0.0231 -0.1258 -0.0909
18287W        W38567   2.356  16.593   2.256 -0.1137  0.0733 -0.0651
18288W        W38568   8.443   9.493   2.164  0.2047 -0.1671 -0.1432
18289W        W38569  10.692   6.125   0.005 -0.3547 -0.0423 -0.1782
18290W        W38570  15.862  15.257   0.774  0.1266  0.0044  0.4263
18291W        W38571  10.798   6.227  15.271  0.0436  0.2990 -0.0223
18292W        W38572  17.735   8.059   4.829 -0.0373 -0.0834 -0.1146
18293W        W38573   5.393  15.982   1.608  0.0153 -0.1931  0.1281
18294W        W38574   3.674   9.530  14.390 -0.0461 -0.0337 -0.0445
18295W        W38575  14.337  14.997   4.612  0.0392  0.0790  0.2427
18296W        W38576   7.632   5.451  11.995  0.0174  0.1918  0.2569
18297W        W38577   1.206   4.167  13.678  0.0600 -0.0033 -0.3766
18298W        W38578  17.597   3.066   4.047  0.0306  0.1631  0.0238
18299W        W38579  13.757  11.102   1.495  0.0289 -0.1227 -0.2206
18300W        W38580  17.692   6.249  14.253 -0.0361 -0.0624  0.0149
18301W        W38581  11.244   9.704   1.979 -0.0188  0.1004 -0.2064
18302W        W38582  17.404  16.663   2.458 -0.3383 -0.1046  0.0791
18303W        W38583  16.577   7.275  12.560 -0.0501  0.0545 -0.1128
18304W        W38584   5.884  17.735   4.721  0.2026 -0.0568  0.2160
18305W        W38585  15.921  17.262   3.334  0.1797 -0.1182  0.0531
18306W        W38586  10.725  14.085   2.473 -0.1488 -0.1226 -0.1898
18307W        W38587  12.211   9.678   2.452  0.1371 -0.3927  0.2469
18308W        W38588  14.740  12.713   1.876  0.0051 -0.0384  0.0476
18309W        W38589  13.536   1.685   2.939 -0.0370 -0.1569  0.0567
18310W        W38590   1.982  17.142   4.763 -0.0142  0.3647 -0.1271
18311W        W38591   0.349  13.394   1.135  0.1622 -0.2764  0.3501
18312W        W38592   4.400  13.709  16.307  0.1793 -0.1759 -0.0798
18313W        W38593   7.262  13.929  16.585  0.0671  0.2241 -0.0310
18314W        W38594   2.072   5.443   1.007  0.1619 -0.0599  0.2252
18315W        W38595   6.050   0.284   4.320 -0.0100  0.0828  0.3159
18316W        W38596  13.445  16.645   1.499  0.0529  0.0458 -0.2999
18317W        W38597   5.689  13.436   5.846  0.1185  0.0592  0.0179
18318W        W38598  13.746  11.513  14.465  0.1046 -0.2291 -0.1261
18319W        W38599   2.596   0.543   1.600  0.1523 -0.0272  0.4043
18320W        W38600   4.309  10.324  12.005 -0.0824 -0.0583  0.1266
18321W        W38601   9.198  11.313  13.122  0.0580 -0.0491 -0.3014
18322W        W38602  12.684   6.355   0.957 -0.0908 -0.0930 -0.0461
18323W        W38603   3.258   4.192  14.818  0.1363 -0.2619  0.1574
18324W        W38604   8.719  16.378   2.339  0.0063 -0.0465  0.0843
18325W        W38605   5.064  15.509   4.112 -0.0660  0.0737  0.1976
18326W        W38606  17.186  14.655  13.236 -0.2300 -0.2681 -0.1340
18327W        W38607   4.549   0.433   2.722  0.1051 -0.0846  0.0006
18328W        W38608  15.389  14.201  14.702  0.2223 -0.1318  0.1679
18329W        W38609  12.456   8.694  12.234 -0.2709 -0.0877  0.2484
18330W        W38610  10.552  17.214   2.618  0.2480 -0.2013 -0.0718
18331W        W38611  16.544  11.956  13.880  0.1055 -0.0343  0.2377
18332W        W38612  15.899   3.859   3.216 -0.0363 -0.0703 -0.1953
18333W        W38613   2.701  11.321  12.540 -0.0479  0.2163 -0.1925
18334W        W38614  10.733   8.070   0.277 -0.1921  0.0591 -0.1213
18335W        W38615   1.229   6.210   2.653  0.3243  0.1668  0.0313
18336W        W38616   9.645  11.917  15.869  0.1708  0.0656  0.0638
18337W        W38617   0.051  10.242  13.884  0.1107 -0.1890  0.1089
18338W        W38618   1.420  13.941   3.028  0.3529 -0.1823  0.1569
18339W        W38619   1.253  12.112  15.584  0.2047 -0.1754  0.1329
18340W        W38620   5.804  11.291   3.605 -0.0463  0.0535 -0.3104
18341W        W38621  12.878   5.160   4.075 -0.0496 -0.1644 -0.1786
18342W        W38622  15.607   9.813  15.535 -0.0430  0.3843 -0.0735
18343W        W38623   9.912   9.130  13.419  0.1583 -0.1462 -0.0503
18344W        W38624  16.179   6.111   2.629  0.1661  0.0628  0.0381
18345W        W38625  15.614   1.520   3.433  0.4321 -0.0086  0.3413
18346W        W38626   5.758  13.196  13.908 -0.0177 -0.1868  0.0149
18347W        W38627  15.952  13.463   5.234 -0.1974 -0.3090  0.0722
18348W        W38628  13.601   1.557  13.708  0.3358 -0.3132 -0.0337
18349W        W38629   8.967   1.312  14.445 -0.2978  0.0170  0.1827
18350W        W38630   0.987  14.839  15.828  0.0629 -0.0383  0.1159
18351W        W38631   2.459  14.109   3.679  0.0235  0.0088 -0.0973
18352W        W38632   3.560   6.111  16.376 -0.2289  0.0798  0.2129
18353W        W38633  16.719  17.041   3.740 -0.0685  0.1182 -0.2585
18354W        W38634  11.607  11.358   3.905  0.4226  0.0168  0.0812
18355W        W38635   5.361  14.149   2.919 -0.2400  0.1161  0.1024
18356W        W38636   8.656   3.694   5.273  0.1418  0.0225 -0.1982
18357W        W38637   2.901  11.816   4.095 -0.0496  0.1989  0.0195
18358W        W38638   5.575  15.545   0.688 -0.0657 -0.2342 -0.1790
18359W        W38639   5.520  16.568   1.673  0.1912  0.0195  0.0723
18360W        W38640   8.723  12.824  15.343 -0.2321 -0.1289 -0.0815
18361W        W38641  11.003   0.885   3.099  0.0557  0.0432  0.0184
18362W        W38642  12.775   0.788   2.587 -0.2527 -0.3732  0.1338
18363W        W38643   1.292   9.950  12.004  0.5127 -0.0928 -0.1132
18364W        W38644   9.191   0.201   4.430 -0.3483 -0.0690 -0.2823
18365W        W38645  14.199  17.537  14.393  0.0238  0.0466 -0.0381
18366W        W38646   4.507   2.999   1.683 -0.1075  0.0733 -0.2267
18367W        W38647   1.031   4.291   1.717  0.1138 -0.2593  0.1523
18368W        W38648   1.991  15.776  16.361 -0.1821 -0.0488  0.3484
18369W        W38649   1.297  15.743   1.411  0.4067 -0.1821 -0.1947
18370W        W38650   9.613   2.477  14.841  0.0237 -0.0725  0.0973
18371W        W38651   9.313   3.797  15.221 -0.1768 -0.0091  0.2746
18372W        W38652   7.431   5.510  12.435 -0.2282  0.0552 -0.1382
18373W        W38653   8.456  11.212  12.452 -0.0919  0.1738  0.0398
18374W        W38654   8.609  15.655  15.111 -0.0324  0.1286  0.0505
18375W        W38655   8.816   7.327   1.065  0.1271  0.2570 -0.3143
18376W        W38656   7.973   4.211  12.255  0.0159 -0.1108  0.0413
18377W        W38657  15.408  13.957  16.515  0.3443  0.0969 -0.1472
18378W        W38658   5.877  13.302  13.373  0.2359 -0.0176  0.1884
18379W        W38659   4.397   0.411  15.281 -0.1207 -0.1072 -0.0868
18380W        W38660   3.532  14.090   0.989  0.1463  0.0007 -0.0744
18381W        W38661  16.186  15.682   3.608 -0.1547 -0.0441 -0.1323
18382W        W38662   6.869   2.610   4.040  0.2246  0.2365 -0.3148
18383W        W38663   1.474   3.324  15.935 -0.0764  0.0499 -0.1113
18384W        W38664   2.659   8.226  16.805 -0.0104  0.2369  0.1234
18385W        W38665   1.309  16.327  11.364  0.1448 -0.1817 -0.2652
18386W        W38666  15.475  10.345   3.170 -0.1080 -0.1587 -0.0461
18387W        W38667   6.748  17.348  14.208 -0.1109 -0.3453 -0.1007
18388W        W38668   1.758  17.457  12.184  0.0280 -0.3149  0.0083
18389W        W38669  10.336  10.713   3.886  0.2858  0.4336 -0.2093
18390W        W38670  13.794  17.733   5.083 -0.2627 -0.0028  0.0017
18391W        W38671   4.985  16.540   1.440 -0.2474  0.0310 -0.0293
18392W        W38672  16.456   1.939   5.114  0.1731  0.2644 -0.0604
18393W        W38673   5.357   5.336  13.211  0.1012 -0.0799 -0.0704
18394W        W38674   7.439   0.277  13.785  0.3879 -0.1359 -0.0168
18395W        W38675   1.200   6.659   3.486  0.0781 -0.1779 -0.0651
18396W        W38676   2.165   9.953   1.106 -0.0952 -0.0401 -0.0329
18397W        W38677  12.583   7.533  15.926 -0.0437  0.1453 -0.1642
18398W        W38678  11.124   2.165  15.146  0.0964  0.1332  0.0364
18399W        W38679   1.384  10.665  12.351 -0.1290 -0.3424  0.0950
18400W        W38680   4.133  14.019  13.218  0.1729 -0.0257 -0.3187
18401W        W38681   2.513  14.242   2.146 -0.2566  0.0054  0.0687
18402W        W38682  15.119  10.993   4.995 -0.1440 -0.2460  0.0447
18403W        W38683   6.017   2.044  16.194  0.1425 -0.0338 -0.2246
18404W        W38684  11.843   9.337   1.464  0.3005 -0.1049 -0.1398
18405W        W38685  16.431  15.344  14.244 -0.2173  0.1134 -0.0269
18406W        W38686   9.282   9.824  13.372 -0.0585 -0.2610 -0.0282
18407W        W38687   2.942   6.845   2.700 -0.0741  0.0150 -0.2317
18408W        W38688  13.135   1.919   4.372 -0.1369  0.1001 -0.0274
18409W        W38689   1.549  11.116  15.059 -0.0860 -0.0408 -0.0932
18410W        W38690  10.756  14.290   3.297  0.0624 -0.0333  0.2576
18411W        W38691  13.351   2.244   0.055 -0.0289 -0.0994  0.0850
18412W        W38692  15.971   8.132  15.212 -0.1240  0.1165  0.2000
18413W        W38693   7.527   6.608   3.335  0.2802  0.0834  0.4427
18414W        W38694  14.559   7.118  14.602 -0.0665  0.0744 -0.2002
18415W        W38695  16.240   9.538  12.194 -0.1872  0.0082 -0.0122
18416W        W38696  16.061  16.267   3.493  0.0839  0.0488 -0.1792
18417W        W38697  16.028   6.917  13.226  0.2545  0.3182 -0.0997
18418W        W38698   2.350  10.580   4.013 -0.0064 -0.2761 -0.1266
18419W        W38699   2.575  10.924   2.092  0.1915 -0.2006  0.0175
18420W        W38700  16.038  10.792  13.451  0.1475 -0.1733  0.1155
18421W        W38701  14.258   9.453  15.598 -0.0640 -0.1179 -0.1885
18422W        W38702   3.984  11.204   4.081 -0.0720 -0.0693  0.2908
18423W        W38703  17.342  17.116  15.202  0.0353 -0.0887  0.2294
18424W        W38704   0.678  13.395   3.337 -0.0417  0.1557  0.1553
18425W        W38705   0.384   8.528  15.540  0.0243  0.0907  0.0567
18426W        W38706   0.597  12.707  13.241 -0.0873 -0.0755 -0.1300
18427W        W38707   3.460   1.665   1.811 -0.0140  0.2159 -0.2350
18428W        W38708   8.571   6.370  13.381 -0.0321 -0.0876  0.2666
18429W        W38709  10.278   5.399   0.169 -0.1341 -0.3926 -0.0574
18430W        W38710   8.599  11.156  15.117  0.0914  0.1957 -0.2616
18431W        W38711  14.767  14.536   0.521  0.1439  0.1335  0.2547
18432W        W38712  12.607  16.624   2.093  0.0250  0.1234 -0.0333
18433W        W38713  16.127  11.621  13.891  0.1013 -0.1416  0.0887
18434W        W38714   9.082  15.499  12.756  0.2072 -0.1466  0.0721
18435W        W38715   7.765   1.075  12.964 -0.0526 -0.3854  0.1360
18436W        W38716   8.439   4.537   3.766 -0.0397  0.3022 -0.0633
18437W        W38717   4.469   8.893   5.815  0.1806  0.1302  0.0472
18438W        W38718   4.545  14.929  15.926 -0.1696  0.1792 -0.0339
18439W        W38719  12.062  15.824  12.697  0.1294 -0.0474  0.0857
18440W        W38720  11.650   5.310   4.305  0.0530 -0.2623  0.0504
18441W        W38721   0.923   5.993  12.219 -0.1067  0.0164 -0.2047
18442W        W38722   9.408  15.473   0.801  0.0533  0.0476  0.1038
18443W        W38723   0.156  12.081  13.726 -0.0239 -0.0820  0.1074
18444W        W38724   5.194   1.305   0.994 -0.1179  0.1547  0.0250
18445W        W38725   6.787  11.418  14.108  0.2780  0.1537 -0.1569
18446W        W38726  10.024   8.026   0.059  0.0023  0.1379  0.0484
18447W        W38727   9.864   3.701   1.807 -0.1647  0.1158 -0.1819
18448W        W38728   3.841  17.244   2.766  0.2570 -0.1768  0.1298
18449W        W38729   1.705  12.406  16.741 -0.0285 -0.0073  0.0777
18450W        W38730  12.923   7.322  16.221 -0.3387  0.0498 -0.0336
18451W        W38731  11.705   5.656   0.533 -0.3790 -0.2947  0.2271
18452W        W38732  16.046   1.315   0.379 -0.0565  0.2013 -0.1206
18453W        W38733  15.022  15.688   2.710 -0.0518  0.0430 -0.2063
18454W        W38734  10.186  12.097   0.271  0.2902 -0.0238  0.1508
18455W        W38735   7.111   2.848   2.565 -0.0111  0.0510  0.1957
18456W        W38736   5.505   6.110  13.731 -0.2333  0.1573 -0.0534
18457W        W38737   7.824  14.932  12.667  0.0260  0.0791 -0.1848
18458W        W38738   4.799  13.654  12.531 -0.0870  0.0514 -0.0912
18459W        W38739   1.764   5.829  13.631  0.1329 -0.1638 -0.0820
18460W        W38740   2.353  15.258   0.463  0.0947 -0.0823 -0.2373
18461W        W38741   2.091  15.920   3.706 -0.1403  0.0652 -0.3261
18462W        W38742   9.314   9.504  16.418  0.0264 -0.1975 -0.0548
18463W        W38743  11.741   1.016   1.848 -0.1315 -0.0461 -0.1428
18464W        W38744   5.525  16.180  15.274 -0.0426  0.1537  0.1424
18465W        W38745  15.543  13.114  15.531  0.1844 -0.3826  0.1541
18466W        W38746   2.082   0.767   0.398 -0.1416  0.3655 -0.0340
18467W        W38747  17.152   3.696   3.037 -0.0874  0.2000  0.0560
18468W        W38748  14.478  11.965  16.832 -0.0504  0.1172 -0.0274
18469W        W38749   7.179   5.553  12.843  0.0045  0.1408 -0.3362
18470W        W38750   3.671   9.262  14.850 -0.1968 -0.0675  0.0788
18471W        W38751  15.930   6.884  16.531  0.0701 -0.0959 -0.0895
18472W        W38752   6.409  15.957   1.085  0.0672 -0.1498 -0.4098
18473W        W38753   6.500   8.883   0.646 -0.1729  0.0537  0.2792
18474W        W38754  13.799   4.329   5.200 -0.1674 -0.0205  0.1232
18475W        W38755   2.857  10.271  13.430  0.0566  0.1240 -0.1716
18476W        W38756   2.479   7.623  14.568  0.0696  0.0561 -0.1221
18477W        W38757  16.962  14.788   1.147  0.2191 -0.1380  0.2243
18478W        W38758  17.580  14.282   2.924 -0.0831 -0.3268 -0.1011
18479W        W38759   5.980   6.000  16.675  0.0765 -0.0359  0.3525
18480W        W38760   0.926   3.421   3.194 -0.1504 -0.0389 -0.1429
18481W        W38761  11.522   8.576  14.637 -0.0884  0.1404  0.1819
18482W        W38762   0.663  14.530  12.702 -0.1503  0.0589  0.1636
18483W        W38763   7.435   4.487   4.645 -0.0188  0.2850 -0.2148
18484W        W38764   7.780   9.833  16.056  0.0184  0.2088 -0.1242
18485W        W38765   7.396  11.980  12.056 -0.1084  0.0170 -0.0812
18486W        W38766   5.053  11.080  11.814 -0.0162 -0.2386 -0.1885
18487W        W38767   2.372   4.982  12.292 -0.1615  0.3320  0.0390
18488W        W38768  14.302   1.900  12.468  0.0874 -0.2411  0.0319
18489W        W38769  13.932   2.017  12.844  0.0447  0.1342 -0.2342
18490W        W38770   5.591   3.250   1.842  0.2418  0.1001 -0.2564
18491W        W38771   8.710  12.451   1.388 -0.0961 -0.0239 -0.0646
18492W        W38772   8.986   1.957   2.580  0.0029 -0.1312  0.0129
18493W        W38773  13.615   2.134   3.956  0.2276  0.3820  0.1654
18494W        W38774  13.459   1.932  12.647 -0.1504 -0.0929 -0.1607
18495W        W38775   1.782   6.243  12.030 -0.2100 -0.0206  0.2246
18496W        W38776   9.937   8.467  16.751  0.1141  0.2446  0.2681
18497W        W38777   0.459  16.578   3.023 -0.3178  0.3417  0.0997
18498W        W38778   6.402   4.164  15.447  0.1008  0.0593 -0.0183
18499W        W38779  12.719   8.177  12.399  0.1157 -0.4317  0.2285
18500W        W38780  10.503   0.821  13.210  0.0694  0.1376 -0.3452
18501W        W38781  12.823   1.286  12.365 -0.0066  0.0591  0.0084
18502W        W38782  16.260  10.574  14.639 -0.2855 -0.1540  0.1175
18503W        W38783   6.465   6.008   1.645  0.1908 -0.0706 -0.2730
18504W        W38784  16.698  16.009  15.000  0.0021 -0.1657  0.0259
18505W        W38785   9.724   0.041  16.565 -0.0290  0.1709 -0.0323
18506W        W38786   5.767   8.431  12.032 -0.2821 -0.0734  0.0933
18507W        W38787  10.294  13.658  14.117  0.1319  0.0634  0.5104
18508W        W38788   7.644  12.057   0.279 -0.1197  0.1337  0.0216
18509W        W38789   4.572   9.014   3.960 -0.0373  0.2106 -0.2015
18510W        W38790  15.069   8.917   2.577  0.0009 -0.0190 -0.2060
18511W        W38791   9.700   3.301  16.872  0.1318  0.0952 -0.3513
18512W        W38792   7.668   4.729  13.666 -0.2532 -0.1522  0.0964
18513W        W38793  11.314  14.246  16.084  0.1171 -0.2880 -0.1171
18514W        W38794   9.846  16.122  15.753 -0.0082  0.3754 -0.4092
18515W        W38795   1.496  17.201   3.793  0.0855  0.0856  0.0506
18516W        W38796   8.020  11.744   0.441 -0.2007 -0.1823 -0.1996
18517W        W38797   2.836  11.367  15.630 -0.2471 -0.0011  0.0918
18518W        W38798   8.089  14.043   0.965  0.1482  0.0618 -0.0523
18519W        W38799   2.310   0.190   2.337 -0.1142  0.0574  0.1848
18520W        W38800  11.133  15.833  15.387  0.2783 -0.2585 -0.1010
18521W        W38801   7.376  13.647  12.003  0.3734 -0.0344 -0.3544
18522W        W38802   0.883  12.593   4.809 -0.2572  0.4125  0.2221
18523W        W38803  16.476  17.650  15.184 -0.0320 -0.4290 -0.1415
18524W        W38804   4.372   5.149  13.225  0.2043 -0.2336  0.2351
18525W        W38805  16.052  17.381   5.083  0.1675 -0.0681 -0.1584
18526W        W38806   5.866  13.376   0.373  0.4319  0.0964 -0.1107
18527W        W38807  16.307   3.686   4.786 -0.0847  0.2368  0.0372
18528W        W38808  12.134   5.447  12.336  0.1932  0.2960 -0.0986
18529W        W38809   1.401   2.053  14.000 -0.2529  0.1258  0.1324
18530W        W38810   0.870  12.450   3.997 -0.0638  0.0218 -0.0830
18531W        W38811   4.657  16.920   1.641  0.0753 -0.0840  0.1010
18532W        W38812   5.592   4.084  13.434 -0.2559 -0.2387  0.1213
18533W        W38813   4.493  14.057  15.430 -0.1470 -0.2101  0.1090
18534W        W38814   6.870  15.106  15.276  0.0479  0.1260  0.0989
18535W        W38815   4.259   9.033  15.833 -0.0716 -0.1757  0.0221
18536W        W38816   7.022   0.499   2.600  0.1972 -0.0164 -0.0827
18537W        W38817  14.490   7.606   4.338 -0.1674 -0.1652 -0.1220
18538W        W38818   8.615  13.150   2.610 -0.1321 -0.1238  0.3073
18539W        W38819   3.453   3.887  12.606  0.0834 -0.3244  0.2960
18540W        W38820  10.872   0.152   1.034 -0.0047 -0.1246  0.2028
18541W        W38821  16.727   5.297   1.293 -0.1423  0.0167 -0.0572
18542W        W38822   4.734   2.040   4.725  0.2774 -0.0607  0.0988
18543W        W38823   3.533  14.106  15.781  0.2232 -0.0903  0.0243
18544W        W38824  11.462  12.679   1.215  0.0529  0.2910  0.0475
18545W        W38825  17.360   5.916   3.302  0.2084  0.0575  0.0993
18546W        W38826  10.722   1.278   1.680 -0.0993  0.0735  0.2490
18547W        W38827  14.591  12.106   2.076  0.0684  0.0002  0.0769
18548W        W38828   4.014  10.018   2.482 -0.0650  0.2252 -0.2703
18549W        W38829  12.019  12.657   0.095  0.2606 -0.0712 -0.2257
18550W        W38830  16.576   6.801   2.201  0.0521  0.0349 -0.1223
18551W        W38831  17.043   3.488  13.449  0.0058 -0.4064 -0.1888
18552W        W38832  11.374   0.226   1.674  0.1009 -0.1147 -0.0906
18553W        W38833  16.944  16.140   3.597  0.1937  0.0286  0.0277
18554W        W38834  10.204   7.410  12.963 -0.1215  0.1530  0.1657
18555W        W38835   7.296   3.723  15.521  0.2817 -0.2149 -0.0971
18556W        W38836  16.504  10.245   2.227  0.2332 -0.1416  0.3145
18557W        W38837   4.553   7.384  12.923  0.3551  0.0238 -0.3969
18558W        W38838  13.305   9.936   1.640 -0.1743  0.1217 -0.1888
18559W        W38839   6.384  11.354  12.405  0.0341  0.0474 -0.0700
18560W        W38840   8.584   6.168  16.730 -0.0179 -0.2184 -0.1264
18561W        W38841  10.751   1.846   0.548 -0.4651 -0.0259  0.0584
18562W        W38842   7.087   7.968  13.318  0.3748 -0.0146  0.0107
18563W        W38843   2.232   6.917  15.478 -0.0452  0.1194 -0.0022
18564W        W38844   1.164  15.880   2.735 -0.3019  0.2828  0.1970
18565W        W38845   5.669  11.678  13.564 -0.0415  0.0752  0.1585
18566W        W38846   9.429  11.173  15.447  0.1412  0.3571  0.1993
18567W        W38847   5.167  17.465   3.173  0.1153 -0.0079  0.1362
18568W        W38848   0.688  11.739   1.621 -0.3345  0.0357  0.0777
18569W        W38849   4.656  13.961  13.902  0.0634  0.2851  0.2084
18570W        W38850  16.078   4.747   3.497 -0.0049  0.1080 -0.2579
18571W        W38851  15.628   1.239   0.168 -0.1147 -0.3423  0.1929
18572W        W38852   4.343  15.976  15.871 -0.2493 -0.0498  0.0631
18573W        W38853  11.435  10.444   1.407  0.0136 -0.1758  0.0812
18574W        W38854   8.113   8.930  15.501  0.2296  0.0051  0.0781
18575W        W38855  15.671   8.035   0.188  0.0766 -0.1234  0.0936
18576W        W38856  13.935   1.502   2.042 -0.2721  0.1386 -0.0742
18577W        W38857  16.501   3.724  15.506 -0.0219 -0.0608 -0.2264
18578W        W38858   2.441  14.341   1.612 -0.2247 -0.0556 -0.1147
18579W        W38859  14.764   7.336   3.598 -0.0155  0.0215  0.0285
18580W        W38860  14.237   8.118   2.362  0.0759  0.4619  0.0352
18581W        W38861   6.992   6.354  12.797 -0.0550  0.4363 -0.2664
18582W        W38862  11.895   3.903   4.315  0.1783  0.0530 -0.2916
18583W        W38863   2.265  14.947  13.099 -0.2368  0.0059 -0.0737
18584W        W38864   7.986   1.537   2.444 -0.0374  0.1413  0.0033
18585W        W38865   1.056  11.083  12.558 -0.1680  0.0507 -0.1443
18586W        W38866   3.583   5.451  15.759  0.0862 -0.0676 -0.1773
18587W        W38867  15.327   2.652   0.877  0.0655 -0.0689  0.1472
18588W        W38868   7.506  12.644   3.143  0.1086  0.0684  0.0273
18589W        W38869   9.897   1.884  16.642  0.1557 -0.1006 -0.0087
18590W        W38870   3.945  14.001   1.922 -0.3105 -0.3295 -0.2551
18591W        W38871  12.980  14.726  16.348  0.2332 -0.4038 -0.2475
18592W        W38872  15.831   8.229   0.590  0.1946 -0.0070 -0.0201
18593W        W38873  15.302   7.744   3.805 -0.0282 -0.0215  0.1545
18594W        W38874  14.426   0.834   2.419  0.0321 -0.0003 -0.0520
18595W        W38875  13.691   4.836   3.848 -0.1978 -0.1519  0.1820
18596W        W38876  14.733   0.077   1.610 -0.1891  0.3331  0.2218
18597W        W38877  11.542  15.208   2.466  0.0458  0.0192  0.5423
18598W        W38878  14.436   4.685   2.032 -0.1740  0.1668 -0.2490
18599W        W38879  13.661   5.951  12.929 -0.0527 -0.1397 -0.0043
18600W        W38880   6.043   5.588  13.655  0.0044  0.0745 -0.1832
18601W        W38881   1.704  14.119  14.061  0.1121 -0.3779  0.3061
18602W        W38882   4.728   4.018  16.165 -0.0400 -0.4026 -0.1308
18603W        W38883   7.551  14.185   2.908  0.0533  0.0230 -0.1581
18604W        W38884   8.834  17.279   0.731 -0.1980  0.1320  0.4181
18605W        W38885   6.305  14.586   1.996  0.1024 -0.1745 -0.1463
18606W        W38886  17.483   6.751  16.124  0.0840  0.1271  0.0377
18607W        W38887   1.757  11.350  15.824  0.1543  0.4099 -0.0592
18608W        W38888   6.448   4.029  13.198  0.1439  0.0226 -0.0430
18609W        W38889  15.701  13.058   1.606 -0.1844  0.1776  0.1109
18610W        W38890   3.821  17.194   1.695  0.0105 -0.1318  0.2299
18611W        W38891  11.164   5.382   4.908  0.0823 -0.0341  0.0268
18612W        W38892  12.750  16.730  13.730  0.2969 -0.1250 -0.1801
18613W        W38893   9.287  10.317   4.656 -0.1574 -0.0714  0.0343
18614W        W38894   6.330   8.225  12.883  0.0994 -0.1333 -0.0425
18615W        W38895  14.684  15.064   0.836  0.0295 -0.2138 -0.1667
18616W        W38896  10.482   9.376   1.986 -0.1685 -0.1178 -0.1343
18617W        W38897  16.984   8.965  14.231  0.1770  0.0307 -0.1721
18618W        W38898  12.268  11.178  14.281 -0.0198 -0.5366 -0.1391
18619W        W38899  15.224   5.241   3.126  0.3634  0.1150  0.3542
18620W        W38900  14.049  10.566   2.752  0.0648 -0.0209  0.0284
18621W        W38901  12.977   2.961   1.448 -0.2861 -0.1768 -0.0861
18622W        W38902   2.918  13.518   4.431  0.1430  0.1328 -0.2554
18623W        W38903   0.416  16.130   4.831 -0.3186 -0.2015  0.1930
18624W        W38904   7.988  13.633   0.580 -0.0656  0.0246  0.3769
18625W        W38905  11.641   3.777  12.844 -0.0934 -0.0638  0.1417
18626W        W38906  12.592   0.950  12.742 -0.1747  0.2404  0.0312
18627W        W38907   7.991  16.992   4.333 -0.3302  0.2740 -0.2737
18628W        W38908   5.024  15.079  12.342 -0.0167  0.3752 -0.1922
18629W        W38909  11.182   7.628  16.077 -0.2827  0.0742  0.2010
18630W        W38910  15.815   7.669   2.811 -0.1923 -0.1048  0.3260
18631W        W38911   1.853  13.138   0.690  0.1154  0.2891  0.1372
18632W        W38912   1.695   3.720  16.172  0.0318 -0.2097  0.0642
18633W        W38913  16.889  13.443  15.509 -0.0935 -0.4484  0.0623
18634W        W38914  16.981  16.366   0.332  0.1546 -0.1003  0.0973
18635W        W38915  16.613   4.025   1.765 -0.1534 -0.0568 -0.0744
18636W        W38916   8.515  13.878  16.131 -0.1965  0.2838  0.1130
18637W        W38917   5.409   9.476   4.189 -0.3913  0.2992  0.0559
18638W        W38918   3.488   6.678  13.362 -0.1042 -0.0833  0.0275
18639W        W38919  14.064   5.476  14.970 -0.0464 -0.0319  0.0865
18640W        W38920   1.853   6.659  14.942  0.1489 -0.0318 -0.1512
18641W        W38921   2.840   9.306   2.264 -0.1757  0.1606  0.2116
18642W        W38922  16.704  15.161  16.348 -0.0170 -0.0563 -0.1356
18643W        W38923  13.923   7.328   2.991 -0.2358 -0.0150  0.0176
18644W        W38924   9.764   2.795  16.575  0.0527  0.0184 -0.1254
18645W        W38925   2.190   1.143  13.138  0.3049  0.0457  0.1688
18646W        W38926  13.585   6.091   2.755  0.2587 -0.0951  0.0221
18647W        W38927   3.689  12.061  11.915 -0.0631 -0.2527 -0.4235
18648W        W38928   7.960   8.141   1.184 -0.0092  0.0889 -0.1954
18649W        W38929   8.546   0.300  13.220 -0.2804  0.1809 -0.0081
18650W        W38930  14.777   8.719   4.630  0.0311  0.2822 -0.3195
18651W        W38931  16.350  11.843  12.265 -0.0897  0.2629 -0.2624
18652W        W38932   8.791  11.615   0.223  0.0039  0.0122  0.0356
18653W        W38933  16.971  13.272  13.106 -0.3910 -0.0400 -0.0965
18654W        W38934   8.940   3.201  16.420  0.1595  0.1538 -0.4754
18655W        W38935  11.606   2.148   0.665 -0.2291  0.1132  0.0374
18656W        W38936  17.179   0.606  16.052 -0.1843  0.2334  0.0608
18657W        W38937   0.319  11.989  14.625 -0.0889 -0.2553  0.1416
18658W        W38938   6.218   3.667  12.913  0.0593 -0.2546 -0.0727
18659W        W38939   9.684  13.879   4.126  0.0966  0.1887  0.1402
18660W        W38940  13.693  16.605   3.449  0.2132  0.0176  0.0701
18661W        W38941  11.127   0.174   3.178  0.1786 -0.0922 -0.1830
18662W        W38942   6.607   9.795  15.200  0.0895 -0.2310 -0.0038
18663W        W38943  12.305   7.589  14.178  0.1418 -0.5711 -0.1678
18664W        W38944   9.287  14.405   2.760 -0.1013 -0.1091  0.0769
18665W        W38945   3.007   5.899   0.061 -0.3056  0.0236 -0.0346
18666W        W38946   6.969  16.929  12.074 -0.0470  0.3449  0.4142
18667W        W38947   0.474  13.287  14.504 -0.3464  0.2292  0.1336
18668W        W38948  16.279   0.343   4.589 -0.2680 -0.2414 -0.5431
18669W        W38949  12.565  12.216  14.363 -0.0654 -0.1742  0.5093
18670W        W38950  17.399  17.444  12.985 -0.0607  0.0234 -0.2424
18671W        W38951   9.482   8.994  12.302 -0.2451 -0.0697 -0.1656
18672W        W38952   2.399   3.901   0.017 -0.2791 -0.1293  0.0336
18673W        W38953  14.092  12.022   2.170 -0.2778  0.2835 -0.2404
18674W        W38954  14.770  12.266   4.352  0.1961 -0.2827  0.3797
18675W        W38955   4.356   1.305  13.480  0.0887 -0.1651  0.0983
18676W        W38956   4.229  12.144  14.493  0.1245  0.3285 -0.0451
18677W        W38957   3.360  12.402   4.815 -0.0119 -0.1338 -0.1618
18678W        W38958   6.617  12.256  13.885 -0.1192  0.0102  0.0342
18679W        W38959   7.672  17.449  12.927  0.0565 -0.2404 -0.1112
18680W        W38960   2.475  11.938  15.705 -0.2487 -0.1761 -0.1499
18681W        W38961  10.348   9.664   1.522 -0.0861 -0.1315  0.2062
18682W        W38962   3.093   9.428   3.240 -0.2610 -0.1110 -0.3277
18683W        W38963   8.031  16.415   2.212  0.1114 -0.1042  0.0161
18684W        W38964   7.787   2.438   0.610 -0.0496  0.0764 -0.0782
18685W        W38965   6.207  15.601  13.902  0.0832  0.0451 -0.3062
18686W        W38966  15.762   4.935   4.353 -0.1778  0.1047  0.3415
18687W        W38967   2.755   2.507  16.851  0.0777  0.0784  0.1134
18688W        W38968  12.233   5.021  15.735 -0.0466 -0.0081 -0.2355
18689W        W38969   2.827   7.011   2.124 -0.0122  0.2080  0.1002
18690W        W38970   4.140   4.212   0.345 -0.0928 -0.1289 -0.1738
18691W        W38971  12.885   3.526   1.942 -0.0295  0.4291 -0.0859
18692W        W38972   4.505   1.226  16.174  0.1378  0.0594  0.1678
18693W        W38973   3.891   0.857   3.427 -0.0407 -0.2750 -0.0212
18694W        W38974  17.691   3.409  12.729 -0.2162 -0.1260 -0.4325
18695W        W38975   7.717  14.551   4.183  0.0067 -0.1164 -0.0825
18696W        W38976   4.712  17.284  15.832 -0.1166 -0.2296 -0.1588
18697W        W38977   0.284   0.825  12.259 -0.2009 -0.0772 -0.3161
18698W        W38978  15.170  12.388  12.263  0.0974 -0.0597  0.1140
18699W        W38979   5.975   3.912  15.135  0.1209  0.0152  0.0740
18700W        W38980   5.660  16.670   3.299  0.1689 -0.0798 -0.1590
18701W        W38981   6.621  17.506   2.544  0.0503  0.0056  0.2306
18702W        W38982   3.637   3.770  14.677  0.1094  0.1907 -0.1262
18703W        W38983  17.466  15.090  13.336  0.4024 -0.4173  0.1718
18704W        W38984   5.766   9.228   1.196  0.1172  0.1595  0.0604
18705W        W38985   8.933   8.137  12.829  0.3134  0.3630 -0.0760
18706W        W38986   5.141   0.212   0.167 -0.0934  0.0821  0.0619
18707W        W38987  17.057  11.440   2.739  0.1326  0.2022 -0.0838
18708W        W38988   4.445  11.729  13.007  0.0472 -0.0441 -0.2064
18709W        W38989  14.413  15.629   1.463  0.0109  0.1184  0.0185
18710W        W38990  11.241   2.445   1.837 -0.0014 -0.2547  0.1446
18711W        W38991   2.401   7.724  15.841 -0.0586  0.1835  0.0776
18712W        W38992  10.128   7.635  16.665  0.3211 -0.1986 -0.1453
18713W        W38993   8.969   1.463  13.921 -0.0554 -0.0536  0.0262
18714W        W38994   1.469   5.055  16.686  0.0991 -0.1093 -0.0708
18715W        W38995   4.938  16.073  15.859  0.0005  0.2538  0.1113
18716W        W38996   8.539  15.383   2.977 -0.0799  0.2170 -0.0568
18717W        W38997  11.947   3.906  12.473 -0.0873 -0.0118  0.1763
18718W        W38998   3.015  13.262  15.961  0.0228 -0.2003 -0.4307
18719W        W38999   9.515  13.950  16.576  0.2017 -0.1454 -0.4129
18720W        W39000   8.626  14.086   0.041 -0.2768  0.1819 -0.0829
18721W        W39001   9.933  15.706   2.649  0.1366  0.1496 -0.1066
18722W        W39002  14.944   1.079   4.249  0.0656  0.2100 -0.0176
18723W        W39003   9.852   4.591  14.078  0.0044 -0.1332 -0.1522
18724W        W39004  13.536   0.081  13.007  0.0776 -0.3243 -0.2908
18725W        W39005  14.199  10.557   1.172 -0.1388  0.0996  0.0628
18726W        W39006  17.352  15.973  15.977  0.1929 -0.3147 -0.3667
18727W        W39007   0.856   6.289  14.083  0.0588 -0.1394 -0.3376
18728W        W39008  15.500  16.177   0.994  0.4899 -0.0617  0.1819
18729W        W39009  15.156  17.161   2.981 -0.0833 -0.0063  0.3654
18730W        W39010  14.998   8.525  16.660  0.5167  0.4333  0.1870
18731W        W39011   7.477  17.681   4.564 -0.0164 -0.0942  0.0295
18732W        W39012   0.284  13.743  16.159  0.0958  0.1750  0.1008
18733W        W39013   3.822   2.599  14.056 -0.3370  0.1582 -0.1054
18734W        W39014  12.798  14.930   1.424 -0.4008  0.1499 -0.0498
18735W        W39015  13.104   6.311  12.238  0.2357  0.1043  0.0469
18736W        W39016   2.136   1.934   1.749 -0.1138 -0.0578  0.1609
18737W        W39017   1.505   0.202  12.088  0.0121 -0.1792  0.3688
18738W        W39018   8.435   6.030  14.218  0.1325 -0.0358  0.0396
18739W        W39019  12.765   1.239   5.133  0.0117 -0.1327 -0.0551
18740W        W39020   0.751   8.259  13.432  0.2093  0.4375 -0.1671
18741W        W39021  11.064  15.648  14.441  0.0259 -0.0612  0.3147
18742W        W39022   8.143  16.630   3.554  0.0454  0.3072  0.1223
18743W        W39023   1.306   3.965   2.049 -0.1822  0.3483 -0.1226
18744W        W39024  12.432   9.519  16.084  0.2679 -0.3098  0.0474
18745W        W39025   0.188   4.683  11.925  0.0672  0.0220 -0.1127
18746W        W39026  13.700  17.345  12.882  0.1316 -0.1708 -0.0770
18747W        W39027   5.585   3.833  15.571 -0.2783  0.2896  0.0193
18748W        W39028   3.475  17.527   0.991 -0.1934  0.1222 -0.0673
18749W        W39029   0.473   1.139   4.312  0.0032  0.2491 -0.1672
18750W        W39030  16.195  11.091   2.493  0.1034 -0.0631  0.1590
18751W        W39031  15.826  10.784   4.216 -0.2405  0.0364 -0.1788
18752W        W39032   6.270   1.407  13.874  0.0455 -0.0368 -0.1682
18753W        W39033   9.023  12.071   2.029 -0.1348  0.3628  0.2275
18754W        W39034  11.445   7.787  15.074  0.2468 -0.2683  0.0164
18755W        W39035   3.743   3.636   3.828  0.3290  0.2047  0.1084
18756W        W39036   4.334   4.236   4.225 -0.0309 -0.1469 -0.0552
18757W        W39037  13.551  14.233  12.150 -0.0644 -0.1845  0.3175
18758W        W39038   6.194  15.161  14.178 -0.4232 -0.3897 -0.1490
18759W        W39039   1.889  13.857  13.624  0.2071  0.3769 -0.3418
18760W        W39040   6.501   9.927   0.542 -0.1011 -0.0735 -0.1025
18761W        W39041   9.207  15.103  14.547  0.1950 -0.0926  0.1506
18762W        W39042   7.388   6.994   0.535 -0.2543  0.0368  0.0226
18763W        W39043  12.188   1.505   4.745  0.3021  0.0309  0.0953
18764W        W39044   3.593   2.130   0.281 -0.0126  0.2051 -0.0626
18765W        W39045   3.189   0.962  12.955 -0.1823 -0.3043 -0.1487
18766W        W39046  16.734   6.453   4.422  0.0490 -0.1669  0.0308
18767W        W39047   5.797   7.964  14.049 -0.0729 -0.0139 -0.5797
18768W        W39048   8.705  15.122   1.151 -0.1957 -0.1541 -0.0317
18769W        W39049  15.949  13.150   0.746  0.0846 -0.1997 -0.0888
18770W        W39050   4.581   6.921  16.595 -0.2550  0.2448 -0.0153
18771W        W39051   9.593   5.834  13.283 -0.1489  0.0897 -0.1311
18772W        W39052  13.624   3.258  11.449  0.1392 -0.1776 -0.1934
18773W        W39053  10.437   5.248  14.322  0.2293  0.0636 -0.0019
18774W        W39054  14.115   1.320   3.050  0.0399  0.0315 -0.1506
18775W        W39055  14.668  13.059   4.616  0.0722  0.1004 -0.0872
18776W        W39056  11.425   6.957  16.291  0.2955 -0.1094 -0.0317
18777W        W39057   4.761   0.297   0.890 -0.1666  0.0939  0.0765
18778W        W39058  17.679   7.904   1.460 -0.0336  0.1318 -0.2901
18779W        W39059   2.926  12.060   1.422 -0.3407 -0.2031 -0.1858
18780W        W39060   0.260  13.589  12.103 -0.2810 -0.1647  0.1298
18781W        W39061   5.210   9.706   2.300  0.3537  0.1011 -0.2134
18782W        W39062  15.918  12.589   1.499 -0.0975 -0.2921  0.0690
18783W        W39063   6.277   4.272   4.646  0.2249 -0.0672 -0.1377
18784W        W39064   8.575  15.799   1.519 -0.0114  0.0201 -0.0010
18785W        W39065   9.806  12.191   0.665  0.0731  0.0517 -0.1620
18786W        W39066   7.564   5.925  12.160 -0.2516 -0.1090  0.0860
18787W        W39067  13.222   0.344   0.137 -0.0036 -0.2180  0.0217
18788W        W39068   1.060   2.795  12.102 -0.0060 -0.1161 -0.3073
18789W        W39069  12.299  12.332   2.420  0.2026 -0.1931 -0.1775
18790W        W39070   7.723  16.626  14.852 -0.0765 -0.1217  0.1214
18791W        W39071  17.335   2.264  16.065 -0.0309  0.4425  0.0483
18792W        W39072  11.225  11.124  14.750  0.3178  0.1151 -0.0262
18793W        W39073   8.134  14.715   3.523  0.0257  0.0007  0.3323
18794W        W39074   7.270   7.036  13.506  0.0250 -0.2724 -0.1289
18795W        W39075  15.439  14.710   0.999 -0.0203  0.1234  0.0827
18796W        W39076  13.351   7.265  16.606 -0.1573 -0.1082  0.1674
18797W        W39077   2.047  12.081   1.893  0.1468 -0.0235  0.1769
18798W        W39078  15.886   5.737  12.579 -0.0385 -0.0401 -0.1256
18799W        W39079  11.641  11.747  15.795 -0.0753 -0.2085 -0.2405
18800W        W39080   8.213   2.034  12.901 -0.1406  0.1075 -0.0532
18801W        W39081   5.336   7.175  16.072 -0.0514 -0.2260 -0.1112
18802W        W39082   8.923  15.410  15.523  0.0945  0.4656  0.0354
18803W        W39083   0.952   6.648   2.639 -0.0930 -0.2033  0.1533
18804W        W39084  11.095  12.949  16.513 -0.0957  0.1384  0.0105
18805W        W39085   8.865  14.924   3.648  0.0419  0.0423 -0.0619
18806W        W39086  16.240   3.804  14.980 -0.1225  0.0247 -0.0596
18807W        W39087  16.892   3.522  14.291 -0.0645 -0.1119  0.0399
18808W        W39088  14.396  17.372   0.957  0.0513  0.0359  0.0970
18809W        W39089   3.653   5.643   0.731  0.0992 -0.1711 -0.1686
18810W        W39090  10.011   1.048   4.713 -0.1646  0.2589  0.0359
18811W        W39091   9.482  15.681  13.765 -0.1657 -0.2406  0.2941
18812W        W39092  12.726  11.329  12.277 -0.0699  0.0242 -0.3138
18813W        W39093  13.806   8.922  11.963 -0.0341  0.3133 -0.0558
18814W        W39094   6.639  13.616   2.026  0.2026 -0.0657 -0.3002
18815W        W39095   8.525  16.170  13.445  0.1617 -0.1920  0.0106
18816W        W39096   9.658   0.537  13.774 -0.0301  0.4001  0.0698
18817W        W39097   1.488  12.999  15.627 -0.1283  0.0245  0.0883
18818W        W39098   0.262   7.346  16.800 -0.0387  0.3262  0.1379
18819W        W39099  12.350  14.297   4.419  0.2605 -0.0749  0.3495
18820W        W39100   8.863  16.033   2.615 -0.1050 -0.0300  0.3255
18821W        W39101   2.268   1.680  14.723 -0.1283  0.0767  0.0676
18822W        W39102  15.614   8.972  15.176 -0.1057  0.1370 -0.0614
18823W        W39103  11.722   3.954   2.726 -0.0355  0.3860  0.1795
18824W        W39104  16.985  14.424   0.447 -0.1592  0.0340  0.3386
18825W        W39105   5.064   8.263   0.310 -0.2177  0.2745  0.3934
18826W        W39106   9.946   6.249   4.745  0.1230 -0.0276  0.2445
18827W        W39107  16.913  17.454  15.021 -0.1582  0.1362 -0.3458
18828W        W39108   2.949   6.118   4.436  0.3500  0.2874  0.0901
18829W        W39109  13.179  13.755   0.709  0.1084  0.1152 -0.1994
18830W        W39110  10.949   3.026   1.443  0.0244 -0.0510 -0.2096
18831W        W39111   4.859  17.033   4.046 -0.2580 -0.0828 -0.2544
18832W        W39112  16.450   2.459   3.742 -0.1595 -0.2452  0.2196
18833W        W39113  15.374  15.617   3.113  0.0314 -0.0199 -0.0714
18834W        W39114   5.623  17.011  13.485 -0.2780  0.0620  0.1397
18835W        W39115  11.694   8.352  15.702 -0.5170 -0.2369 -0.0882
18836W        W39116  13.984  13.685   4.165  0.1161  0.0862  0.3201
18837W        W39117  11.990  13.566   2.167 -0.2919  0.1390 -0.1216
18838W        W39118   1.771   8.013  12.112  0.0290 -0.0919 -0.0971
18839W        W39119  10.074   0.556  12.399  0.2075  0.1310 -0.1007
18840W        W39120  15.343   0.305  13.776  0.3533  0.0451  0.2454
18841W        W39121  11.873   3.863   1.686  0.0127 -0.1577 -0.2412
18842W        W39122  15.191   3.362   0.184 -0.0480 -0.2608 -0.1656
18843W        W39123   5.052  10.496   5.023 -0.3745  0.0314  0.3111
18844W        W39124   2.885   6.659  15.734  0.0808  0.0046 -0.3271
18845W        W39125   3.107  15.318   2.865 -0.2881 -0.2881  0.4006
18846W        W39126   5.927   4.312  15.444 -0.1061  0.2635 -0.2157
18847W        W39127   7.175   6.809  14.724 -0.1626 -0.0738 -0.3104
18848W        W39128  12.153   9.841  12.053  0.0760  0.1598  0.5015
18849W        W39129   3.872  12.211   2.269 -0.0982  0.1284 -0.2811
18850W        W39130   8.140   1.352  16.055 -0.2226 -0.0644 -0.0458
18851W        W39131  16.422   4.875   2.078 -0.1479  0.0557  0.0625
18852W        W39132  15.772   3.661  14.070 -0.3373 -0.1853 -0.1135
18853W        W39133  15.718   0.006  13.405 -0.1605 -0.0374 -0.0833
18854W        W39134  10.890   1.801  14.237 -0.1267  0.2162  0.4293
18855W        W39135  15.182  15.369   0.426  0.0061  0.0298  0.0305
18856W        W39136  17.116   1.033  13.220  0.1433 -0.0988  0.2144
18857W        W39137   3.257   5.650   1.047  0.2904  0.1470  0.0407
18858W        W39138  16.596   3.438  15.006  0.1248 -0.1272  0.3667
18859W        W39139  13.586  14.010  15.927 -0.1334  0.0792 -0.1069
18860W        W39140   7.605  12.297  13.880 -0.0332 -0.0854 -0.1958
18861W        W39141   3.743  13.270   4.152 -0.0470  0.1473 -0.0868
18862W        W39142  17.229  10.132  12.900 -0.3039 -0.1637 -0.0428
18863W        W39143   5.808   3.196  14.098 -0.1030  0.3276  0.2211
18864W        W39144   1.365  14.262  15.263  0.1500 -0.0796 -0.0227
18865W        W39145   5.580   8.681  12.926  0.1754 -0.1294  0.1106
18866W        W39146  14.673  15.474   0.551  0.1323 -0.3103 -0.2153
18867W        W39147  15.039  12.630   0.895 -0.0004  0.2849 -0.1798
18868W        W39148  15.722  15.193  13.717  0.0294 -0.1697 -0.3229
18869W        W39149   0.607   6.070   3.283 -0.0429 -0.3533  0.1550
18870W        W39150   2.129  12.474  13.418 -0.0222 -0.0545 -0.0157
18871W        W39151   6.313   3.349  16.026 -0.0074 -0.1021  0.0790
18872W        W39152  17.446   9.498   1.304 -0.0219  0.2495  0.0976
18873W        W39153  13.736   5.033  14.942 -0.3760 -0.1104 -0.1666
18874W        W39154  17.689  13.316  15.280  0.1095  0.0963 -0.0209
18875W        W39155  15.218  14.651   4.374  0.0217  0.3932  0.0082
18876W        W39156   8.175  16.453  16.849 -0.0336  0.2342 -0.0840
18877W        W39157  16.180   3.833  15.955 -0.3353 -0.0006 -0.0921
18878W        W39158  10.794  14.675   0.369 -0.1373 -0.1077  0.0298
18879W        W39159   1.243  12.563   3.145 -0.1054 -0.2080 -0.0418
18880W        W39160   9.268  13.273  12.704 -0.1518 -0.1295  0.1459
18881W        W39161   0.231  15.822  16.076 -0.1057  0.2269 -0.1259
18882W        W39162  14.831   5.922  14.980 -0.2401  0.3587  0.0994
18883W        W39163  15.033  10.447  16.012 -0.1031 -0.1338  0.1807
18884W        W39164   4.007  12.545  16.352 -0.0859 -0.1945  0.2117
18885W        W39165   3.924  10.577   1.641  0.0369 -0.2771 -0.2486
18886W        W39166   1.923  10.710  13.154 -0.1459 -0.0851 -0.0310
18887W        W39167   2.530  16.228  14.787  0.0004 -0.1269  0.1045
18888W        W39168  16.693  14.984   1.650  0.0176  0.2092  0.1102
18889W        W39169  14.348   3.296  12.601 -0.2894  0.0781  0.0530
18890W        W39170   6.842  16.861  13.977 -0.0266  0.0869 -0.0308
18891W        W39171   8.645  17.271  13.549  0.0980  0.0852  0.2553
18892W        W39172   1.969   1.043   2.042 -0.1440  0.0778 -0.0219
18893W        W39173  13.994  10.062   2.432  0.0564  0.2337  0.0021
18894W        W39174   7.336   8.390   4.503  0.1094  0.0704 -0.1031
18895W        W39175   2.297   2.401   2.508 -0.1505 -0.0985 -0.0589
18896W        W39176  16.917   3.584  12.332  0.0874 -0.1470  0.0466
18897W        W39177   5.094   5.857  13.571 -0.1338  0.2248 -0.1400
18898W        W39178   9.055  16.504   0.587 -0.0787  0.0927 -0.1493
18899W        W39179  13.823  13.217   4.474 -0.2330 -0.4510 -0.0428
18900W        W39180  13.849   7.277   2.507  0.3959 -0.2159 -0.0239
18901W        W39181   6.050  17.513   2.580  0.1516  0.0484  0.0131
18902W        W39182  13.468  14.363   5.277 -0.1620  0.1946  0.0208
18903W        W39183   4.461  17.202  15.404  0.0622 -0.0282  0.0470
18904W        W39184  17.696   0.859   1.457  0.1517 -0.0704 -0.2227
18905W        W39185  11.744  17.698   1.863  0.2767  0.1097  0.2069
18906W        W39186  17.457  11.829   4.327  0.0458 -0.3993 -0.0705
18907W        W39187  14.584   3.975  14.433  0.2637 -0.4074  0.1671
18908W        W39188   9.209  11.308   0.156 -0.1215 -0.1457 -0.2216
18909W        W39189   4.125  14.055  13.714 -0.0362 -0.1560  0.4479
18910W        W39190   9.126  16.631   4.808 -0.0103  0.0652 -0.1555
18911W        W39191  15.648   1.366  15.094  0.1820 -0.2081  0.1188
18912W        W39192   1.553   8.863  12.472  0.1290 -0.1207  0.2598
18913W        W39193   3.496  11.340  12.262 -0.2732 -0.1660  0.0387
18914W        W39194   1.520   5.100  14.104 -0.0698 -0.1831  0.1971
18915W        W39195   3.974   6.457   0.928  0.4350 -0.1410  0.0411
18916W        W39196  14.655   8.073   1.775  0.0982 -0.0578  0.1268
18917W        W39197   1.106  11.952   1.773 -0.1688  0.0547  0.1262
18918W        W39198   6.736  16.248  14.543 -0.0290 -0.1261  0.2781
18919W        W39199   7.818  13.675  15.178  0.1587  0.2415  0.2257
18920W        W39200   6.326   1.255   3.406  0.1217  0.0313  0.1126
18921W        W39201   7.696  12.749  16.302  0.2254  0.1188  0.1183
18922W        W39202  15.920  15.597  12.339  0.1157  0.0049  0.1772
18923W        W39203   9.657   6.956   1.367 -0.0369 -0.1113 -0.2425
18924W        W39204   1.581   6.805   0.283 -0.1913 -0.0824 -0.1503
18925W        W39205   4.817  13.493  14.658  0.1424  0.0076  0.0580
18926W        W39206  16.801   7.659  16.515  0.0270 -0.2846 -0.2446
18927W        W39207  17.722  16.052   3.663 -0.1145 -0.1222  0.2585
18928W        W39208  12.631   2.997  15.618 -0.0986 -0.0938  0.1225
18929W        W39209   4.368  17.131   2.855 -0.1467  0.1615 -0.1103
18930W        W39210   6.492   4.827   2.518  0.1626  0.2322 -0.1259
18931W        W39211   5.850  13.679   4.412 -0.2186 -0.0497  0.1244
18932W        W39212   3.877   0.244  15.231 -0.2061 -0.2091 -0.0203
18933W        W39213   3.822  10.011  15.675  0.0144  0.0678 -0.2387
18934W        W39214   2.670  12.420  13.437 -0.0976  0.0884 -0.0935
18935W        W39215   5.183   7.154  13.969 -0.0883  0.2977 -0.0530
18936W        W39216   8.654  16.789   0.658  0.1619  0.0631 -0.1933
18937W        W39217   4.771  14.205  16.847  0.2852  0.2768 -0.1093
18938W        W39218  15.187   1.594   1.575  0.2376 -0.1243  0.0965
18939W        W39219   8.956  12.628   3.793 -0.0754 -0.1583 -0.1807
18940W        W39220   9.134   2.803   2.392 -0.1426 -0.2288  0.0147
18941W        W39221   6.899  11.120   2.084  0.1589  0.4030 -0.2409
18942W        W39222   5.906   7.388  15.449  0.0288  0.0995  0.3766
18943W        W39223   3.654   4.411   0.279  0.0202 -0.1092 -0.0326
18944W        W39224   2.168  16.380  13.846  0.0834  0.1101  0.1609
18945W        W39225   8.178   1.046   0.049 -0.1428 -0.1234 -0.0005
18946W        W39226  17.719  14.199   0.146  0.0469 -0.1252 -0.1747
18947W        W39227  15.704  17.501  12.995 -0.0221  0.1791  0.0894
18948W        W39228  16.614   4.394  12.754 -0.0469  0.2144 -0.3711
18949W        W39229   2.146  13.668   4.500  0.1248  0.0509  0.1689
18950W        W39230   7.069   6.644  15.743 -0.2074  0.0799  0.2316
18951W        W39231   6.687   6.256   0.277  0.1320  0.1064  0.1749
18952W        W39232   3.760  10.984  15.584  0.1156 -0.0979  0.1539
18953W        W39233   0.867  15.542   0.251 -0.0090  0.1468 -0.0338
18954W        W39234   1.303   0.981  16.422  0.1180 -0.0231 -0.0246
18955W        W39235  13.263   5.143   1.276 -0.1067 -0.0693  0.2128
18956W        W39236  14.952  11.237  15.312  0.0347 -0.0393 -0.0841
18957W        W39237   7.450   4.574  16.733  0.0545  0.0439 -0.0690
18958W        W39238   8.051   2.442   2.888  0.1928  0.0174  0.1944
18959W        W39239   8.734   8.697  13.557  0.1508  0.0059  0.1934
18960W        W39240  12.925  15.852  14.845  0.1279  0.1293 -0.3165
18961W        W39241   3.708   6.461  14.834  0.0254 -0.0329 -0.3211
18962W        W39242   5.511  13.563   2.157  0.0306  0.2606  0.0053
18963W        W39243   4.248   5.979   0.175  0.1506  0.2823  0.0139
18964W        W39244  13.896   1.177  14.378  0.3089 -0.2161  0.0025
18965W        W39245  10.049   7.088   0.877  0.0645  0.0933 -0.0729
18966W        W39246   2.588  15.890  15.716  0.0602  0.1268 -0.0417
18967W        W39247   5.076  17.259  12.961  0.0519  0.0331 -0.0683
18968W        W39248   2.201   6.438   4.210  0.0496 -0.2404 -0.2663
18969W        W39249  10.710  15.785  14.066 -0.0240 -0.1498  0.2327
18970W        W39250  14.833   8.217   3.907  0.3516 -0.3513 -0.0289
18971W        W39251   7.331   4.803  16.207 -0.0153  0.0074 -0.0852
18972W        W39252   9.266   9.542  15.826  0.4232 -0.0225  0.0937
18973W        W39253   5.381   7.955   0.975 -0.0219 -0.3167  0.0218
18974W        W39254   5.552  14.373   1.849  0.1893 -0.1966  0.1387
18975W        W39255   2.086  10.449  14.605 -0.1500 -0.0081  0.2141
18976W        W39256   7.216  16.441   0.812 -0.0574  0.0262 -0.0664
18977W        W39257   5.761  15.825  16.058  0.1944 -0.2109  0.1616
18978W        W39258  16.480   1.406   3.578 -0.0728  0.1104 -0.0729
18979W        W39259   4.976  13.729   1.311 -0.0956  0.1770 -0.1584
18980W        W39260  17.086   8.616  13.682 -0.0125 -0.0936  0.0338
18981W        W39261  16.631  11.552   1.366  0.2299 -0.1127 -0.1761
18982W        W39262  10.052   3.931  16.244  0.2086 -0.1457  0.1121
18983W        W39263  17.684  10.827   0.115 -0.0580  0.1404 -0.0576
18984W        W39264   9.184  16.935   3.663 -0.1148  0.0132  0.1000
18985W        W39265  12.443   4.403   5.189  0.0542  0.3877 -0.2943
18986W        W39266  10.749   7.471   4.238  0.2478 -0.1864  0.0615
18987W        W39267  14.478   9.429  13.483  0.1955 -0.2138  0.0116
18988W        W39268   0.667   2.482   4.277 -0.0907 -0.1046 -0.2673
18989W        W39269   4.897   9.870   3.084  0.4721  0.1436 -0.0220
18990W        W39270   5.179   4.869  16.297  0.0471  0.0739  0.1225
18991W        W39271  14.548  16.288   1.993 -0.2409 -0.1426 -0.3309
18992W        W39272   6.848   0.828  12.921  0.0930  0.1739  0.1987
18993W        W39273  14.084  13.631  16.609 -0.1773  0.2217 -0.1003
18994W        W39274   2.924   8.468   2.068  0.1906  0.0868  0.0129
18995W        W39275  14.058  14.062  13.894 -0.1717 -0.1407  0.0599
18996W        W39276   7.482   4.362  13.916  0.0046 -0.1624  0.0418
18997W        W39277   8.358  17.206   4.015  0.0441 -0.0592 -0.2756
18998W        W39278   1.511   2.286  14.511  0.0203 -0.1008 -0.0098
18999W        W39279  13.378   5.778   5.248 -0.2781  0.1044 -0.0354
19000W        W39280   8.936  14.627   1.759  0.0024 -0.0946 -0.2060
19001W        W39281   6.063   5.210  15.391  0.2161  0.0863 -0.1813
19002W        W39282  11.270   4.076  11.787 -0.0852  0.0821 -0.2590
19003W        W39283  12.254   5.456   1.824  0.2379 -0.0533 -0.0449
19004W        W39284   6.108  12.164   3.135 -0.1367 -0.2095 -0.1149
19005W        W39285   2.708   2.729   2.232 -0.2474  0.2971 -0.0866
19006W        W39286   6.189  11.802   4.375  0.0783  0.0688  0.3534
19007W        W39287  10.096  13.601   0.093  0.0551 -0.1378  0.3576
19008W        W39288   6.576   3.719   0.686 -0.0505 -0.0840  0.1526
19009W        W39289   0.427  13.455   4.940  0.2534 -0.0296 -0.0480
19010W        W39290   6.696   8.449   0.923  0.0931  0.2211 -0.0568
19011W        W39291   4.997   4.954  14.083  0.3176  0.3908  0.0468
19012W        W39292   5.857  13.371   2.567 -0.0228  0.1890  0.0677
19013W        W39293   0.644  16.854   1.912 -0.2018 -0.1144 -0.3558
19014W        W39294  16.721   6.582  13.899 -0.1098  0.5127 -0.0578
19015W        W39295  16.018   1.252   3.650  0.0186  0.1638 -0.1018
19016W        W39296  11.456  16.298  16.443  0.3593 -0.1793 -0.1945
19017W        W39297   8.624   9.917  16.525 -0.0611  0.0535  0.1797
19018W        W39298  11.263  13.958   0.793  0.0354  0.0697  0.4143
19019W        W39299  10.930   7.606   3.081  0.0600  0.0126 -0.3100
19020W        W39300  15.680  13.612   4.418 -0.0413  0.1125  0.1277
19021W        W39301   5.951   2.521   3.447 -0.0010  0.3138  0.1825
19022W        W39302  10.130  10.167   3.899 -0.4670 -0.0294  0.0536
19023W        W39303   8.015   4.441  14.245  0.1193 -0.3183  0.2195
19024W        W39304   1.319  12.686   3.736  0.0193  0.1201  0.1267
19025W        W39305   2.061  15.149  12.643 -0.1448 -0.0448 -0.0798
19026W        W39306   9.808   9.442   0.679  0.2896  0.0257 -0.0942
19027W        W39307   7.884  13.592   3.531 -0.3921  0.1518 -0.0279
19028W        W39308  12.156  15.972   1.519  0.0561  0.1013 -0.0227
19029W        W39309   1.201   2.649  13.154 -0.1515 -0.0287  0.0119
19030W        W39310   7.846  11.214  11.864 -0.0134 -0.1090  0.1104
19031W        W39311   1.676   2.889  12.621  0.2277  0.0572 -0.0919
19032W        W39312   2.080   2.516   5.107 -0.1275 -0.3023  0.1850
19033W        W39313   9.655   2.866   1.599  0.1317  0.3247 -0.0731
19034W        W39314  12.543   3.732  15.144  0.0374  0.0872 -0.2355
19035W        W39315  13.741   2.905  13.165 -0.1055  0.0886 -0.0659
19036W        W39316  15.546  13.001   0.293  0.0957  0.1360  0.2629
19037W        W39317   5.310   3.471   1.465 -0.2912 -0.0274  0.0300
19038W        W39318   9.299  15.013   5.999  0.0755  0.0395 -0.2819
19039W        W39319  16.871  14.147  11.998  0.4343 -0.3245  0.2830
19040W        W39320   4.709  13.606   2.932  0.0269  0.3111  0.1402
19041W        W39321  11.676  10.410   3.927  0.0888  0.1137 -0.0564
19042W        W39322   4.825   8.593   1.266 -0.4853 -0.0995 -0.1407
19043W        W39323   4.365  15.579  14.525 -0.1786 -0.0845  0.2704
19044W        W39324   4.838   3.159   2.999 -0.0516 -0.1866 -0.1375
19045W        W39325  14.272  15.056   2.723 -0.0918  0.0849 -0.2481
19046W        W39326  12.069   3.982  12.989 -0.1202  0.1519  0.0701
19047W        W39327   4.483   8.834   1.545  0.0944  0.1345 -0.1641
19048W        W39328   8.585   7.125  12.919 -0.0914  0.0212 -0.0867
19049W        W39329  14.578   4.874   3.558 -0.1437  0.1294 -0.2526
19050W        W39330   6.617   5.937  15.632 -0.4148  0.0000 -0.1365
19051W        W39331   4.241  12.540   0.266  0.0152  0.0963 -0.2857
19052W        W39332  10.868   9.513   1.727 -0.3177  0.1693 -0.1821
19053W        W39333   7.535  11.667   0.608 -0.1169  0.1117  0.1938
19054W        W39334  10.263  14.636   1.093  0.0202 -0.0845  0.1379
19055W        W39335  10.844   9.236  15.137 -0.0287  0.1618  0.3101
19056W        W39336   7.816  17.495  12.075 -0.0739  0.3125  0.0584
19057W        W39337   0.611  12.194  15.974  0.0756  0.1183 -0.1759
19058W        W39338  12.333  14.757   4.795  0.1804  0.1806 -0.1549
19059W        W39339  12.959   9.284   2.594 -0.3193  0.0021 -0.0875
19060W        W39340  10.198   3.690   3.326  0.1324 -0.0237 -0.0217
19061W        W39341   3.623  12.788   2.326 -0.0288 -0.1506  0.1686
19062W        W39342   4.336  15.546  12.293  0.0369 -0.0085  0.0533
19063W        W39343  15.997  13.360   2.696  0.3767 -0.0117 -0.0599
19064W        W39344   6.629   0.455  13.720  0.1233 -0.1750 -0.1243
19065W        W39345   5.666  13.068   1.272 -0.2351 -0.3092 -0.0354
19066W        W39346   3.149   7.767   4.462  0.0248  0.1022 -0.3204
19067W        W39347  14.432   2.876  14.790 -0.1330  0.0938  0.2387
19068W        W39348  10.155  17.255   1.686 -0.1637  0.5875  0.1009
19069W        W39349  15.369  10.052   2.505 -0.3426 -0.0076 -0.1481
19070W        W39350  12.204   6.526  14.594 -0.1563 -0.2315  0.2491
19071W        W39351  13.127  11.222   3.835 -0.1556  0.2957 -0.2489
19072W        W39352   2.914   2.707  13.053 -0.1257 -0.0915 -0.3523
19073W        W39353  15.066   4.733  13.782 -0.2610 -0.4270 -0.1444
19074W        W39354   5.885   7.569  11.955  0.2054  0.0143 -0.2385
19075W        W39355  16.899   7.987   5.157 -0.1740 -0.1850  0.0250
19076W        W39356  17.068   8.876  12.544  0.3675 -0.0581 -0.0759
19077W        W39357   2.308   2.173   4.741  0.1836  0.3051 -0.1172
19078W        W39358  11.238   5.673   2.777 -0.1340 -0.2165  0.3233
19079W        W39359  15.686   4.314  15.526  0.3048  0.1450  0.0188
19080W        W39360  11.503  16.744   1.681 -0.1429  0.2212  0.0490
19081W        W39361   1.002   3.711   3.737 -0.0382  0.2302  0.4374
19082W        W39362  17.518   5.401   4.394  0.0736 -0.0236  0.1062
19083W        W39363   9.199   9.624   1.410  0.1282 -0.1693  0.1572
19084W        W39364  17.029   0.085   0.628  0.2424 -0.1330 -0.0235
19085W        W39365   3.758   9.024  16.133  0.0887  0.0655 -0.0505
19086W        W39366  15.419  10.129   4.840 -0.3514  0.1532 -0.1192
19087W        W39367  16.061   4.743   3.003  0.2255 -0.0651 -0.0879
19088W        W39368  16.894   9.842   1.653 -0.1322 -0.3316 -0.2956
19089W        W39369  14.230   9.029   0.251 -0.0398 -0.0219 -0.1057
19090W        W39370   9.959   0.991  16.780  0.2012 -0.1517  0.2362
19091W        W39371   8.325   6.242  15.436 -0.2246  0.1636 -0.0147
19092W        W39372  16.607  13.300   2.526 -0.0510  0.0952  0.0953
19093W        W39373   8.970  12.064   1.493  0.0494  0.0492 -0.1053
19094W        W39374   5.170  12.131   0.243  0.0396  0.1719 -0.0106
19095W        W39375   6.706   2.062  15.244 -0.4554 -0.3709 -0.0543
19096W        W39376  16.011  15.638   1.652 -0.1599 -0.1253  0.1205
19097W        W39377   0.963  11.756  15.365 -0.0674 -0.0081  0.1152
19098W        W39378  17.318   8.317   2.114 -0.2218  0.1774 -0.1270
19099W        W39379  14.470   5.899  15.378  0.3045 -0.0472  0.2268
19100W        W39380  13.217   9.863  13.689  0.0054 -0.3630 -0.2029
19101W        W39381  13.443  15.409   0.015 -0.1370  0.0270  0.0743
19102W        W39382   8.205  13.751  14.831 -0.0335  0.0850 -0.0975
19103W        W39383   3.936   0.531   1.914  0.0616 -0.1694  0.0370
19104W        W39384   6.803   0.665   1.292 -0.1017 -0.0871  0.1161
19105W        W39385   0.370  15.471  12.737  0.1191  0.1143 -0.2115
19106W        W39386   0.445   1.812   1.570 -0.1408  0.0443  0.0050
19107W        W39387   3.713  10.286   2.955 -0.1031 -0.0690  0.0041
19108W        W39388   7.022   8.458  13.603 -0.1094  0.3370 -0.0153
19109W        W39389  16.597   5.255   3.021  0.0116 -0.2108  0.0454
19110W        W39390   1.506   9.937   0.280 -0.0184 -0.1964 -0.2180
19111W        W39391  15.715   2.409   1.093 -0.0807  0.1233  0.3308
19112W        W39392  11.515   9.285   2.794  0.1093 -0.2510 -0.1267
19113W        W39393   3.970   7.417  16.078 -0.0004  0.0176 -0.1291
19114W        W39394  16.374   5.744   4.293 -0.1264 -0.1162  0.0561
19115W        W39395  12.194   5.651   0.653  0.0216  0.0304  0.1186
19116W        W39396  12.834  17.678  15.155 -0.1918 -0.0813  0.1398
19117W        W39397   4.631  14.172   3.688  0.2447 -0.2020 -0.1697
19118W        W39398  11.322   6.943  14.989  0.0013 -0.2055 -0.1764
19119W        W39399  13.306  17.011  14.510 -0.1533 -0.1224 -0.0197
19120W        W39400   3.064   8.257  12.770  0.0653  0.3658 -0.0990
19121W        W39401   2.055   9.116   0.573 -0.0241  0.0725 -0.4057
19122W        W39402   8.589  17.284  16.816  0.1014  0.1520 -0.1697
19123W        W39403   2.333  12.233  12.641 -0.1430 -0.0132  0.0518
19124W        W39404   2.550   7.116  12.801 -0.1928  0.1542 -0.0812
19125W        W39405   9.900   6.624  12.593  0.0273 -0.2622 -0.0977
19126W        W39406  16.074  16.460  14.899 -0.0030  0.1300  0.1583
19127W        W39407   4.252  11.319  13.937  0.0740  0.0331 -0.1604
19128W        W39408  16.379   4.796  13.507 -0.0066  0.0811  0.1259
19129W        W39409   8.831  14.377  15.496 -0.1872  0.0781 -0.1304
19130W        W39410  12.661  15.463  13.266 -0.5418 -0.0346 -0.2811
19131W        W39411   5.869   5.354   4.330  0.0803 -0.1014  0.2282
19132W        W39412   9.049  17.697  16.817 -0.1812 -0.0356  0.1212
19133W        W39413  13.161   9.115   3.417 -0.0321  0.2880 -0.0191
19134W        W39414   3.588   4.564   2.047  0.0293  0.1558  0.0186
19135W        W39415  17.178   2.943  13.487 -0.0298 -0.2028  0.0208
19136W        W39416   9.718   8.217  14.848 -0.1653 -0.2789  0.2619
19137W        W39417  10.176   7.403  12.410 -0.0435 -0.2292 -0.1217
19138W        W39418  16.272   9.366   4.087  0.2475 -0.1070 -0.1148
19139W        W39419   5.905   8.056  14.946  0.0994  0.1603 -0.1418
19140W        W39420   6.876  14.256   3.070 -0.0057 -0.2750 -0.2225
19141W        W39421  14.860  10.859   4.125 -0.2755 -0.2625  0.1629
19142W        W39422   7.806   4.892   1.332  0.5372 -0.0807  0.1088
19143W        W39423  15.155  13.819  13.010  0.0313  0.0964  0.0560
19144W        W39424   2.885   0.990   3.162  0.0778 -0.2855  0.0192
19145W        W39425   8.278   5.954  13.175 -0.1282  0.2158 -0.0320
19146W        W39426   8.760   2.664   3.026 -0.0598 -0.0154  0.2401
19147W        W39427   1.604  13.202  16.414  0.0540 -0.2743 -0.1499
19148W        W39428   9.283  15.997  14.052  0.0284 -0.1106  0.1835
19149W        W39429   3.083   7.740   3.516 -0.0105 -0.4220 -0.0361
19150W        W39430   1.749  12.446   0.692 -0.2171  0.1891 -0.3204
19151W        W39431   6.418   7.955  12.474 -0.2120  0.0871  0.2718
19152W        W39432   2.686   7.552  12.918 -0.1384 -0.1840 -0.0065
19153W        W39433   7.187   0.394   1.091  0.0614  0.2461  0.0207
19154W        W39434  15.727   0.667  16.157 -0.0929 -0.1143 -0.0507
19155W        W39435   1.763   1.197   3.832 -0.2121  0.3107 -0.1711
19156W        W39436   0.956   3.647  16.210 -0.0492 -0.1915  0.2252
19157W        W39437   0.511   0.140   1.454 -0.1104  0.0297  0.2893
19158W        W39438  13.630  12.187   1.201  0.1395  0.0888 -0.1605
19159W        W39439   1.776   4.571  16.521  0.1988  0.1588  0.0850
19160W        W39440   0.000   1.455   2.074 -0.1555 -0.2091 -0.3203
19161W        W39441   3.583  12.029  13.456  0.1924  0.0322  0.0463
19162W        W39442   0.481   6.653   2.571  0.2326  0.2003  0.2075
19163W        W39443   4.980   9.280   4.056  0.2402  0.2219  0.2984
19164W        W39444  16.090  10.338   1.294  0.1800 -0.1550 -0.0886
19165W        W39445   6.488  12.788  15.175 -0.1201 -0.2160  0.2775
19166W        W39446   4.905  15.849  12.816  0.1392  0.2771 -0.0839
19167W        W39447   1.461  17.106  13.073  0.0696 -0.0488 -0.3514
19168W        W39448   6.955  14.283   4.877 -0.1561  0.0311 -0.0251
19169W        W39449  13.382   9.127   2.366 -0.1010  0.1177 -0.2841
19170W        W39450  13.534  15.712   1.985 -0.0863 -0.3153 -0.0548
19171W        W39451   2.493   7.311   1.642  0.1024  0.1207  0.0597
19172W        W39452   7.964   7.879  11.988  0.0934  0.0857 -0.1169
19173W        W39453  13.035  15.807   1.121  0.0113  0.1124  0.0733
19174W        W39454   9.325  16.500  14.128  0.2186 -0.0147 -0.0304
19175W        W39455  10.104  14.064   0.214 -0.0436  0.0889 -0.0242
19176W        W39456   8.303   9.022  12.668  0.0449 -0.0913  0.0613
19177W        W39457   0.636  15.949  11.913  0.1900  0.0358 -0.3979
19178W        W39458  12.428  12.859  16.047 -0.0795  0.1285  0.0107
19179W        W39459   2.710   1.532  12.096  0.2461 -0.0959 -0.1862
19180W        W39460  12.067  17.392  13.931  0.1225 -0.0219  0.1026
19181W        W39461  13.363   7.808   4.700  0.0791 -0.0579 -0.0491
19182W        W39462  11.889   5.792  12.628 -0.2680 -0.0535 -0.2131
19183W        W39463  10.777  17.676   2.763 -0.0831 -0.3172  0.0774
19184W        W39464   2.360  17.501  16.528 -0.0229  0.0581 -0.1378
19185W        W39465   8.701  15.598   4.561  0.3473 -0.1115  0.2393
19186W        W39466  10.946  12.272  16.038 -0.0292 -0.1898  0.1435
19187W        W39467  15.883  15.534   3.105  0.0492  0.1848 -0.0271
19188W        W39468   8.685  15.046   2.558  0.0054 -0.0459 -0.2771
19189W        W39469   0.268   6.857  13.033 -0.0345 -0.0432 -0.0587
19190W        W39470   1.294   5.984  13.776  0.0364  0.2011  0.0841
19191W        W39471   6.921   5.437  12.432 -0.4275  0.1903 -0.0840
19192W        W39472  12.407  17.042   4.142 -0.1506 -0.4953  0.1639
19193W        W39473  10.197   9.829  14.566  0.1389 -0.1482 -0.0705
19194W        W39474   0.768   2.882  15.518  0.2565  0.0437 -0.0798
19195W        W39475   1.603  11.686  14.531 -0.1679  0.0316 -0.0025
19196W        W39476  15.335  13.550  13.894  0.0385  0.2620 -0.1327
19197W        W39477   7.045   4.469   0.988 -0.0182 -0.1367  0.2152
19198W        W39478  12.723   4.020   3.437 -0.2666 -0.0313 -0.0760
19199W        W39479  13.913   2.521   2.156 -0.0034 -0.1262  0.2246
19200W        W39480  15.598  17.231  16.544 -0.2290 -0.0466  0.1155
19201W        W39481  15.570   7.592  16.799 -0.4184 -0.2457 -0.2367
19202W        W39482   3.575  16.285   4.820  0.1519 -0.0025  0.0270
19203W        W39483  10.107   2.989   0.034 -0.0993  0.1089  0.1976
19204W        W39484  15.448   9.071  12.759  0.0817 -0.1228  0.1314
19205W        W39485   5.621  17.069   0.397 -0.0986  0.2641 -0.0572
19206W        W39486   9.330   7.515  14.810 -0.0565  0.2140 -0.0257
19207W        W39487  16.139  17.057  12.495  0.1510 -0.0957 -0.1424
19208W        W39488   1.726   7.513   1.346 -0.0194  0.0236  0.1557
19209W        W39489  11.051  16.187   1.192 -0.0754 -0.0049  0.1888
19210W        W39490   4.793   0.580  12.019  0.1803  0.1063  0.1027
19211W        W39491   8.645   7.088  15.373  0.1620 -0.2900  0.1341
19212W        W39492   0.578  16.672   2.544  0.0323 -0.0643 -0.2696
19213W        W39493   1.481   6.074   3.088  0.0125  0.0979 -0.2385
19214W        W39494   9.624   6.776  15.249  0.0748  0.1324  0.4408
19215W        W39495  15.848   6.592  15.295  0.0626 -0.1940  0.2732
19216W        W39496  13.504  14.039  14.736 -0.2683 -0.0262 -0.2016
19217W        W39497  12.452   6.823  16.790 -0.1746 -0.1258  0.0491
19218W        W39498   2.170   8.443  16.705 -0.0410  0.0508  0.1378
19219W        W39499   8.449   6.361   2.036  0.2467  0.0953  0.2121
19220W        W39500  13.445   9.734  16.614  0.0452 -0.4086 -0.5421
19221W        W39501   7.530   7.560   1.496 -0.0801  0.1134 -0.2149
19222W        W39502  10.435   5.625  12.152  0.2133 -0.2820  0.0556
19223W        W39503  10.367  14.710   4.160 -0.2551  0.1209 -0.0344
19224W        W39504   6.122  11.108  12.753 -0.2126 -0.1132 -0.1859
19225W        W39505  12.793  15.281  15.490  0.2449  0.0303  0.1929
19226W        W39506   8.629  15.839  15.554 -0.0031  0.1249  0.0007
19227W        W39507   1.567  15.314  13.661 -0.0664  0.0962  0.2289
19228W        W39508   6.271   8.810   1.125 -0.4213 -0.0526 -0.0675
19229W        W39509   5.094  17.420  16.210 -0.0831  0.1962 -0.1921
19230W        W39510   0.903  12.746   2.808  0.3193 -0.2057  0.1639
19231W        W39511   5.759   8.713  12.486  0.3419  0.0713 -0.0353
19232W        W39512   9.037   7.834  15.705  0.0153 -0.0900 -0.1040
19233W        W39513  10.440   2.002  10.938 -0.1493 -0.2255 -0.0029
19234W        W39514   9.457  14.071  13.499 -0.1616  0.2530 -0.0458
19235W        W39515   1.085   3.141   4.134 -0.0274  0.0485 -0.0996
19236W        W39516   2.285   1.239   2.573 -0.0070 -0.0470  0.0208
19237W        W39517  12.320   6.415   0.137 -0.1910  0.1192  0.2323
19238W        W39518  17.471  15.135  15.603  0.2064  0.0941 -0.2747
19239W        W39519   1.094  15.829  12.080 -0.4424 -0.3246 -0.1196
19240W        W39520  15.907   9.516   5.799  0.3271 -0.2517  0.0280
19241W        W39521   6.064  12.306   0.162 -0.0453  0.0763  0.2020
19242W        W39522  12.049   3.251   2.251  0.2575 -0.3008  0.0759
19243W        W39523  14.731  16.016  13.226  0.0895  0.2341 -0.0455
19244W        W39524   3.770   7.428   2.982  0.0378  0.1896 -0.1219
19245W        W39525  14.096   4.993  15.784  0.0978  0.1863 -0.1261
19246W        W39526   1.829   8.595   0.630  0.0823 -0.2024 -0.1265
19247W        W39527  16.680  13.923  16.109 -0.1430  0.1172  0.1076
19248W        W39528   9.850  14.353  12.160 -0.0822  0.1677  0.1715
19249W        W39529   2.353  15.479  15.638  0.0387  0.0251  0.1233
19250W        W39530   2.845   4.159  12.640 -0.0448 -0.1600 -0.2271
19251W        W39531   6.819  14.905   3.052 -0.3411  0.3134 -0.0572
19252W        W39532  15.513  11.189   4.263 -0.1489  0.0967  0.1030
19253W        W39533  13.736  16.523  16.581  0.0550 -0.2066 -0.4345
19254W        W39534  10.215  10.316  14.712  0.2609 -0.1561 -0.0937
19255W        W39535  17.285   0.968   0.541  0.0578 -0.0111  0.2783
19256W        W39536  17.161   0.533   0.279 -0.0524  0.1445  0.1001
19257W        W39537   1.527  14.847  13.516 -0.1150  0.1214 -0.0121
19258W        W39538  12.377  13.927  12.700  0.1586 -0.0922  0.1092
19259W        W39539   7.071   7.280   1.500  0.0745 -0.1997  0.0827
19260W        W39540   4.520   3.414  13.611 -0.0004  0.0122  0.1632
19261W        W39541  12.241   2.343   0.825  0.1499  0.1701  0.1032
19262W        W39542  15.513   2.201   0.680  0.0167 -0.0438 -0.1050
19263W        W39543   4.109  16.794  12.807 -0.0332 -0.0935  0.1032
19264W        W39544   9.594  11.158  13.468  0.0189  0.2486  0.1410
19265W        W39545   7.266  16.880   0.099 -0.1462  0.1236  0.1580
19266W        W39546  14.612  16.269  13.661 -0.0096  0.1293 -0.0276
19267W        W39547  10.161  13.705   3.897  0.0591  0.0970 -0.5040
19268W        W39548  14.864  15.649   1.159  0.4331 -0.1836  0.2069
19269W        W39549   1.688  14.718   2.502 -0.1845  0.2784 -0.1678
19270W        W39550  11.253  14.228   3.127 -0.0003 -0.0569 -0.1930
19271W        W39551  11.171  15.089  16.109 -0.1794  0.1231 -0.0675
19272W        W39552  15.202  10.320  14.879 -0.1716 -0.0552 -0.0029
19273W        W39553   2.128  17.691  12.557  0.0745 -0.0868  0.0773
19274W        W39554  12.884  17.344  13.172 -0.0840  0.1062  0.0747
19275W        W39555  14.827   5.075   0.561  0.0110  0.2333 -0.0544
19276W        W39556   3.382   8.434  11.520  0.0862 -0.1506 -0.1742
19277W        W39557  13.948   7.198  13.595 -0.0444  0.2337  0.0982
19278W        W39558   1.693   0.142   3.455  0.3768  0.1825 -0.0658
19279W        W39559  15.731  11.192  12.479 -0.0587 -0.1700  0.1724
19280W        W39560   4.901  16.603   4.585  0.0815  0.0913  0.0330
19281W        W39561   3.031   0.481  15.458  0.1020  0.2643  0.0543
19282W        W39562  16.691  13.306  12.087 -0.1331 -0.2473  0.3476
19283W        W39563  15.260   9.337   0.422  0.0630 -0.0079 -0.1193
19284W        W39564   0.154   3.411   2.327  0.1037 -0.0706 -0.2080
19285W        W39565   6.735   9.974  16.829  0.0075 -0.0615  0.2049
19286W        W39566   2.752   4.373  15.130  0.1320 -0.0156  0.2216
19287W        W39567   1.848   9.945   3.360 -0.0878 -0.1036  0.0880
19288W        W39568   7.157  10.940  13.447 -0.1099 -0.0589  0.2227
19289W        W39569  12.500  14.420  14.385 -0.2532  0.1307  0.0887
19290W        W39570   1.176   2.322   1.285  0.1998 -0.2024  0.1905
19291W        W39571  15.509   2.754  12.238  0.1741 -0.0258 -0.2197
19292W        W39572  14.866  10.497   1.099 -0.2815 -0.1538  0.1329
19293W        W39573   9.553   5.714   2.787 -0.1676 -0.2354  0.0017
19294W        W39574  16.218  16.570  12.305 -0.2014  0.1744 -0.2215
19295W        W39575  15.347   0.288   2.515  0.0066  0.1009 -0.2828
19296W        W39576  16.481   0.408  13.938 -0.4118  0.1650  0.3395
19297W        W39577  16.208   8.496   3.173 -0.1762  0.1493  0.2840
19298W        W39578  16.974   1.247  15.086 -0.2967  0.0104 -0.1484
19299W        W39579  14.247  10.911  12.552  0.0424  0.1042 -0.0837
19300W        W39580  14.236  13.572   4.597 -0.0550 -0.1805 -0.1838
19301W        W39581  15.585   8.854  12.322  0.0495 -0.0656  0.3222
19302W        W39582  13.250  16.610  13.131 -0.0267  0.4535 -0.0250
19303W        W39583  15.992  14.703  15.010 -0.1749  0.2214  0.2293
19304W        W39584   8.500  14.375  16.020 -0.0012 -0.0900  0.1137
19305W        W39585  11.895   9.000   4.562  0.1303  0.1491  0.1522
19306W        W39586   4.970  14.124  12.424  0.0484 -0.0016  0.0587
19307W        W39587  11.422  14.630  12.954 -0.0352 -0.0979 -0.0183
19308W        W39588  14.970   5.545   1.390 -0.2309  0.2960 -0.1619
19309W        W39589  12.575   5.177  12.225  0.3125 -0.1698 -0.1726
19310W        W39590  13.161  14.891   1.944 -0.2522  0.1970 -0.0548
19311W        W39591   4.786  15.982   3.189  0.2206  0.2113  0.1180
19312W        W39592   6.961   1.678   2.082 -0.0088  0.0106 -0.1463
19313W        W39593   2.848   4.722  14.294 -0.0863 -0.1285 -0.2520
19314W        W39594   4.565   6.479   1.872  0.0703 -0.0192 -0.3560
19315W        W39595   4.897   4.441  13.796  0.1049 -0.0957 -0.0071
19316W        W39596   3.904  11.308   3.260  0.1291  0.2534 -0.2575
19317W        W39597  11.487   9.285   4.454  0.1269 -0.0462  0.1326
19318W        W39598  12.555  10.362   4.701  0.1569  0.1566 -0.1020
19319W        W39599   0.062  13.132  12.455  0.1155 -0.2251 -0.0654
19320W        W39600   4.255  13.021   3.447  0.0501 -0.0533  0.2022
19321W        W39601   1.252  11.097   0.584  0.1866 -0.2406  0.0071
19322W        W39602  17.037   9.610  13.980  0.1391 -0.2315 -0.1060
19323W        W39603  14.981   7.675  12.805  0.0288  0.0185  0.0414
19324W        W39604   9.821   5.602   0.237  0.1805 -0.0394 -0.2624
19325W        W39605  17.650   9.361  15.637 -0.3209  0.2925 -0.0572
19326W        W39606  13.774  10.910  16.115 -0.0615  0.1218  0.1851
19327W        W39607  14.980  17.264  13.643 -0.1381 -0.2709  0.1967
19328W        W39608   5.055  14.598   0.688  0.1325  0.0023  0.2438
19329W        W39609   1.948   4.054  12.210 -0.1381  0.0515 -0.0655
19330W        W39610  14.410  11.072   3.878 -0.1096 -0.2025 -0.1086
19331W        W39611   9.577  12.616  12.453  0.0603 -0.1793 -0.0773
19332W        W39612   3.008   0.013  14.517  0.2309  0.0886 -0.1547
19333W        W39613   1.684  12.044  15.332  0.1815  0.1119  0.1465
19334W        W39614   5.504   1.889  15.336 -0.0119  0.1773  0.0048
19335W        W39615   5.160  16.289  14.506 -0.0672  0.0301 -0.1454
19336W        W39616   8.580   3.325   1.997 -0.2126  0.0244  0.0971
19337W        W39617   3.310   4.518   4.066  0.2268 -0.0079 -0.0492
19338W        W39618  13.660   1.850  15.051  0.0200 -0.0733 -0.0208
19339W        W39619   2.815   3.198   3.889  0.1647  0.3170 -0.0786
19340W        W39620   7.501   6.726   0.977  0.1212  0.1397  0.0155
19341W        W39621   8.613  10.731  15.423  0.1886  0.1516 -0.2541
19342W        W39622   0.554   5.190   2.912 -0.2546 -0.1330 -0.1981
19343W        W39623   1.002  17.086   2.492  0.2037 -0.2272  0.0334
19344W        W39624   2.813   8.883  13.082 -0.0890 -0.0539  0.0232
19345W        W39625   3.634   5.435   4.401  0.0618  0.0912  0.0847
19346W        W39626  13.669  11.673  15.513 -0.3420  0.1445 -0.1084
19347W        W39627  11.120   5.102   2.736 -0.0603 -0.1189 -0.0033
19348W        W39628   0.377   2.136  16.400 -0.2300 -0.0720  0.0252
19349W        W39629   0.682  12.233  16.504  0.1075 -0.1415  0.1170
19350W        W39630   8.298  10.681  15.998 -0.3521 -0.2184 -0.0463
19351W        W39631   4.790  11.822  12.556  0.1392  0.3995 -0.0962
19352W        W39632  16.491  17.180  12.881 -0.3803  0.1469  0.0257
19353W        W39633  16.549   0.914   2.103 -0.4468 -0.0032 -0.0622
19354W        W39634  14.981  16.852  12.748  0.0810  0.0567 -0.0481
19355W        W39635  14.311   3.298  16.645  0.3823 -0.1386  0.1504
19356W        W39636   3.153   2.380   0.316 -0.1034 -0.1161 -0.0187
19357W        W39637  15.076   0.439  14.555 -0.4258  0.0528  0.3172
19358W        W39638   7.640   8.203   4.055 -0.1943  0.0782  0.2015
19359W        W39639  15.706  16.761   0.453  0.1078  0.1359 -0.0489
19360W        W39640   6.978  17.729   4.270  0.1668  0.0702 -0.1825
19361W        W39641   8.009   5.794   3.168  0.1398  0.3980 -0.1426
19362W        W39642  11.964  11.411   4.222 -0.0680  0.2470 -0.1007
19363W        W39643   9.715   8.282  14.156  0.1332 -0.0177  0.1023
19364W        W39644   7.569   4.693   5.782 -0.3508  0.0326  0.0841
19365W        W39645   1.690  13.383  15.026  0.0836 -0.2567 -0.0864
19366W        W39646   5.903  14.094   2.926  0.2622 -0.2964  0.0754
19367W        W39647   2.850  12.796  15.355  0.1366  0.1414 -0.0719
19368W        W39648   6.348  16.355   1.991  0.2271  0.0785 -0.0632
19369W        W39649  17.498   3.564   4.216  0.0263 -0.0944 -0.1473
19370W        W39650   0.150   2.981   2.078 -0.1182  0.1466  0.1391
19371W        W39651   9.380  13.548   3.754 -0.2897  0.2835  0.2093
19372W        W39652   2.375  16.670   4.792  0.0825 -0.2164  0.0869
19373W        W39653   6.562  11.411   1.429 -0.2010  0.1992  0.1192
19374W        W39654   0.245   1.406  14.136 -0.0783 -0.0503 -0.1310
19375W        W39655  17.194   0.872  13.701 -0.2890 -0.0671 -0.1300
19376W        W39656   8.971   6.793   1.739 -0.1902  0.0344  0.1741
19377W        W39657  12.251   1.886   3.351 -0.0878 -0.2474  0.3030
19378W        W39658   4.370  10.628   0.874 -0.1064 -0.2166  0.0912
19379W        W39659  10.585  12.637  15.692 -0.1545 -0.1867  0.2673
19380W        W39660  12.624   1.641  15.883  0.0119 -0.0836  0.0855
19381W        W39661   3.413   5.441   0.349 -0.1799  0.0134  0.0317
19382W        W39662  12.193   3.537   4.137 -0.0285 -0.3355 -0.0195
19383W        W39663  17.485  12.939   3.583 -0.0339 -0.1341 -0.1512
19384W        W39664   7.184  11.922  13.680  0.2898  0.2878  0.0132
19385W        W39665   4.521   2.389  14.418  0.2492  0.0718  0.3377
19386W        W39666  15.319   6.811   0.263  0.1497  0.0340  0.2652
19387W        W39667   8.275   6.060  16.315  0.0527 -0.3284  0.0516
19388W        W39668  10.257  13.486   2.725  0.2500 -0.1172 -0.0554
19389W        W39669   1.020   3.195   2.667  0.1579  0.1806 -0.0390
19390W        W39670   7.786  17.337  16.458  0.0044  0.0436  0.0701
19391W        W39671   0.541   5.600   1.083 -0.1634 -0.3989 -0.0375
19392W        W39672  14.819   0.507   3.380  0.2287 -0.1589 -0.1475
19393W        W39673   7.475   3.809  13.795  0.1363  0.0778 -0.2584
19394W        W39674  16.240  15.618  16.885 -0.1628 -0.1535  0.1782
19395W        W39675   2.882   0.998   0.277  0.1263 -0.2454 -0.0118
19396W        W39676  10.059   5.433   2.060  0.0142 -0.0680 -0.0937
19397W        W39677   5.037  12.377  12.836  0.0426 -0.0744  0.0392
19398W        W39678   8.811   3.308  13.176 -0.0360 -0.0333 -0.5952
19399W        W39679   7.393   8.095  13.722 -0.0569 -0.0673 -0.2946
19400W        W39680  10.898   1.855  16.552  0.1347 -0.0022  0.2150
19401W        W39681   0.644   7.753  13.409  0.1347 -0.2528  0.2889
19402W        W39682   2.614   9.568  15.009 -0.3528  0.0866  0.0656
19403W        W39683  17.384   1.314   0.858  0.1633  0.1648 -0.0264
19404W        W39684   8.575   7.647   2.256 -0.0663 -0.1949  0.2279
19405W        W39685  15.956   3.420  13.451  0.1797 -0.0954  0.1573
19406W        W39686  14.425   7.274   0.797 -0.0813  0.1129  0.1619
19407W        W39687  13.654  12.540  16.441  0.0438  0.1631 -0.1937
19408W        W39688   7.016  15.566   2.925  0.0258  0.0611  0.1015
19409W        W39689   4.118  16.287  14.713 -0.1847 -0.1067  0.0013
19410W        W39690  13.431   7.538   3.854 -0.1314 -0.2365  0.0294
19411W        W39691  15.390   5.226   4.645 -0.2059  0.1148 -0.1648
19412W        W39692  11.294  17.231  16.406  0.0007  0.1593 -0.2544
19413W        W39693  10.554   7.356  14.537  0.0562 -0.1358  0.3832
19414W        W39694  10.906   9.292   1.199 -0.0922  0.0502 -0.1251
19415W        W39695   7.520  14.097  16.176 -0.0382  0.1687 -0.1302
19416W        W39696   5.572   3.455  15.222  0.3276  0.2769 -0.0584
19417W        W39697   3.744  11.163   4.539 -0.0902  0.5020  0.0096
19418W        W39698   6.289   9.929  16.563  0.1103  0.1588 -0.3225
19419W        W39699   7.991   1.603   4.111  0.2103  0.1372 -0.1126
19420W        W39700  12.687   9.861   0.572  0.0727  0.4401 -0.1704
19421W        W39701   0.407   9.952  15.101  0.0666 -0.1324  0.1284
19422W        W39702   0.994  10.853   1.460  0.0425  0.0445  0.2686
19423W        W39703   4.385  14.105  15.910 -0.1996 -0.2288 -0.2174
19424W        W39704   4.647   1.305   4.382 -0.1324  0.1408 -0.0433
19425W        W39705  14.628   3.688  11.894  0.0576  0.1698 -0.1145
19426W        W39706  13.830   6.957   1.430  0.1225 -0.3002 -0.2047
19427W        W39707   4.903  16.534   5.095 -0.1061 -0.0495 -0.2697
19428W        W39708   6.821   3.619   4.229  0.3350 -0.2669  0.0763
19429W        W39709   8.722   9.836  14.213  0.2344  0.0828 -0.1756
19430W        W39710   2.253  12.757  12.621  0.0648 -0.1360  0.1151
19431W        W39711   3.590   7.647  16.519  0.2901 -0.0771  0.1459
19432W        W39712  16.217  10.690  15.478  0.1874 -0.0088 -0.3100
19433W        W39713  10.578   4.111   0.657  0.0969 -0.1600  0.1096
19434W        W39714  12.401   1.005   1.017  0.0676  0.2393  0.0403
19435W        W39715   6.780   6.930   1.739 -0.0226  0.0839  0.2478
19436W        W39716   1.627   4.276  13.516  0.0481 -0.0774  0.3411
19437W        W39717   0.724   9.237   0.277 -0.2039 -0.2067 -0.1052
19438W        W39718  13.855  13.380   3.418 -0.0250  0.0586  0.0452
19439W        W39719   8.857  14.669   4.766  0.1521  0.2367 -0.0626
19440W        W39720  13.335   4.204   0.063  0.3717 -0.0933  0.2539
19441W        W39721  13.489   7.790   3.405  0.0165  0.0682 -0.0881
19442W        W39722  16.284   5.591   4.871 -0.1333 -0.1650 -0.0797
19443W        W39723  12.396   4.633   6.453 -0.0499  0.0552 -0.1132
19444W        W39724  11.014  14.716   4.981 -0.1002 -0.0776 -0.1335
19445W        W39725  13.876  10.213   5.135 -0.0327  0.0198 -0.1722
19446W        W39726  16.247  13.449   3.671  0.1851 -0.1749 -0.1313
19447W        W39727   9.938   1.779   2.435  0.1594 -0.0118  0.0387
19448W        W39728  12.649   3.099  16.552 -0.1176 -0.3676 -0.1525
19449W        W39729   2.031   3.963  15.253 -0.0909  0.0938 -0.0393
19450W        W39730   2.863  14.406   0.119 -0.1539  0.0169  0.0404
19451W        W39731  12.248   6.019  12.344 -0.2048 -0.1332 -0.0147
19452W        W39732  10.393  15.555  15.058  0.3217  0.2302  0.0799
19453W        W39733   3.823  17.539  16.064 -0.0834  0.0563 -0.0099
19454W        W39734   6.602   2.881   0.290  0.0861  0.3598  0.0411
19455W        W39735   8.341  14.944  14.061 -0.3209  0.4127 -0.3838
19456W        W39736  10.371  16.111  13.810 -0.2066  0.1147 -0.2492
19457W        W39737  13.583  10.900   3.983 -0.3376 -0.0044 -0.2187
19458W        W39738  13.374   3.747  13.781 -0.1266  0.2342 -0.0493
19459W        W39739   1.490  11.971   2.642  0.0137  0.0506 -0.2969
19460W        W39740   5.198   8.325   3.629 -0.1635 -0.0130  0.0724
19461W        W39741   5.746  12.627   0.576  0.1167  0.2505 -0.1615
19462W        W39742   0.175   9.137   3.829 -0.2490 -0.1758  0.1976
19463W        W39743   5.614   8.773   2.996  0.1072  0.2252  0.3977
19464W        W39744  14.302   4.355   4.983 -0.0559  0.0378 -0.1783
19465W        W39745   8.767  10.674  13.639  0.0550  0.3820  0.1221
19466W        W39746  12.535  13.262  14.749 -0.0141 -0.2049  0.2260
19467W        W39747   6.748  17.054   1.373 -0.3987  0.0433 -0.2232
19468W        W39748   1.445   0.972  15.355 -0.1047 -0.0147  0.1772
19469W        W39749   3.211   7.574   1.349 -0.1282 -0.2430  0.2095
19470W        W39750   0.475   3.527  11.009  0.3751 -0.0472  0.0376
19471W        W39751   8.664  13.571   2.408  0.0775 -0.0134 -0.0414
19472W        W39752   8.865  16.825  14.302 -0.0056 -0.0670 -0.1806
19473W        W39753   5.674  15.297   1.103  0.2229  0.1637  0.0009
19474W        W39754   3.327   5.976  12.816 -0.1862  0.0806  0.1980
19475W        W39755   1.111   0.380  13.428  0.1299  0.0959 -0.0690
19476W        W39756  15.348   0.958  15.934  0.0434 -0.1066  0.1775
19477W        W39757   9.880   3.715   4.822 -0.1925  0.1032 -0.2544
19478W        W39758  11.240   7.021   2.904  0.1072  0.1792 -0.0990
19479W        W39759   1.552  15.008   4.302  0.2832 -0.3317  0.0911
19480W        W39760  16.980   6.865  15.361  0.2831  0.0039 -0.0777
19481W        W39761   3.796   4.737  14.164  0.1769 -0.0395  0.2033
19482W        W39762  15.410  10.399  15.394  0.2210  0.2402 -0.0019
19483W        W39763  12.186   4.244   4.162 -0.0446 -0.0757 -0.1359
19484W        W39764   1.246   9.159   2.250 -0.0400  0.1706  0.2637
19485W        W39765   1.728   5.516  16.816 -0.4199 -0.2921  0.1818
19486W        W39766   7.594  14.106   1.108  0.1297 -0.0673 -0.1826
19487W        W39767   4.660  15.894   2.031  0.0050 -0.2085  0.0658
19488W        W39768   7.661   0.092  14.666 -0.2058 -0.0962  0.4158
19489W        W39769  12.435  12.860   4.708 -0.3033  0.1433  0.0908
19490W        W39770  16.328  16.250   1.588 -0.0398 -0.0795  0.0887
19491W        W39771   8.213   4.904   0.711  0.1470  0.1736 -0.1997
19492W        W39772   8.536   3.014   1.418 -0.0206 -0.0137 -0.1263
19493W        W39773   0.061   9.157  15.222  0.1584 -0.1068  0.0948
19494W        W39774   4.595  15.648  16.734  0.0377  0.3091 -0.2542
19495W        W39775  16.344  12.447   2.759 -0.0811  0.0082  0.0871
19496W        W39776  11.335  11.694   3.658 -0.1030  0.0769  0.1092
19497W        W39777   6.622   8.351  16.538  0.1545 -0.2418 -0.3716
19498W        W39778  13.688  16.905   2.435  0.0566 -0.0696 -0.1461
19499W        W39779   6.784   5.270  13.583  0.3785  0.0140 -0.2319
19500W        W39780   4.908   8.597   3.103  0.2287 -0.0017 -0.2263
19501W        W39781  13.578  15.035  11.874  0.0861 -0.0288 -0.1846
19502W        W39782   7.682  11.222  15.378  0.1573 -0.1470 -0.1412
19503W        W39783  10.515   0.407  13.559 -0.0541 -0.1211 -0.3462
19504W        W39784   0.297   8.950  14.505  0.3611 -0.1737  0.0221
19505W        W39785   1.795  15.983  12.778 -0.1846  0.1981 -0.0273
19506W        W39786   9.097   1.817   1.099 -0.0216  0.0529 -0.1488
19507W        W39787   5.226  15.872   0.488  0.0617 -0.0709 -0.2294
19508W        W39788   3.947  15.441   1.763  0.3545 -0.0279 -0.0479
19509W        W39789  11.124   7.904  13.916 -0.2793 -0.2211  0.2021
19510W        W39790  14.239  17.647   2.850  0.3277  0.0214  0.0826
19511W        W39791  15.029   4.888  16.068  0.1258  0.1112  0.1600
19512W        W39792  17.273  16.348   0.749  0.1399  0.0542  0.2358
19513W        W39793   2.028  12.107   3.166 -0.1809  0.0692  0.1634
19514W        W39794   5.977   9.211   2.342 -0.0416 -0.2454 -0.0454
19515W        W39795  13.673   7.780  15.768 -0.3094 -0.3246  0.4397
19516W        W39796   6.406   6.837  14.594 -0.0172  0.0208  0.0662
19517W        W39797  16.290   7.633   2.507  0.0307  0.1351 -0.0415
19518W        W39798  17.502   3.097   2.381 -0.0237  0.1418  0.3388
19519W        W39799  13.668   5.690  12.004  0.1892  0.0995  0.0482
19520W        W39800   0.903   8.100   2.081 -0.1078  0.3797 -0.1517
19521W        W39801   4.821  17.382   1.463 -0.3567 -0.0897 -0.0344
19522W        W39802  14.659   1.063  13.852 -0.1860  0.0264 -0.0121
19523W        W39803  10.933  13.521  13.292  0.0204  0.1386  0.0417
19524W        W39804  11.761   2.570  14.805  0.2860 -0.0402 -0.1117
19525W        W39805   9.970  12.915  13.339 -0.2582  0.2766  0.1538
19526W        W39806  12.743   2.574   2.704 -0.1290  0.0911 -0.2564
19527W        W39807  12.678  15.610  12.271 -0.0505 -0.1255  0.0824
19528W        W39808  10.736   9.065   3.881 -0.0578 -0.0318 -0.1233
19529W        W39809   3.766   2.276  16.034  0.0440 -0.3193 -0.2586
19530W        W39810   9.239   6.283  12.065 -0.4036  0.2431 -0.1595
19531W        W39811   9.611   9.311   2.108  0.1674 -0.3094  0.1321
19532W        W39812  14.119   7.945  14.414 -0.2099  0.0952 -0.0311
19533W        W39813   2.310   3.532  15.289  0.3176  0.2127 -0.0379
19534W        W39814  17.178  16.728  15.571  0.2117 -0.3651 -0.0643
19535W        W39815  15.958   8.664  15.029  0.1711 -0.0197 -0.0658
19536W        W39816   3.946  13.833  15.932 -0.1278 -0.0470 -0.1783
19537W        W39817   2.998   7.544  13.407  0.5464  0.0559  0.1119
19538W        W39818   6.215  10.503  14.501  0.0827 -0.0549 -0.1152
19539W        W39819   6.664   4.126   4.157 -0.0547  0.0194  0.0923
19540W        W39820  14.736  15.472  14.548  0.1331 -0.0526  0.2071
19541W        W39821   6.956  11.312   4.032  0.0950 -0.2309 -0.0023
19542W        W39822   5.284  13.494   3.480  0.1843  0.0096  0.1531
19543W        W39823   2.213  14.182  15.369 -0.0151 -0.0482 -0.0026
19544W        W39824  17.602   8.357   0.802  0.2758 -0.2496  0.2880
19545W        W39825  15.511   9.529  13.333 -0.2138  0.0961  0.0688
19546W        W39826  17.099  15.083   1.897 -0.1849 -0.0957 -0.4453
19547W        W39827   0.704   3.454   2.301 -0.0131  0.2210  0.0826
19548W        W39828  16.902  13.942  11.212  0.2497  0.0348  0.4428
19549W        W39829  14.910   0.671   2.567  0.0655  0.0524 -0.0475
19550W        W39830   7.765   0.554   2.173 -0.0497  0.1124  0.3125
19551W        W39831  10.962   0.803   2.278  0.4176  0.3759  0.0497
19552W        W39832  16.932  12.465   2.686 -0.2155  0.2205  0.1046
19553W        W39833   1.510  13.777  14.528  0.0277  0.1220  0.0033
19554W        W39834  13.227   4.643  16.073  0.2029  0.0449 -0.0221
19555W        W39835  13.823   6.472  12.952  0.0950 -0.1310  0.3295
19556W        W39836  11.991   8.246  16.130  0.2328 -0.0217 -0.1857
19557W        W39837  17.179   4.623   4.413  0.1117 -0.2148 -0.2194
19558W        W39838   5.043   7.966  10.897  0.0833 -0.1079  0.1639
19559W        W39839  11.167   6.279   0.787 -0.2378 -0.1614 -0.0617
19560W        W39840  17.175   6.308   2.786 -0.1954  0.0235  0.1789
19561W        W39841   2.611   0.552   0.642  0.1114 -0.1121 -0.0908
19562W        W39842   5.890   8.435   1.194 -0.0753  0.0737  0.0587
19563W        W39843   9.665   4.032  12.704 -0.0181  0.2057 -0.0063
19564W        W39844   1.008   1.558   2.643  0.0307  0.2740 -0.1057
19565W        W39845   7.637   0.412  16.336  0.0459  0.4855 -0.0187
19566W        W39846  12.096   5.952   1.652  0.1279  0.0232  0.1885
19567W        W39847   5.154  17.629   1.146 -0.0058  0.2369  0.0329
19568W        W39848  11.860  16.809  12.676  0.0375 -0.0603  0.1548
19569W        W39849   0.955   9.551  15.653 -0.1080 -0.2989  0.0649
19570W        W39850   1.022  15.470  13.780 -0.1800 -0.1595 -0.0224
19571W        W39851   9.543   0.126   0.221  0.2775 -0.1600  0.1616
19572W        W39852  11.942  15.696  13.572 -0.1977  0.1054  0.0792
19573W        W39853   5.529   3.853   2.711  0.0589  0.0165  0.1944
19574W        W39854   5.793  10.341   3.690  0.0991  0.0139  0.4134
19575W        W39855  12.588  13.650   2.040 -0.0630 -0.3732 -0.1048
19576W        W39856   9.462   1.889   4.355 -0.1279  0.0105 -0.1329
19577W        W39857   1.785   0.625   4.700 -0.0162  0.0199 -0.0697
19578W        W39858   6.087  10.825   2.884  0.1381 -0.0074  0.1141
19579W        W39859   5.039   9.512  13.916 -0.3018  0.0147  0.0007
19580W        W39860   7.577   7.406   3.936  0.1694 -0.0730  0.1208
19581W        W39861   9.844   4.272   1.212  0.1549 -0.1711 -0.0032
19582W        W39862  17.699  16.409  13.601 -0.4093 -0.1189  0.2521
19583W        W39863  14.747  15.018   4.242  0.0418  0.2515 -0.3217
19584W        W39864   2.761   0.069   0.557 -0.1246  0.2710  0.1772
19585W        W39865  16.834   3.539   1.640 -0.0955  0.0372 -0.0404
19586W        W39866   5.018   5.809  13.042 -0.1543  0.3263  0.3036
19587W        W39867  12.312  13.045  16.851 -0.1613 -0.3011  0.2288
19588W        W39868  10.263  11.218   3.687 -0.2725  0.3466  0.2732
19589W        W39869   4.152   4.988  14.973 -0.0848  0.2320  0.3312
19590W        W39870   5.263  15.477   4.599 -0.1428  0.1244 -0.1577
19591W        W39871  14.743   4.723   0.131 -0.0797  0.1693 -0.1605
19592W        W39872  16.803   3.993   3.121 -0.2108  0.2296 -0.0968
19593W        W39873   6.263   0.021   1.405  0.1952 -0.2690  0.2088
19594W        W39874  13.846   7.787   1.574 -0.0401  0.3748  0.2755
19595W        W39875  10.168   7.426   4.631 -0.0413  0.0845  0.2927
19596W        W39876   8.171   9.034   2.207  0.5019  0.2151 -0.1053
19597W        W39877   0.184   4.258   1.412  0.0524  0.0859 -0.0011
19598W        W39878   9.884   0.898   0.797  0.0170 -0.0567 -0.2834
19599W        W39879  12.858   8.754   2.469  0.1453 -0.2059 -0.1173
19600W        W39880  10.870   0.242   2.423  0.0249  0.1540  0.1274
19601W        W39881   9.966  14.960  16.741 -0.3413 -0.0222 -0.0044
19602W        W39882  12.310   5.294   4.649 -0.3560  0.1230  0.3264
19603W        W39883   9.970  12.874   2.110  0.5413  0.1819  0.1240
19604W        W39884  10.707   9.598  12.262 -0.1871  0.0299 -0.1070
19605W        W39885  14.325  10.983  13.068 -0.1063  0.1116 -0.0032
19606W        W39886  17.457   1.212   3.179  0.1331 -0.1457 -0.1581
19607W        W39887   2.982  16.940   4.324 -0.0422  0.1647 -0.1818
19608W        W39888  16.373  16.882  15.846 -0.1171 -0.0424 -0.0062
19609W        W39889   6.579  10.422  13.268 -0.1219 -0.0883 -0.2181
19610W        W39890   0.076   2.350  14.064  0.1990  0.2038 -0.0968
19611W        W39891   8.236   6.799  15.092 -0.0746 -0.2200 -0.1055
19612W        W39892  11.841  14.207  15.299 -0.1956  0.0003  0.2510
19613W        W39893   8.301  14.367  16.735  0.1065  0.1343  0.2212
19614W        W39894   8.230  10.724  12.568  0.0533  0.1656 -0.1858
19615W        W39895  16.742   0.968   3.726 -0.0435 -0.4495 -0.1228
19616W        W39896  11.468   4.074   4.599  0.1971 -0.0102 -0.2003
19617W        W39897   8.326   4.853   3.104  0.2224 -0.0246  0.0725
19618W        W39898   2.540   8.670   1.820  0.0225  0.1262 -0.0545
19619W        W39899  15.391  16.064  14.140 -0.1008 -0.2182 -0.0908
19620W        W39900  15.405   4.500  15.152 -0.2512  0.0573 -0.1095
19621W        W39901   3.373  15.575   1.955  0.0828 -0.0860  0.2793
19622W        W39902   1.976   7.114  15.140  0.1437 -0.0279  0.1369
19623W        W39903  13.719   5.162  12.072  0.0742  0.0283 -0.1099
19624W        W39904   3.725   5.958  14.862 -0.0532 -0.0444  0.0806
19625W        W39905   9.411   6.586   1.990  0.0250 -0.1334  0.0263
19626W        W39906   8.585   6.244  15.930  0.1889  0.1774  0.0877
19627W        W39907   6.317  13.251   0.198 -0.0299 -0.0811 -0.2959
19628W        W39908   8.116   6.908   2.175 -0.0508 -0.0278 -0.3488
19629W        W39909   3.031   4.051   0.762  0.0840 -0.2210  0.0982
19630W        W39910  12.030  14.715  15.419 -0.0603  0.2008 -0.1185
19631W        W39911   3.440   4.867   2.445  0.1456  0.0183 -0.3380
19632W        W39912   7.680  13.360   2.441 -0.2693  0.0219  0.1679
19633W        W39913   5.391   5.517   2.170  0.0901  0.3723  0.2150
19634W        W39914  11.857  16.041  16.309  0.0057 -0.1366  0.2292
19635W        W39915  10.996   8.469  13.303  0.0990  0.0190 -0.0561
19636W        W39916   1.480  13.919   0.253 -0.1897  0.1327 -0.0857
19637W        W39917  17.315   1.495  16.532 -0.0461 -0.0223  0.0523
19638W        W39918  17.129   2.700  13.064 -0.1041 -0.1013 -0.0217
19639W        W39919  15.240  14.434   5.059 -0.4162  0.4045  0.2366
19640W        W39920  10.817  15.773   3.600  0.1570 -0.1355 -0.2416
19641W        W39921   9.632   1.528  13.683 -0.1356 -0.2136 -0.0848
19642W        W39922  10.263  13.427   1.709 -0.0197 -0.1545 -0.1062
19643W        W39923  10.023   5.533  13.169 -0.1682 -0.3273 -0.2209
19644W        W39924   1.188  16.719  12.418  0.0822  0.0092  0.1981
19645W        W39925   3.269  12.007  12.706 -0.3258 -0.1753  0.2012
19646W        W39926   0.346   6.158  16.714 -0.0779  0.1443  0.1500
19647W        W39927   1.709   2.420   3.270 -0.0451  0.1147 -0.1018
19648W        W39928  13.903  11.391   2.364  0.2550 -0.0624  0.0948
19649W        W39929  15.498  15.478   4.121  0.1530 -0.0495  0.5028
19650W        W39930  16.718  13.654   4.536  0.1145 -0.0035  0.3398
19651W        W39931   8.180  16.002   1.878  0.0762 -0.2516  0.2218
19652W        W39932   0.489  11.851  12.974 -0.1621 -0.2645  0.0138
19653W        W39933  12.069   5.247   0.930  0.2200 -0.0654  0.1394
19654W        W39934   3.849  10.284  12.293 -0.2359  0.0116 -0.1799
19655W        W39935   9.844  17.544  13.998 -0.0583 -0.0834  0.3129
19656W        W39936   0.775   7.396  11.903 -0.1714 -0.0988  0.1863
19657W        W39937   1.140   9.126  12.440 -0.0832 -0.1493  0.2885
19658W        W39938   5.379  11.117  14.859 -0.1521 -0.0924 -0.0402
19659W        W39939   6.679   6.081  11.944  0.0148  0.0624 -0.0702
19660W        W39940   4.803   8.946  13.013  0.2107 -0.1309  0.1628
19661W        W39941   7.894  17.656  13.551 -0.2341  0.3321 -0.3969
19662W        W39942  13.778   1.954  16.769 -0.3185  0.3168 -0.3732
19663W        W39943  15.596  16.400   3.324  0.2324  0.1456 -0.1243
19664W        W39944   3.908   4.535  15.298  0.1172 -0.4688 -0.3338
19665W        W39945  16.690   8.299  16.254  0.0093  0.1416 -0.0393
19666W        W39946  10.144   4.127  13.015 -0.0814  0.1899  0.1494
19667W        W39947   9.040   9.069   3.609 -0.2203 -0.1643 -0.0575
19668W        W39948   2.512  13.850   1.781  0.0490  0.1040  0.1411
19669W        W39949   1.693  11.350   3.707  0.1201  0.1446  0.0679
19670W        W39950  10.218  13.354   2.200 -0.3241 -0.1817 -0.1062
19671W        W39951   5.934   3.895   4.618  0.1402 -0.1631  0.2329
19672W        W39952  16.420   7.108   1.251  0.1228  0.0106 -0.0212
19673W        W39953   8.800  16.516  12.937  0.0131 -0.1068 -0.1938
19674W        W39954  15.732  13.366  13.534 -0.0170  0.3191  0.1973
19675W        W39955   8.996  17.310  15.069 -0.0053 -0.0588  0.2440
19676W        W39956   8.688   0.370  15.700  0.0171  0.0659 -0.0139
19677W        W39957  11.696   2.200   4.261 -0.0225 -0.1624  0.1876
19678W        W39958   0.657   3.718   0.720 -0.3658 -0.3068  0.1284
19679W        W39959   3.351   7.285  15.133  0.0383  0.1457 -0.2052
19680W        W39960  17.022  10.064  15.708 -0.0720 -0.1292 -0.3021
19681W        W39961  11.370   6.618   4.567 -0.1395 -0.1529 -0.0507
19682W        W39962   4.591  12.323   3.756  0.2938 -0.0650  0.4273
19683W        W39963  12.304   3.897   1.403  0.1112  0.2460  0.0376
19684W        W39964   3.159  16.740   3.462 -0.1038  0.1118 -0.0886
19685W        W39965   3.681   5.536  12.053 -0.0885 -0.0795 -0.2581
19686W        W39966  14.668  12.028   3.491 -0.1093 -0.0321  0.1846
19687W        W39967  11.190   6.335   3.476 -0.2131  0.1981  0.1640
19688W        W39968   3.274   3.807   1.522 -0.0063  0.2612 -0.0525
19689W        W39969   9.407  13.881   2.659 -0.2558  0.0859  0.1123
19690W        W39970  12.253   9.017  16.757 -0.1536  0.3700 -0.2034
19691W        W39971   6.216   9.090   3.213 -0.1372 -0.0213 -0.1373
19692W        W39972   7.625   8.840   4.443  0.0330  0.1670 -0.1374
19693W        W39973   2.954  17.496   1.609  0.3364 -0.2754  0.0575
19694W        W39974   2.919   8.870  13.613 -0.1504 -0.2921 -0.2120
19695W        W39975  16.666  17.516   2.265  0.1166 -0.1936 -0.0438
19696W        W39976   1.596   1.088  14.029 -0.2245  0.0220 -0.0155
19697W        W39977  13.540   8.587   1.718 -0.1500 -0.1439 -0.0655
19698W        W39978  12.731   9.658   2.330  0.0931  0.0113  0.0438
19699W        W39979   3.194  11.931   4.996 -0.2453 -0.1054 -0.1565
19700W        W39980  15.062  11.212   3.235  0.1238 -0.0100  0.0608
19701W        W39981  15.052   4.763  13.238 -0.0122 -0.0595 -0.0366
19702W        W39982  12.763  14.263  15.661  0.0292 -0.1679  0.1126
19703W        W39983   9.239  14.176   1.886 -0.1600  0.3704  0.0689
19704W        W39984   1.360   2.915  13.874  0.0762 -0.0662 -0.3720
19705W        W39985   9.935  14.156   0.682  0.0518 -0.0265 -0.0911
19706W        W39986  16.268   1.446  13.261  0.1759 -0.1757 -0.2603
19707W        W39987  12.085  17.518  14.760 -0.1441 -0.1833 -0.0304
19708W        W39988   6.651   8.839  13.547  0.2499  0.2478 -0.1129
19709W        W39989   3.976  17.104  15.159 -0.1709 -0.2523 -0.3836
19710W        W39990   7.365   8.557  15.441 -0.2030 -0.1242  0.2719
19711W        W39991  13.539  10.014  15.157 -0.3316 -0.0505 -0.1483
19712W        W39992   6.095   2.858  12.820 -0.1330  0.1511 -0.1426
19713W        W39993  11.741   1.190  13.297  0.1470 -0.0078 -0.0884
19714W        W39994  14.647  11.594  14.915  0.0761 -0.0095 -0.2051
19715W        W39995  14.987   9.539  12.973  0.3046 -0.1056  0.1307
19716W        W39996   3.017  10.583   4.557 -0.1955 -0.1668 -0.1562
19717W        W39997   6.257   6.305  15.480  0.3425  0.1680 -0.0221
19718W        W39998  10.401  15.383   4.019  0.1684 -0.0767  0.0967
19719W        W39999   9.328   9.031   4.441  0.3090 -0.3238  0.1851
19720W        W40000   5.502  10.498   3.238  0.1265 -0.0744  0.2976
19721W        W40001   8.449  14.649  15.116 -0.2941  0.0146 -0.2436
19722W        W40002   8.440   1.543   2.675  0.0185  0.1912 -0.0018
19723W        W40003   5.484   2.262   4.995 -0.0766 -0.2561  0.3031
19724W        W40004   2.505   3.953  13.596 -0.1035  0.1527 -0.0099
19725W        W40005   1.927   4.948   1.097 -0.1252  0.0804  0.1260
19726W        W40006  12.345  12.837  12.956 -0.2628  0.1022 -0.0764
19727W        W40007   3.575   5.881  16.874 -0.0225  0.2434  0.0702
19728W        W40008  12.582   2.818  16.055  0.0339 -0.1438 -0.1958
19729W        W40009  16.496   7.536  14.391 -0.0153  0.0568 -0.3062
19730W        W40010   1.191   7.766   2.571 -0.2897  0.1569 -0.1508
19731W        W40011   1.219  16.640  13.915  0.0443  0.1186 -0.2585
19732W        W40012   7.666  15.568  13.601 -0.1527 -0.0498 -0.0129
19733W        W40013  10.512   1.411  11.680  0.0258  0.0382 -0.0557
19734W        W40014  13.678   0.194  14.016 -0.0374  0.0359 -0.0074
19735W        W40015   2.850  11.357   2.291 -0.0096  0.1832  0.0081
19736W        W40016  15.610   0.161   2.956 -0.1772  0.0853  0.3984
19737W        W40017  14.523  13.836   2.645 -0.2661 -0.0554 -0.1229
19738W        W40018  11.162   1.635  16.134  0.0021 -0.3338  0.0761
19739W        W40019  12.646   3.035  13.100 -0.1600 -0.0308 -0.2185
19740W        W40020  10.916   9.409  12.664 -0.1646 -0.0187 -0.1102
19741W        W40021  13.826  13.212  14.432  0.2117 -0.3649 -0.0080
19742W        W40022   6.018  17.175  14.705  0.0930 -0.0077  0.3374
19743W        W40023   7.817   7.309  14.891 -0.0678 -0.0825 -0.1879
19744W        W40024   0.746  13.728  16.740  0.0042  0.0008 -0.1842
19745W        W40025   9.031  16.956   1.017  0.2116  0.0920 -0.0210
19746W        W40026   5.154   0.055   3.586 -0.1803 -0.2939 -0.2941
19747W        W40027   6.247   0.602   2.046  0.0663 -0.2898 -0.0787
19748W        W40028   5.482  17.489   4.858 -0.2898  0.1493 -0.1588
19749W        W40029  15.567   8.851   2.543  0.0939 -0.1297 -0.3171
19750W        W40030  10.449   3.556  11.557 -0.2318  0.0452 -0.0904
19751W        W40031  13.916   0.999  16.620 -0.0260 -0.2065  0.2274
19752W        W40032   1.582  16.589   0.487 -0.0675  0.0880  0.3051
19753W        W40033   9.589  14.766   3.055  0.2357  0.3034 -0.0881
19754W        W40034  13.155   7.854  12.452 -0.0294  0.2214 -0.0039
19755W        W40035   5.518   2.458   2.382 -0.0411  0.0143  0.1298
19756W        W40036  16.286   5.105   1.079  0.3127  0.1205  0.0406
19757W        W40037  10.415   3.557  16.516  0.1759 -0.1827  0.2018
19758W        W40038   0.942   8.525  12.967  0.0768 -0.2525 -0.1922
19759W        W40039   7.953  12.087  14.319  0.2563 -0.1272  0.1884
19760W        W40040  11.908  14.968   2.084  0.0120 -0.0976  0.0715
19761W        W40041  16.408  14.008   0.946 -0.0516 -0.0611 -0.3332
19762W        W40042   0.190   7.461   1.500  0.0660  0.0696  0.4775
19763W        W40043  13.252  12.921  16.661  0.2183 -0.0737 -0.1920
19764W        W40044  16.772  16.676  16.074 -0.0113 -0.2004 -0.1706
19765W        W40045   8.308   6.085   2.898  0.3957 -0.0262 -0.0345
19766W        W40046   9.227  15.754  13.293  0.0136 -0.1604 -0.2787
19767W        W40047  17.317   5.657  16.074 -0.0081  0.0744  0.1195
19768W        W40048   0.108  13.836   1.191  0.0226 -0.1133 -0.2501
19769W        W40049  14.965   6.516  13.530 -0.2795 -0.0560 -0.0518
19770W        W40050   7.786  16.278   1.786  0.0875 -0.0667 -0.2102
19771W        W40051  12.600  14.526  16.049  0.0810 -0.0486 -0.1107
19772W        W40052  15.214  15.949   4.046 -0.3721  0.0510 -0.1648
19773W        W40053  12.925  14.889  15.171 -0.0114  0.0921  0.1147
19774W        W40054  10.493   0.271  16.057 -0.1110 -0.1243  0.3472
19775W        W40055  10.274  11.845   1.899 -0.3008 -0.1336  0.1839
19776W        W40056  15.624  17.246   3.830  0.3862 -0.1067  0.3782
19777W        W40057   5.307   1.932   1.854  0.1980 -0.5519 -0.0993
19778W        W40058  11.074  12.954  12.583  0.4134 -0.0794  0.0564
19779W        W40059   9.875   7.530   3.679 -0.0380  0.0154  0.2188
19780W        W40060   4.536   3.285  16.661 -0.0393 -0.1851 -0.2234
19781W        W40061  10.898  14.828   3.517  0.0383  0.1178 -0.2501
19782W        W40062  10.938  14.385  15.159 -0.1708  0.1236 -0.2274
19783W        W40063  16.459   0.393   1.969  0.0368  0.0573  0.0969
19784W        W40064  14.801   9.974  16.052  0.0577  0.1409  0.0211
19785W        W40065   6.299   3.755   3.365  0.0903  0.0705  0.0169
19786W        W40066   2.845   5.540  14.512 -0.0939 -0.0929  0.1513
19787W        W40067  14.352   9.273  14.999 -0.2946  0.0527  0.1831
19788W        W40068   0.102   3.844  12.509 -0.0783  0.0994 -0.0028
19789W        W40069   1.365  15.459   0.101  0.3134 -0.2431  0.2144
19790W        W40070  16.181   7.062  15.314  0.0374 -0.0160  0.1434
19791W        W40071   8.799  14.080   3.700 -0.0913  0.0974  0.0192
19792W        W40072   8.417   2.938  16.647  0.0006 -0.0774  0.0242
19793W        W40073  14.010   2.726  14.124  0.2645 -0.0689 -0.0203
19794W        W40074   0.622   0.808   0.283  0.0704 -0.0348  0.1155
19795W        W40075   7.995   7.598  12.859 -0.0366 -0.1331  0.2400
19796W        W40076  11.693   9.018  14.493  0.3461 -0.0857  0.2417
19797W        W40077   8.559  13.220   4.605  0.1737  0.0387  0.2330
19798W        W40078  10.342   1.890  14.707 -0.0163 -0.3515 -0.0135
19799W        W40079  14.462  13.351   5.018 -0.2307  0.0063  0.1061
19800W        W40080  12.471   8.008   4.475 -0.0267 -0.1133 -0.1442
19801W        W40081   4.348  17.688   0.658 -0.2186 -0.1088  0.0855
19802W        W40082   2.208   9.559  15.903 -0.0659  0.1315  0.1336
19803W        W40083   0.701  17.460   3.121 -0.0871 -0.0564 -0.3406
19804W        W40084   5.871  15.172  15.473  0.1147  0.1560  0.1895
19805W        W40085   5.837   2.017   0.817 -0.0175  0.0927 -0.0115
19806W        W40086  12.190   7.006  15.264  0.0449  0.0152  0.0427
19807W        W40087   5.276  15.966  16.814 -0.0803 -0.0784  0.0628
19808W        W40088  13.181  14.511   3.291  0.2091 -0.0518 -0.0256
19809W        W40089  12.398  16.016   4.652 -0.0691 -0.0296  0.1690
19810W        W40090  10.972   4.664   3.299  0.0563  0.0698 -0.3471
19811W        W40091   7.573  16.869  15.625  0.0885  0.0773 -0.0426
19812W        W40092   8.817   7.840   1.067  0.0208 -0.1031  0.2407
19813W        W40093   6.682   0.448   0.261  0.0196 -0.1143  0.2749
19814W        W40094  15.234  16.315  12.100  0.1319  0.1397 -0.1513
19815W        W40095  13.653  13.685   3.033  0.0447 -0.0104  0.3006
19816W        W40096   9.817   8.206  13.606  0.0017  0.0499 -0.0173
19817W        W40097   1.370   7.755  12.355 -0.0579 -0.3251 -0.1136
19818W        W40098   2.544   0.933   1.109 -0.1170 -0.3271  0.1292
19819W        W40099  17.372   3.790  15.618 -0.1401 -0.1616  0.2196
19820W        W40100   5.844  11.085   2.455 -0.1416 -0.0682 -0.3717
19821W        W40101  16.711   1.837   4.253 -0.1080 -0.1586 -0.2548
19822W        W40102  12.181   7.655   0.412 -0.0921 -0.1211  0.1440
19823W        W40103   3.726  14.044  14.409  0.1043  0.1011 -0.2158
19824W        W40104   6.082  11.833  13.857  0.0506 -0.3230  0.1472
19825W        W40105   9.892  12.808  13.871 -0.0550  0.2141 -0.0751
19826W        W40106  13.289  15.515   2.540 -0.0377  0.0458 -0.1772
19827W        W40107   7.628   8.599   2.557 -0.3972  0.0205 -0.2095
19828W        W40108   0.007   2.544   3.079  0.1059 -0.1596  0.1715
19829W        W40109   5.678   0.357   2.659  0.0204 -0.0711 -0.3643
19830W        W40110  13.637   0.177  16.451 -0.2115 -0.3160 -0.2109
19831W        W40111   0.701   0.466   1.816  0.0807 -0.0648 -0.2177
19832W        W40112  10.035   3.294   2.033 -0.2190  0.1893  0.0045
19833W        W40113   8.667   0.287  14.488  0.0026 -0.1679 -0.0009
19834W        W40114   5.172   4.994   0.299  0.2195 -0.0799 -0.2875
19835W        W40115   1.549  16.776   4.524 -0.1991 -0.0619 -0.0599
19836W        W40116   3.345   1.143  16.062 -0.0222 -0.1283 -0.0255
19837W        W40117  12.706   9.376   0.814 -0.1592 -0.1067  0.2197
19838W        W40118   5.743   5.640   0.073  0.1777 -0.0673  0.0210
19839W        W40119  12.292  14.371  12.761  0.1432  0.0194 -0.1991
19840W        W40120  15.179   2.303   2.368  0.1897  0.0380 -0.0467
19841W        W40121   5.993   0.964   1.782 -0.1797 -0.0959 -0.2161
19842W        W40122   7.606  14.729   3.384 -0.1646 -0.3049 -0.2417
19843W        W40123   8.918  13.902   2.764 -0.0614 -0.0670  0.0198
19844W        W40124  15.117   7.448  15.569  0.1183  0.1633  0.0991
19845W        W40125   3.446  12.407   4.163 -0.2108  0.3166 -0.1481
19846W        W40126  10.564  14.328   4.936 -0.2972  0.1644 -0.1697
19847W        W40127   0.025  12.786   0.703 -0.0697 -0.2417  0.0133
19848W        W40128  14.561   6.067   2.134  0.1283  0.0816  0.0703
19849W        W40129   4.270  16.404  12.552 -0.0229 -0.2765  0.1618
19850W        W40130  15.141   4.905  12.540 -0.1132 -0.0537  0.1080
19851W        W40131  11.923   7.374   0.055 -0.0151 -0.0768  0.0107
19852W        W40132  17.075   7.885  13.830  0.1598  0.3018  0.1889
19853W        W40133   1.437   1.094   2.060  0.1021  0.1094 -0.0475
19854W        W40134   4.967   1.599  12.129 -0.0692  0.3065 -0.1863
19855W        W40135   1.620  14.103   2.416 -0.0131 -0.2552  0.1824
19856W        W40136   2.067   9.363   1.789  0.3919 -0.0981 -0.0073
19857W        W40137   1.020   2.173  13.278  0.0353  0.2105 -0.1273
19858W        W40138   7.591   6.146   2.989 -0.2300  0.1127 -0.3223
19859W        W40139  10.842   6.105   1.199 -0.2034 -0.1842  0.0551
19860W        W40140   8.738   4.663   0.019 -0.0902 -0.0223  0.1213
19861W        W40141   1.780  10.813   1.089 -0.0998  0.0069 -0.0045
19862W        W40142   5.781  15.436  14.074 -0.0503 -0.3852 -0.1531
19863W        W40143  15.831   1.577  14.619 -0.1697 -0.0989  0.0983
19864W        W40144  16.175   2.371  16.439  0.0648 -0.0042 -0.0303
19865W        W40145   5.721  15.341   4.723  0.3085 -0.0046  0.2658
19866W        W40146  10.610  11.936   2.972  0.1402 -0.0099 -0.3334
19867W        W40147   4.499   8.449   0.892  0.1162 -0.0248 -0.0678
19868W        W40148   8.618   4.856   4.098  0.1940 -0.0780  0.1925
19869W        W40149   9.818   1.544   1.666 -0.0858  0.0806  0.1196
19870W        W40150   8.337  11.295  14.138  0.0858 -0.0661  0.0239
19871W        W40151   3.575   1.512   3.483  0.0127 -0.2199 -0.0832
19872W        W40152   1.326  14.241   1.735  0.0285  0.0286 -0.2325
19873W        W40153   1.714   2.927   4.699  0.0499  0.0542  0.3092
19874W        W40154  14.156   3.126  16.103  0.0092  0.4517 -0.2657
19875W        W40155  13.286   8.796  16.594 -0.1591  0.0196 -0.2460
19876W        W40156  16.990   0.016   0.139 -0.2869  0.1758 -0.2673
19877W        W40157   5.839  17.404   0.105 -0.1378  0.2499  0.0068
19878W        W40158  15.327   6.550   3.632  0.1108 -0.3253 -0.1405
19879W        W40159  15.364   3.247  14.770  0.1546 -0.0355  0.1800
19880W        W40160   7.386  11.144   2.098  0.0180  0.2191  0.1376
19881W        W40161   6.555   6.528  13.013  0.0627 -0.0046 -0.2207
19882W        W40162  11.707   7.620  15.523 -0.1242 -0.3386 -0.0658
19883W        W40163  17.252  14.791   2.220  0.3163  0.3016 -0.1836
19884W        W40164  15.241  12.219   4.586  0.1302  0.1716 -0.3986
19885W        W40165  11.661   8.165  16.525  0.0716 -0.2077 -0.2276
19886W        W40166   5.473  11.326   1.120 -0.0693  0.0920 -0.1156
19887W        W40167  10.488   1.661   4.325 -0.0973 -0.0622 -0.1205
19888W        W40168   8.830  16.862  15.227 -0.0297  0.0578 -0.3029
19889W        W40169  10.682   7.954  12.626 -0.1822 -0.2958 -0.3905
19890W        W40170  13.101   9.903  14.936  0.1112  0.1704  0.0704
19891W        W40171  16.261   7.704  15.560  0.0882  0.1636 -0.1377
19892W        W40172   3.419   9.242   0.133  0.1403  0.0134 -0.1608
19893W        W40173   8.322   7.821   1.061  0.0681  0.1104 -0.0437
19894W        W40174   2.240  12.922   2.080 -0.0264  0.3787  0.0280
19895W        W40175   3.037   6.438   4.076 -0.1646  0.1127  0.2592
19896W        W40176  16.824   5.410   0.249 -0.1890 -0.2215 -0.2687
19897W        W40177   1.817   0.755  13.707  0.0802 -0.2658 -0.1769
19898W        W40178  14.317   6.010   2.574 -0.0606  0.2285  0.0337
19899W        W40179   5.632  11.458  14.623  0.1515  0.2413 -0.0976
19900W        W40180   6.619   8.627  16.064 -0.0910  0.2918 -0.2825
19901W        W40181  13.012   0.953  15.041  0.2391 -0.2087 -0.1474
19902W        W40182  13.320  15.008  13.291  0.5608 -0.0084 -0.0906
19903W        W40183   1.144  13.899  13.050  0.2808 -0.1180  0.1367
19904W        W40184   1.982  10.432  16.100  0.4916 -0.4013  0.0501
19905W        W40185  11.658   8.177   3.966 -0.0292 -0.0182 -0.4369
19906W        W40186   8.745  13.040  16.884 -0.2268  0.2851  0.3304
19907W        W40187   4.579   9.418   3.685  0.1774  0.0230 -0.2368
19908W        W40188  13.441   0.172   2.398  0.5129 -0.0707  0.2113
19909W        W40189  16.803  13.775  12.942 -0.0258  0.1089  0.2152
19910W        W40190   8.665   1.988  12.695 -0.3148 -0.1423  0.1543
19911W        W40191  15.503   7.334  15.928 -0.2380 -0.2858 -0.3129
19912W        W40192  15.218  15.105   2.515 -0.2272  0.1255  0.0507
19913W        W40193  12.574  14.599   3.236  0.0734  0.1147 -0.1133
19914W        W40194  16.529   0.488  13.421 -0.1358  0.0293  0.2392
19915W        W40195   2.723  13.048  16.382  0.1639  0.3679 -0.1873
19916W        W40196   1.517   1.698   0.147  0.2252  0.0299 -0.1385
19917W        W40197   4.219   2.667   1.482  0.0714  0.0576  0.1056
19918W        W40198  14.968   0.589  13.541  0.0198 -0.0127 -0.4635
19919W        W40199   2.461  16.340  13.124  0.0680  0.2186  0.2647
19920W        W40200   8.644  16.393   4.368  0.0902 -0.0569  0.0208
19921W        W40201  11.587   5.630   4.688 -0.3798  0.1021 -0.0969
19922W        W40202   1.432   2.744   4.348 -0.1112  0.0235 -0.2350
19923W        W40203  11.985   2.920  12.094  0.0348 -0.1675  0.2736
19924W        W40204  17.681  10.059   3.956 -0.1252 -0.1642  0.3877
19925W        W40205   5.863  17.174   3.547  0.2569 -0.0816  0.1585
19926W        W40206   5.717  10.511  14.457  0.3900 -0.1992 -0.1953
19927W        W40207  15.152  15.303   0.973  0.1565 -0.0638 -0.0158
19928W        W40208  10.876  17.491  14.034  0.0888  0.4638 -0.0016
19929W        W40209   5.766   7.347   3.594  0.0790 -0.0445  0.0923
19930W        W40210   2.814   3.881   1.231 -0.0099  0.1790 -0.1501
19931W        W40211  13.716   4.683  11.953 -0.0670  0.5112 -0.1287
19932W        W40212   4.094   0.506  13.927 -0.0998  0.0309 -0.1039
19933W        W40213   2.258   5.322   2.235 -0.1585  0.1071 -0.0035
19934W        W40214  15.913  17.065  16.140  0.0825  0.2075  0.1815
19935W        W40215  14.768  14.742   2.949  0.0313  0.0301  0.0482
19936W        W40216  11.580   1.968   2.699 -0.1071 -0.1840  0.4047
19937W        W40217   5.413   8.706  14.436  0.0145 -0.0044  0.2269
19938W        W40218  13.934   8.482   0.494  0.0711 -0.2496 -0.0834
19939W        W40219  10.049  10.698   2.249  0.1527 -0.2365  0.2547
19940W        W40220   6.466   8.808  12.590  0.0085  0.2136  0.3084
19941W        W40221  13.307  17.362  15.210 -0.1083 -0.1370  0.3129
19942W        W40222  17.658   9.762   4.409  0.0276  0.3325 -0.0302
19943W        W40223   2.413  12.009  12.151  0.1962 -0.2363  0.0794
19944W        W40224   9.839   4.664  14.768  0.0669 -0.1242 -0.0124
19945W        W40225  11.154   7.299  16.518  0.2374  0.2752 -0.0887
19946W        W40226  10.669  16.881   1.062  0.0217  0.0960 -0.1273
19947W        W40227  14.390  10.161  16.358  0.0625  0.0641 -0.3222
19948W        W40228  15.200   7.811   0.205  0.1235 -0.0071 -0.1169
19949W        W40229   9.107  13.780   2.242 -0.0300 -0.3401  0.1212
19950W        W40230  11.780  13.128  13.686  0.1813 -0.0668 -0.0572
19951W        W40231  14.286   4.634   2.526  0.0260  0.1492 -0.0104
19952W        W40232   3.534   3.316  15.875  0.0730  0.1634 -0.2074
19953W        W40233   6.554   8.938  16.525 -0.1982  0.4880  0.2792
19954W        W40234   6.092  13.825  16.396  0.0257  0.0323 -0.0137
19955W        W40235  12.782   8.499   4.507  0.0975 -0.0107  0.0168
19956W        W40236  16.646   9.157   0.230 -0.0639 -0.0507 -0.0429
19957W        W40237  16.217  15.177  12.377  0.1769  0.0484  0.0944
19958W        W40238  12.774   8.003  12.857 -0.1542  0.0938 -0.3595
19959W        W40239   4.351   1.184  14.531  0.2358 -0.3879 -0.0372
19960W        W40240   2.408   0.991   3.015 -0.0061 -0.2567 -0.1670
19961W        W40241  15.472   4.390  13.266 -0.3658 -0.1623 -0.1803
19962W        W40242  17.103  17.477   4.296 -0.0852  0.1819 -0.0130
19963W        W40243  11.138  15.533  15.782 -0.1274  0.2763  0.3182
19964W        W40244  13.293  17.321  15.742 -0.0192  0.1405  0.0611
19965W        W40245  10.270  14.979   2.381 -0.1065 -0.1419  0.1266
19966W        W40246   3.286  10.876  12.651  0.1663 -0.2050 -0.0918
19967W        W40247  12.822  13.586   3.027 -0.1262  0.2716  0.0587
19968W        W40248   5.248   7.756   2.962  0.3242 -0.1833  0.0232
19969W        W40249   0.728   4.556  14.052 -0.1566  0.2959  0.0172
19970W        W40250  15.364   6.082  13.811 -0.1840 -0.0437  0.1106
19971W        W40251   6.513  11.972  12.033  0.0640  0.1034  0.0071
19972W        W40252   7.240   1.155   0.444  0.1039 -0.1203 -0.0938
19973W        W40253  13.571   2.926  16.178 -0.2475 -0.0344 -0.0484
19974W        W40254   7.268   1.568   0.782  0.1592 -0.0178 -0.0994
19975W        W40255  13.220  14.304   0.737  0.3224  0.0882 -0.1341
19976W        W40256   7.650   0.057   0.414 -0.1029  0.2668  0.1628
19977W        W40257   9.062   7.336  15.675  0.0220  0.1824  0.0990
19978W        W40258  12.275  10.081  15.295 -0.0784  0.4316 -0.0647
19979W        W40259  13.808   9.955  13.596  0.4136  0.0296  0.0391
19980W        W40260   6.113   9.112   1.547  0.1456 -0.0058  0.2112
19981W        W40261   3.255   9.175  16.042 -0.0264  0.2162  0.0026
19982W        W40262   4.442   8.119   3.711  0.3197 -0.1457 -0.0911
19983W        W40263  16.966   7.173  12.138 -0.2183  0.1918  0.0244
19984W        W40264   5.493  17.216  15.241  0.1135  0.0090  0.0047
19985W        W40265   8.766  14.164  13.779 -0.1766  0.0421  0.1733
19986W        W40266   9.338  15.234  12.437  0.0859  0.0683 -0.0397
19987W        W40267  10.932   7.296  14.212  0.0968  0.2266 -0.0121
19988W        W40268  16.633   8.631  12.172 -0.0043 -0.1636  0.3157
19989W        W40269   3.408  12.325   2.146 -0.0176 -0.3391 -0.1676
19990W        W40270   5.357   2.830   2.831 -0.0117 -0.0300 -0.0743
19991W        W40271   9.851   6.974   3.138  0.0929 -0.1028 -0.3742
19992W        W40272  14.929  17.299   4.361 -0.1612  0.2705 -0.0413
19993W        W40273   5.077   0.607  12.802  0.2584  0.2569  0.1050
19994W        W40274  12.548   2.393   1.253 -0.1001  0.0740 -0.3794
19995W        W40275   1.117  14.979  13.910 -0.2552 -0.3170  0.1794
19996W        W40276  11.342   6.253   4.011 -0.0215 -0.1557 -0.2771
19997W        W40277   1.963   0.448   0.739 -0.1079  0.1985 -0.0909
19998W        W40278  13.132   6.239   3.216 -0.0058 -0.0396  0.0032
19999W        W40279  13.741  15.681   2.448  0.1541 -0.4816  0.2335
20000W        W40280   5.100  11.263   2.977 -0.0861  0.1810  0.1688
20001W        W40281   8.905   2.757  12.411 -0.1150  0.1440 -0.0971
20002W        W40282  12.588   0.645  15.817 -0.2245  0.0523  0.0550
20003W        W40283   6.921  12.572   2.900  0.0268  0.0853  0.0266
20004W        W40284  13.314  13.532   4.955 -0.2447  0.2717  0.0432
20005W        W40285  14.637   5.737  16.872 -0.0874 -0.2482  0.0950
20006W        W40286   7.139  14.196   1.305  0.2919 -0.2988 -0.1619
20007W        W40287  15.758   1.012  13.280 -0.1480  0.3424 -0.1957
20008W        W40288   1.692   2.056   2.048 -0.1890 -0.1748 -0.0779
20009W        W40289  10.652   2.044   5.213 -0.5715  0.0689  0.0034
20010W        W40290   9.323   5.792   0.240 -0.3224 -0.1208 -0.3785
20011W        W40291   9.353  15.850   2.583 -0.0740 -0.1876  0.1315
20012W        W40292  11.888  12.116   3.274 -0.4064  0.1726 -0.1476
20013W        W40293  13.721  16.195   4.827  0.0674  0.0315 -0.0112
20014W        W40294  13.758  16.428  13.319 -0.1252  0.2938 -0.1136
20015W        W40295   5.411   5.087  12.560  0.0017 -0.0515 -0.0257
20016W        W40296   9.885   7.245  15.459  0.1460  0.0444  0.1670
20017W        W40297  16.720   1.858   4.719 -0.1962 -0.1045 -0.0006
20018W        W40298  16.126  17.518  16.383 -0.2578  0.0658 -0.1900
20019W        W40299  15.302   4.936   1.784 -0.2956  0.0992  0.0504
20020W        W40300  11.661   1.263  12.729 -0.2294  0.0155  0.2446
20021W        W40301   1.285   1.941  12.480 -0.1604 -0.2939  0.1060
20022W        W40302   4.973  11.347   2.068 -0.0056 -0.0644  0.1395
20023W        W40303  10.794  16.758   3.767  0.2294 -0.0554 -0.1531
20024W        W40304   8.392  14.452  13.930  0.3801 -0.1122  0.0033
20025W        W40305   7.454   5.683  16.161 -0.2165  0.0834 -0.0959
20026W        W40306   5.755  11.193   4.753  0.0131 -0.1106  0.1282
20027W        W40307  10.732   2.048   2.345  0.0468 -0.0141  0.0452
20028W        W40308   2.983   6.060   1.869 -0.1402  0.4759  0.0085
20029W        W40309   8.897   2.388  12.936 -0.1630 -0.0827 -0.1427
20030W        W40310   0.706   2.899  14.933 -0.0775 -0.0331  0.1476
20031W        W40311  11.670  15.655  16.694 -0.1997  0.1781 -0.2412
20032W        W40312  15.684  16.410  14.571  0.1349 -0.1171  0.1436
20033W        W40313  10.311  17.652   2.490 -0.0328 -0.1490 -0.0911
20034W        W40314   8.693  13.536  12.066  0.0689 -0.0609  0.0251
20035W        W40315  12.386  17.245  13.041 -0.0371  0.1149  0.0928
20036W        W40316  13.753   8.117  16.202  0.3529 -0.3175  0.0083
20037W        W40317   3.652   5.317  16.675  0.1175  0.1999  0.1563
20038W        W40318   5.164  17.218  14.478  0.0540  0.1348 -0.0435
20039W        W40319  10.190   0.671  16.443  0.2386 -0.2576 -0.0691
20040W        W40320   9.966  15.108  12.693 -0.2307 -0.0670 -0.1374
20041W        W40321  15.143  13.618  16.867 -0.2861  0.1949  0.1488
20042W        W40322  13.829   4.677  16.763  0.0195  0.0980  0.0715
20043W        W40323   7.081  16.280   2.393  0.1011 -0.1116 -0.1605
20044W        W40324   7.800   9.948   0.739  0.0596 -0.0389  0.0231
20045W        W40325   9.749   7.034  12.298  0.2076 -0.2106  0.1961
20046W        W40326   2.018   5.027  16.420 -0.3018 -0.1325  0.1904
20047W        W40327  13.182   8.703   2.017  0.2714 -0.3407 -0.1148
20048W        W40328  16.957  11.616   3.833  0.3053 -0.1221 -0.1563
20049W        W40329   9.648  17.060  13.355  0.1245  0.3086  0.0812
20050W        W40330  12.485   6.160  14.316 -0.2194 -0.0092 -0.2989
20051W        W40331   1.197   9.575  14.468  0.0534 -0.0730 -0.0404
20052W        W40332   2.871   9.781  14.571  0.0735  0.3002 -0.0805
20053W        W40333   9.369  11.727  12.736 -0.0551  0.0747  0.0247
20054W        W40334  14.071  16.726  15.071  0.2162 -0.0010  0.1908
20055W        W40335  14.722  15.927  14.869 -0.1495 -0.0852  0.0760
20056W        W40336  11.396   5.964  12.467  0.0317  0.0375 -0.1597
20057W        W40337   4.716  10.212  15.792 -0.0147 -0.0599 -0.4761
20058W        W40338  11.840  12.911   4.517 -0.0887 -0.1183 -0.1334
20059W        W40339  10.845  16.318  12.832 -0.1696  0.1908 -0.1427
20060W        W40340  11.478  11.627  14.924 -0.0266  0.4301 -0.3851
20061W        W40341   6.104  16.111  16.318  0.1732 -0.0901 -0.2570
20062W        W40342  14.984   2.013  12.792 -0.0700 -0.0589 -0.3571
20063W        W40343   5.614  11.360   1.608 -0.1972 -0.0917  0.0948
20064W        W40344  14.516  10.055   1.158 -0.3630 -0.0237 -0.1356
20065W        W40345  10.491   1.835  13.288  0.1651  0.0048  0.2147
20066W        W40346   3.660  14.627   3.927 -0.0925  0.0226 -0.1309
20067W        W40347   4.567  14.128  13.427 -0.2063  0.0953 -0.0117
20068W        W40348   2.605  12.684   2.335 -0.2784  0.0593 -0.0975
20069W        W40349   8.440   5.272  15.674 -0.0939  0.0421  0.4505
20070W        W40350  15.480  16.680   0.887 -0.0450  0.0177  0.1026
20071W        W40351   9.638  16.102   3.193 -0.0808 -0.0105  0.0099
20072W        W40352  15.548   8.607   0.683 -0.3935  0.2236 -0.1720
20073W        W40353   2.473  13.746   0.485  0.2816 -0.1319 -0.3040
20074W        W40354   3.340  12.042   0.376  0.3141  0.0644  0.0674
20075W        W40355   3.889  10.148  12.788  0.0987 -0.0314 -0.1442
20076W        W40356  10.764   7.328  12.670 -0.0174  0.2146 -0.0368
20077W        W40357   6.045   5.882   2.689  0.2947  0.0684 -0.2713
20078W        W40358  10.736   2.291  12.479 -0.0255  0.0849  0.1251
20079W        W40359  11.654  17.678  12.396 -0.1043 -0.0244 -0.0038
20080W        W40360   7.130  11.764  14.682  0.2291 -0.1420 -0.1663
20081W        W40361  11.393   4.983   3.236 -0.1245 -0.4048  0.2042
20082W        W40362   7.750  16.433   3.888 -0.2727 -0.1466 -0.2412
20083W        W40363  15.036   8.183   2.106 -0.2088  0.2054  0.0652
20084W        W40364   6.312   9.666   0.111 -0.1254 -0.0008  0.2293
20085W        W40365  10.810   0.396   2.915 -0.1792 -0.0824 -0.1927
20086W        W40366   6.774  14.388  16.281  0.1764  0.0089 -0.0949
20087W        W40367   8.548   9.477  12.570  0.3383  0.1792 -0.0443
20088W        W40368   2.104  15.853   2.767  0.1433 -0.2100  0.2076
20089W        W40369  13.672  16.680  14.279 -0.0557  0.0566  0.1414
20090W        W40370  13.777   0.730  14.036 -0.0441  0.2795 -0.0043
20091W        W40371   6.043   2.998   1.789 -0.2181  0.0054  0.2081
20092W        W40372  15.549   5.147   0.058 -0.1169  0.0497 -0.0951
20093W        W40373  10.896   0.050   1.521  0.2418 -0.1522 -0.0255
20094W        W40374  15.416  16.402   1.475  0.2419  0.0886 -0.3893
20095W        W40375   6.134   3.374   4.735 -0.1856  0.1302  0.3629
20096W        W40376  17.333  13.314  12.780 -0.1172 -0.1054  0.1709
20097W        W40377  13.742   5.879  13.824  0.0932  0.1481  0.0107
20098W        W40378  12.075  17.467   3.299 -0.4129  0.1763 -0.1444
20099W        W40379   1.154   5.725   1.731  0.0562  0.1975 -0.0525
20100W        W40380  16.008   0.961  12.763  0.0518 -0.0566 -0.0839
20101W        W40381  14.243   3.200  15.620 -0.1573 -0.2310 -0.0144
20102W        W40382  10.290  16.751   3.774 -0.2074 -0.2438 -0.2584
20103W        W40383   1.551   8.343   0.938  0.1309  0.0560  0.2637
20104W        W40384   8.748  14.251  16.440  0.0015 -0.0722  0.2742
20105W        W40385  10.575   8.449   1.061 -0.1282  0.1839  0.0130
20106W        W40386   3.321   1.853   2.973  0.1770  0.2168 -0.1941
20107W        W40387  10.181   3.783  10.648 -0.1396  0.0446 -0.5058
20108W        W40388   3.373   4.833   0.266 -0.2125 -0.0640 -0.1005
20109W        W40389   4.293   2.253  16.492  0.1562 -0.0337  0.0463
20110W        W40390  13.370  12.022  15.762  0.1042 -0.0129 -0.1307
20111W        W40391   5.384  14.582  13.766  0.2131 -0.0236 -0.0200
20112W        W40392  15.708   2.053   3.511  0.1758 -0.2892 -0.1475
20113W        W40393   1.085   4.967  16.347 -0.2106 -0.0636  0.0403
20114W        W40394   3.179   0.458   4.827 -0.2533 -0.1345 -0.2963
20115W        W40395   4.172   0.397  16.699  0.1410  0.1373 -0.0398
20116W        W40396   0.950   1.117  13.896 -0.0833  0.0592  0.5128
20117W        W40397   5.610  10.190   1.515 -0.1246 -0.2522 -0.0250
20118W        W40398   3.316  15.211  16.360 -0.0106  0.2110  0.1997
20119W        W40399   8.353   9.234   1.726 -0.0992 -0.0892 -0.0600
20120W        W40400  15.512  13.936   1.415  0.0491  0.0571  0.3137
20121W        W40401   7.418  16.825   3.038  0.3958  0.1393  0.1672
20122W        W40402   2.620   3.958   3.763 -0.0296 -0.0208  0.3793
20123W        W40403  17.610   7.742  15.420 -0.1477 -0.1623 -0.2539
20124W        W40404   9.962   2.303   2.417  0.2961  0.0544 -0.0706
20125W        W40405   0.025   6.366  13.269  0.1448  0.1855 -0.1380
20126W        W40406  13.487  10.954  13.564  0.1613 -0.2798 -0.0108
20127W        W40407   8.380   1.789   4.313  0.1989 -0.0872  0.1868
20128W        W40408  12.945   8.995   1.584 -0.0771  0.2115 -0.0948
20129W        W40409   8.580   7.616   3.287  0.1046  0.2948  0.0179
20130W        W40410  12.948   5.736   0.471 -0.1581  0.1200 -0.2934
20131W        W40411  11.577  11.449  12.613 -0.0622 -0.0402  0.1225
20132W        W40412   7.868   6.803  14.081 -0.1403 -0.3526 -0.0119
20133W        W40413  14.894   3.876   2.489  0.1992 -0.1026  0.0824
20134W        W40414  12.127  10.540   0.877 -0.0461  0.2494 -0.2061
20135W        W40415   8.020  14.784  13.677  0.1318 -0.2696 -0.0884
20136W        W40416   1.473   2.507  12.160 -0.0845  0.1230 -0.2668
20137W        W40417  13.655   6.316  14.780  0.1350 -0.0944 -0.2170
20138W        W40418  15.541  15.236   2.870 -0.0377  0.1030 -0.0462
20139W        W40419   9.124  14.472   2.282  0.0756 -0.0993 -0.2792
20140W        W40420   9.046   6.683  13.239  0.2282  0.2571 -0.0104
20141W        W40421  14.107   9.198  13.155 -0.0427 -0.3367  0.0951
20142W        W40422   5.673   6.661   1.088  0.3461 -0.1235 -0.2222
20143W        W40423   9.933   5.297  14.408 -0.0463  0.2896 -0.0087
20144W        W40424   7.890  14.206   2.532 -0.2601  0.2051  0.1680
20145W        W40425   6.361  13.272  15.251  0.1495  0.0966 -0.1664
20146W        W40426  12.867   2.077  12.779  0.1047 -0.0574  0.3661
20147W        W40427  10.380   1.561  15.148  0.0907 -0.1068 -0.0921
20148W        W40428   2.133   0.197  14.626  0.0689 -0.1401  0.0549
20149W        W40429  17.415   7.318   1.278  0.0174  0.1397  0.1687
20150W        W40430   7.237   6.277  15.446  0.3428 -0.2574 -0.0334
20151W        W40431  12.165   0.301   3.684 -0.3382  0.0859  0.0099
20152W        W40432  16.407   3.478   0.300  0.1037  0.2133 -0.1531
20153W        W40433   5.074   7.831  15.347 -0.0497 -0.0313 -0.0100
20154W        W40434  10.695  16.075   4.581 -0.0650 -0.0312  0.0472
20155W        W40435   1.014   8.273   1.628 -0.1826  0.0045 -0.0326
20156W        W40436  10.576   9.361   4.280 -0.1534  0.0639 -0.0768
20157W        W40437  10.099  11.513   4.074 -0.0837  0.0403 -0.2865
20158W        W40438   2.096  15.046   4.618  0.0264 -0.0308 -0.3322
20159W        W40439   9.834   3.197  13.180 -0.2025 -0.0361 -0.4589
20160W        W40440  15.597  15.173  15.455  0.0337  0.1554 -0.2490
20161W        W40441  15.126  16.275  13.561  0.1325 -0.0385  0.4597
20162W        W40442  15.240   3.869  13.211 -0.0463  0.0038  0.0999
20163W        W40443   9.194   4.392  13.393 -0.1852  0.0412  0.0725
20164W        W40444  11.410  12.672   4.746 -0.0311  0.3011 -0.3086
20165W        W40445   9.937  11.925  14.540 -0.1123 -0.2408  0.1276
20166W        W40446   3.042   8.422  13.306  0.4711  0.3648  0.2354
20167W        W40447   4.757  13.225   3.353  0.1121 -0.0056  0.2842
20168W        W40448  14.571   3.794  12.396  0.2981  0.2014 -0.1174
20169W        W40449  17.102  10.724  14.997 -0.0353  0.3508 -0.0754
20170W        W40450   7.528  10.271  12.947  0.5232 -0.0109  0.0951
20171W        W40451   1.756   2.956   2.052 -0.0568 -0.1234 -0.1795
20172W        W40452   2.685  16.778   0.299  0.0329 -0.4052 -0.0265
20173W        W40453   1.106  10.858  14.314  0.1479 -0.1837  0.0588
20174W        W40454  12.516  13.798  14.874 -0.0531 -0.1108 -0.2620
20175W        W40455   0.237   0.352   4.788  0.0827 -0.3270 -0.0129
20176W        W40456   2.991   4.984  15.789  0.2254 -0.1460 -0.2376
20177W        W40457   6.948   9.980  10.884 -0.2281  0.0781  0.0543
20178W        W40458   8.735   5.474   1.337  0.1599  0.2168  0.1668
20179W        W40459  15.532   2.494  13.436 -0.0654  0.1349  0.1464
20180W        W40460  17.447   8.411   4.522 -0.2424 -0.0171  0.2426
20181W        W40461  10.971  11.064  16.762  0.2892 -0.0901  0.0805
20182W        W40462  14.355  16.311   2.883 -0.4505 -0.1122  0.0322
20183W        W40463  13.080   9.554   4.302 -0.1591  0.0945 -0.0184
20184W        W40464   3.056   7.381   1.735  0.0897 -0.1012  0.3778
20185W        W40465   3.915  14.720  15.172 -0.2164  0.0663  0.2313
20186W        W40466  11.411   1.211   3.669 -0.0159 -0.2297  0.1000
20187W        W40467  13.461   0.705  16.383  0.1470 -0.1283 -0.1138
20188W        W40468   0.733  12.248   1.816 -0.1207  0.0685  0.0033
20189W        W40469   1.495   6.644   2.769 -0.2211 -0.3040  0.0752
20190W        W40470  16.288  15.142   2.454  0.3722 -0.3565  0.0754
20191W        W40471   1.404   8.047   1.953 -0.1615  0.2146 -0.0727
20192W        W40472   2.548  14.997  12.599 -0.1547 -0.1018 -0.0418
20193W        W40473   7.887   8.130  13.576  0.0805  0.0114 -0.3623
20194W        W40474  10.433   5.184  12.974 -0.0622 -0.1957 -0.2129
20195W        W40475   2.840   4.507   3.958 -0.2265  0.0974  0.3041
20196W        W40476  12.714   5.613  12.044  0.1090  0.1302  0.0802
20197W        W40477  14.344   2.252   3.564  0.1772  0.2139  0.0568
20198W        W40478   7.623   3.719  14.295  0.3001 -0.0319  0.0521
20199W        W40479   1.779  12.087  13.585 -0.1301  0.1843 -0.2289
20200W        W40480  17.403   1.448  15.328 -0.0264  0.3525 -0.1303
20201W        W40481   4.703   7.607   1.181 -0.0089 -0.2992 -0.0985
20202W        W40482   1.255  13.471   2.093  0.2310 -0.0013  0.1970
20203W        W40483   4.723  10.197  13.077 -0.0615  0.1453  0.1257
20204W        W40484   2.122   9.920   2.449  0.1994 -0.0403 -0.0362
20205W        W40485  13.203  11.765   1.728 -0.0375 -0.0608  0.2179
20206W        W40486  10.708  10.079  14.641  0.0316 -0.1586  0.0192
20207W        W40487   1.652   9.119  16.681  0.1617  0.2978 -0.0155
20208W        W40488  12.469   8.443  13.526 -0.0336  0.2846 -0.1248
20209W        W40489   0.533  16.201  16.412  0.1592  0.1217  0.0204
20210W        W40490  14.077  16.369   0.078 -0.0711  0.0325  0.0692
20211W        W40491  12.672  14.897   0.873 -0.1512  0.1428 -0.0654
20212W        W40492   2.502   7.117  14.526 -0.0333 -0.2650  0.0756
20213W        W40493   1.429   5.429  14.539 -0.0873 -0.2916  0.1160
20214W        W40494  12.270  16.373   0.767  0.0331 -0.1183 -0.3064
20215W        W40495   9.902   2.857  12.556 -0.1665  0.1757  0.1800
20216W        W40496   3.243   8.423  14.397 -0.0654  0.2242 -0.0367
20217W        W40497   4.299   4.723   4.144 -0.3169  0.1152 -0.0011
20218W        W40498   0.586   7.609   4.942  0.4587 -0.0074  0.0078
20219W        W40499   6.572  15.938  12.520 -0.3244  0.4313 -0.0064
20220W        W40500   2.443   2.909  12.515  0.0528  0.2407 -0.0554
20221W        W40501   2.494   4.846   0.351 -0.2058 -0.0487 -0.0511
20222W        W40502  11.812   3.158   0.218 -0.0421 -0.1028 -0.0317
20223W        W40503   0.280   3.756  13.630 -0.0066 -0.1707  0.0826
20224W        W40504  11.828  12.554  16.043  0.0446 -0.0270  0.0137
20225W        W40505   1.466   4.513   1.659  0.2957 -0.0689 -0.0923
20226W        W40506   8.647  17.461  13.111  0.2101  0.0208 -0.1618
20227W        W40507  16.615  13.022  15.644  0.0151 -0.1297  0.0646
20228W        W40508   2.883  13.519  16.674 -0.1724  0.1784 -0.0399
20229W        W40509  10.250   1.109   2.476 -0.3532 -0.0779  0.1554
20230W        W40510   7.829  14.534   1.126 -0.0204  0.1758 -0.2105
20231W        W40511   6.716  17.511  12.749 -0.0698  0.1588  0.2128
20232W        W40512  15.169  15.689  14.743 -0.0312 -0.2183  0.0179
20233W        W40513   0.616   9.574  12.387  0.0644 -0.1570  0.0634
20234W        W40514   2.222  16.648  13.417 -0.0879  0.1300 -0.2785
20235W        W40515  14.983   3.821   4.759  0.2267  0.1922  0.1675
20236W        W40516  14.291  16.054   2.449  0.2504  0.0564  0.0686
20237W        W40517  14.427  15.337  12.544 -0.1125  0.1502  0.0903
20238W        W40518  17.700   4.076   2.264 -0.1837 -0.3492  0.2484
20239W        W40519   0.328   2.122   0.384 -0.0188 -0.0718  0.0942
20240W        W40520   6.506   9.749   1.130 -0.1525 -0.2523 -0.2309
20241W        W40521  11.173   7.396   0.858  0.2790  0.2612 -0.1174
20242W        W40522  16.617  10.871   4.447 -0.2731 -0.3549 -0.0581
20243W        W40523   7.128   4.613  12.423  0.2768 -0.0664  0.4121
20244W        W40524  15.472   2.134   0.173 -0.1710 -0.1635  0.1719
20245W        W40525   6.030   9.427  14.231  0.0175 -0.2983  0.0051
20246W        W40526   9.388   7.446   0.404 -0.1007  0.1223 -0.0268
20247W        W40527  12.820   0.683  14.071 -0.0433  0.1025 -0.3575
20248W        W40528   2.946   2.280  15.802  0.0166  0.2354  0.1114
20249W        W40529   7.811  11.352  16.331  0.1040 -0.3414 -0.2049
20250W        W40530   1.984  11.677  15.561 -0.1697  0.3370 -0.2969
20251W        W40531  15.255   2.388  12.425  0.0894  0.0014  0.0090
20252W        W40532   4.672  10.315   0.546 -0.0603 -0.5260  0.0924
20253W        W40533  11.784  12.961   4.003  0.2166  0.3134  0.4654
20254W        W40534  13.121   5.720   3.419 -0.2259  0.0914  0.0843
20255W        W40535   0.868   6.807  16.525 -0.0817  0.1682 -0.1380
20256W        W40536   3.297  12.325  15.907 -0.0400  0.0603  0.0090
20257W        W40537  11.434  15.042  15.119 -0.0597  0.3074 -0.1456
20258W        W40538  12.357   5.372  11.837  0.1434 -0.1311 -0.0620
20259W        W40539   2.465   5.592  15.197 -0.1025  0.1363 -0.0142
20260W        W40540  16.621   3.153   0.669  0.0099  0.0208  0.2653
20261W        W40541   8.511  12.335  14.284 -0.2379  0.0055  0.4369
20262W        W40542   0.741   5.046  14.047  0.1943 -0.0729 -0.2248
20263W        W40543  10.751  15.919  12.322  0.1574 -0.0570  0.3983
20264W        W40544  12.039   1.913  13.158 -0.0083 -0.0097 -0.2996
20265W        W40545   0.983   8.109   5.132 -0.1373 -0.1289  0.0091
20266W        W40546  17.521  17.415   0.709  0.1957 -0.1354  0.2348
20267W        W40547   9.941  10.310   0.474  0.0217 -0.1824 -0.0112
20268W        W40548   4.507  15.419   0.360 -0.4626 -0.1347  0.0795
20269W        W40549  17.050   7.546  14.232 -0.2356  0.0863  0.0530
20270W        W40550   9.704   3.354   1.016 -0.3664 -0.0099 -0.1102
20271W        W40551   7.820   3.355  13.948  0.1073 -0.0747  0.1525
20272W        W40552   5.467   1.503  15.015  0.0087 -0.0508 -0.4749
20273W        W40553  15.176   1.435   2.648 -0.2901 -0.3160 -0.0686
20274W        W40554  12.880  17.640  15.689  0.2836 -0.2433 -0.1911
20275W        W40555   6.179   9.946   3.030  0.0123 -0.0704  0.1844
20276W        W40556   2.855   2.223  15.306 -0.0400  0.0340 -0.1039
20277W        W40557   2.205   4.755  16.861 -0.0633 -0.0698  0.0990
20278W        W40558  11.195  15.198   3.389 -0.1296 -0.5686  0.1724
20279W        W40559  15.187   2.519   1.412  0.1449  0.0510  0.3352
20280W        W40560   8.045   3.586   1.142 -0.0440 -0.0397  0.0542
20281W        W40561   4.807  12.700  12.363 -0.1211  0.1008  0.3001
20282W        W40562   2.274   1.939  13.250  0.4109 -0.1729 -0.0698
20283W        W40563  10.754   3.398   1.812 -0.0499 -0.0030 -0.1875
20284W        W40564  16.606  12.384   3.635 -0.3594 -0.2365 -0.0605
20285W        W40565  14.369  13.820   1.170  0.0450 -0.0365  0.1515
20286W        W40566  11.823   0.902  15.558 -0.1685 -0.1260 -0.1764
20287W        W40567  10.000   8.319  13.097  0.1733  0.1414 -0.0533
20288W        W40568  12.410   8.206  14.415  0.0457  0.2015  0.0113
20289W        W40569  14.994   9.389   1.661 -0.2715 -0.0215 -0.4962
20290W        W40570  14.512  11.121  15.016 -0.1127 -0.0720  0.0064
20291W        W40571   7.058   1.652  16.507  0.0693  0.0887 -0.0634
20292W        W40572   4.058   6.976   1.202 -0.0964 -0.1497 -0.0496
20293W        W40573   3.205  11.089  15.397 -0.1180  0.0622  0.0898
20294W        W40574  11.330  17.437   1.492  0.2432 -0.0802  0.1597
20295W        W40575  17.095   4.732  13.155 -0.0508  0.0309  0.0312
20296W        W40576  10.565  10.113   3.016  0.2042  0.0573 -0.0553
20297W        W40577   2.238   4.175  12.722  0.0499 -0.1289  0.2798
20298W        W40578   9.204  13.146   0.227  0.0329  0.2297  0.1018
20299W        W40579  14.062   2.310   2.671  0.1414  0.3277 -0.0602
20300W        W40580   6.596   2.200  13.848 -0.0586 -0.2122  0.0473
20301W        W40581   4.133  11.469  15.021  0.0718  0.2216 -0.2010
20302W        W40582   3.254   3.097   0.841  0.4021  0.2437  0.0041
20303W        W40583  15.560  13.152  16.166  0.4907  0.0349  0.0416
20304W        W40584   3.062   9.324  13.343 -0.2908 -0.3590  0.1912
20305W        W40585   6.057   6.360   0.887 -0.1810  0.1030 -0.0117
20306W        W40586  16.576   9.941   5.120  0.1525 -0.3775  0.0867
20307W        W40587   3.025   1.142  14.495  0.0334 -0.0925  0.0368
20308W        W40588   3.322  15.708  14.648  0.2426 -0.2433  0.0628
20309W        W40589  16.705  15.448   1.956  0.3224 -0.1828 -0.1208
20310W        W40590  10.999   6.272   0.348  0.1068  0.0228 -0.1646
20311W        W40591   0.428   7.290  13.343  0.3451  0.3670 -0.2669
20312W        W40592  16.674  10.576   3.672 -0.0273 -0.1360 -0.1142
20313W        W40593   1.074  16.416   4.067  0.0638 -0.3219  0.0773
20314W        W40594   1.317   6.219   0.942 -0.0027  0.3785 -0.0261
20315W        W40595   4.217   8.861  13.089  0.1664  0.2533 -0.0537
20316W        W40596  14.523   2.440  13.429 -0.0254  0.1115  0.0415
20317W        W40597  16.828   6.132  14.276  0.0867  0.1132  0.0442
20318W        W40598   4.935   5.752   4.427  0.2630 -0.0142 -0.0618
20319W        W40599   2.008  11.330   0.473  0.3241 -0.1696  0.1670
20320W        W40600  16.596   0.925   4.522  0.0779 -0.1331 -0.0323
20321W        W40601   4.380  12.648  15.527  0.1668  0.1257 -0.0528
20322W        W40602  14.706   7.317  13.672 -0.0073  0.0985 -0.2548
20323W        W40603  10.169   4.432  16.225 -0.0303 -0.1963 -0.0364
20324W        W40604  12.261  11.472   1.809  0.2257  0.1044 -0.0890
20325W        W40605   8.332  13.580   0.973 -0.3865 -0.1890 -0.1600
20326W        W40606  13.574  12.081   4.897  0.0943  0.0962  0.1209
20327W        W40607   4.084  12.568   2.611 -0.1766  0.0738 -0.2161
20328W        W40608  10.673   5.091   4.359 -0.0698  0.2336 -0.0341
20329W        W40609  10.281  13.246   4.112 -0.0103  0.1708 -0.1072
20330W        W40610  11.568  15.755   4.364 -0.1301  0.0568  0.1312
20331W        W40611  16.792   7.167  14.605  0.3285 -0.0461  0.3033
20332W        W40612   5.003  15.485   0.673 -0.2328  0.2970  0.1513
20333W        W40613   9.199   5.115   1.646  0.2228 -0.2646 -0.0027
20334W        W40614  16.276   3.217   1.531 -0.3322 -0.3843  0.0556
20335W        W40615   3.204  14.744  16.453 -0.1686  0.0019  0.2664
20336W        W40616   9.525   4.723   0.416  0.2807  0.0073 -0.0500
20337W        W40617  14.395   0.921   1.439 -0.1192  0.1447 -0.3590
20338W        W40618  11.943   3.555  13.220 -0.1560  0.2588 -0.1763
20339W        W40619  11.480   1.533   2.289 -0.1016  0.1338  0.0647
20340W        W40620  10.041   1.386  13.952  0.1429 -0.1677  0.1656
20341W        W40621   6.375  14.783   2.918  0.1611  0.0265 -0.0625
20342W        W40622  11.967   4.558   5.098 -0.1064  0.0302 -0.3639
20343W        W40623   0.624  14.695   3.300 -0.1612  0.1426  0.0028
20344W        W40624   8.008  11.998   3.074 -0.1062 -0.3071 -0.2290
20345W        W40625  12.051  13.938  15.949  0.0383 -0.2187 -0.3037
20346W        W40626   1.576  15.035  14.152 -0.2477 -0.1220  0.2030
20347W        W40627  17.499   7.925   0.585  0.1176 -0.0799  0.1025
20348W        W40628   9.672  13.070   2.600 -0.1810  0.0313  0.0881
20349W        W40629   5.101   9.599  12.182  0.1690  0.0631 -0.0779
20350W        W40630  10.442  12.188   2.179 -0.2385  0.0052  0.1187
20351W        W40631   5.022  11.691  14.160 -0.0348 -0.1461 -0.0944
20352W        W40632   2.264  14.601  13.494 -0.3122 -0.1100  0.3096
20353W        W40633  15.936   0.014   1.295  0.0123 -0.1381 -0.0565
20354W        W40634   7.691  17.144  13.288  0.2811  0.1636 -0.0314
20355W        W40635  16.616  12.623   4.765  0.0412  0.0882  0.0553
20356W        W40636  10.268   9.328   3.754  0.0686  0.0183 -0.0275
20357W        W40637  15.641  10.959  14.094 -0.1913  0.1902 -0.2205
20358W        W40638  16.468  12.073   2.172 -0.2110  0.1204 -0.0060
20359W        W40639  12.682  10.643  13.580  0.3435 -0.0568  0.3626
20360W        W40640  17.651   8.188   2.547  0.2662  0.2474 -0.1068
20361W        W40641  15.191   1.773  14.581 -0.3452  0.2668  0.0167
20362W        W40642   1.410   6.002  16.052  0.2760  0.1331  0.1897
20363W        W40643   8.508   3.986   3.567  0.2834 -0.4299 -0.1363
20364W        W40644  15.204   3.467  13.748 -0.3304 -0.0748 -0.0605
20365W        W40645  15.478  16.643   2.017  0.0579  0.2025 -0.1197
20366W        W40646   0.939   0.981  12.555 -0.1042  0.0566  0.4227
20367W        W40647  16.326   1.204  12.180  0.3083  0.1673 -0.0669
20368W        W40648  14.632  16.634   4.850  0.1308 -0.2826 -0.1664
20369W        W40649   1.776  16.241  14.725  0.0285 -0.1101 -0.0893
20370W        W40650   1.419   4.280   0.338 -0.2755  0.2382  0.0674
20371W        W40651   4.074   0.720  15.552  0.1609 -0.3838  0.2101
20372W        W40652   1.754   8.618  12.858  0.1139  0.2039 -0.0379
20373W        W40653  10.859   8.493  12.822  0.1383 -0.2130  0.4691
20374W        W40654  13.890   8.831   1.497 -0.2114 -0.0874  0.0169
20375W        W40655   3.836   7.243  16.573  0.2332  0.1743 -0.4478
20376W        W40656   2.036   7.835   4.408  0.0409  0.0868  0.0955
20377W        W40657   8.843   9.185  12.795  0.2165  0.2277  0.1628
20378W        W40658   7.048  17.392   3.912 -0.0696  0.1688 -0.2469
20379W        W40659   5.231  13.789  15.295 -0.1642 -0.2353  0.0707
20380W        W40660   8.263   0.767  14.320  0.1414  0.0323  0.1337
20381W        W40661  10.864  13.060  13.658 -0.2204 -0.0745  0.0203
20382W        W40662   5.050   0.023  15.814 -0.0666  0.2554  0.0562
20383W        W40663   4.929  11.083  13.513 -0.1811 -0.0835 -0.3253
20384W        W40664   4.444   5.649   1.773 -0.3521 -0.1482 -0.1597
20385W        W40665   6.273  15.480   3.740  0.1726  0.0565  0.1549
20386W        W40666   3.569   5.246  12.828  0.4078  0.0543 -0.1242
20387W        W40667   1.734   7.333  13.777 -0.0130  0.0494 -0.3982
20388W        W40668  14.325   3.336  14.065 -0.1572  0.0716  0.1140
20389W        W40669  14.592   3.279   5.305 -0.0946 -0.0516 -0.0096
20390W        W40670   0.476   7.694  12.936 -0.2535  0.1564 -0.0996
20391W        W40671  14.493  12.688  13.363  0.2284 -0.0075  0.0752
20392W        W40672  14.797  15.583  13.502 -0.3203 -0.0167  0.3699
20393W        W40673   0.515   1.560   2.160  0.1177 -0.0055  0.0019
20394W        W40674  11.780   7.191   3.126  0.0192 -0.2635 -0.1571
20395W        W40675   5.726   1.291   4.389  0.0185 -0.1424 -0.0364
20396W        W40676  16.903  11.051  12.987  0.1537  0.0396 -0.2203
20397W        W40677   9.333   9.430   3.833  0.0653  0.2585  0.0464
20398W        W40678   1.034  13.633  15.773  0.0163 -0.2526 -0.0513
20399W        W40679   7.661  10.710  14.607  0.2271  0.2046 -0.1473
20400W        W40680  13.742  15.328   0.804  0.3016  0.0495  0.1658
20401W        W40681  16.743   1.032  16.071 -0.2871  0.0140 -0.0332
20402W        W40682   0.901  16.923   4.649  0.0872 -0.3053 -0.4974
20403W        W40683   7.811   3.716   0.144  0.3319 -0.1960  0.1935
20404W        W40684   6.093   3.528   2.396 -0.1089 -0.0710  0.0758
20405W        W40685   7.261  11.998   4.351  0.2931 -0.2015 -0.0402
20406W        W40686  11.686  12.749  15.406  0.0813  0.1762 -0.1348
20407W        W40687  15.818  13.351   3.177  0.0613 -0.0729  0.0347
20408W        W40688   6.199   2.159   1.894  0.3334  0.1436 -0.0575
20409W        W40689  15.920   6.147   2.220  0.1731  0.3988  0.4270
20410W        W40690   6.263   5.159  12.887  0.2369 -0.1186 -0.2272
20411W        W40691  13.607   9.262  16.531  0.1964  0.2329  0.2657
20412W        W40692   5.278  17.627   2.031  0.3839  0.0070  0.2249
20413W        W40693   3.695   0.211  13.867  0.0102  0.0994 -0.0109
20414W        W40694   5.543   5.238   3.226  0.8208  0.2222  0.0795
20415W        W40695   8.742  11.626  13.879  0.0578  0.0224  0.3402
20416W        W40696   9.996  11.200   0.697  0.1583  0.0858 -0.0079
20417W        W40697   2.826   9.811   3.002 -0.2203 -0.0454 -0.0739
20418W        W40698  12.274   3.106   2.664  0.0190 -0.0497  0.0712
20419W        W40699  13.372   3.359  16.059  0.0177 -0.0490  0.1909
20420W        W40700  17.489  13.823  16.836  0.1067  0.2856 -0.0429
20421W        W40701  12.398   5.289  15.012 -0.0328 -0.0842 -0.1189
20422W        W40702   0.473   7.666  12.245 -0.2549 -0.4347  0.0708
20423W        W40703  15.103   5.655  14.093 -0.2662  0.0848  0.2329
20424W        W40704   9.093   8.346  12.370  0.0890 -0.2991 -0.3681
20425W        W40705   1.005  12.223  14.073  0.1398  0.1486 -0.0318
20426W        W40706   8.235  15.634   3.292  0.1056  0.0991 -0.3870
20427W        W40707   6.074  15.735  13.429  0.3901 -0.3178  0.0432
20428W        W40708  10.194  11.756  15.534  0.1923 -0.0957 -0.2506
20429W        W40709  14.003   1.841  15.500  0.1059 -0.1196 -0.1806
20430W        W40710   9.867   5.670  16.152 -0.0197  0.1677  0.0202
20431W        W40711   4.708  14.312   1.424 -0.0010  0.0532  0.0651
20432W        W40712   5.278   0.706  14.464 -0.1850  0.0169 -0.3245
20433W        W40713  10.749   6.018  13.854 -0.2728 -0.1142  0.0294
20434W        W40714   8.388  10.255  15.101 -0.3455 -0.0714  0.0667
20435W        W40715   6.883   2.439  16.009  0.2053  0.2302  0.0469
20436W        W40716  17.274  10.482   0.204  0.2440 -0.0752 -0.0435
20437W        W40717  16.353   8.929  15.155 -0.0507 -0.0568 -0.1814
20438W        W40718   5.995  15.625   4.394 -0.1768 -0.1792  0.0632
20439W        W40719   7.572  16.013   0.030  0.0340  0.2556 -0.0793
20440W        W40720   7.893   9.578   1.670  0.1298  0.0104  0.0804
20441W        W40721   4.652  11.971  11.593 -0.0828 -0.3191  0.2239
20442W        W40722  12.349   4.531  15.690  0.0384  0.2031 -0.0023
20443W        W40723  14.377   9.030  12.614  0.0315 -0.4029 -0.0353
20444W        W40724  15.257   1.283   2.090 -0.0056  0.1013 -0.0333
20445W        W40725   4.496  13.860  14.601 -0.0192  0.1245 -0.0962
20446W        W40726   1.683   4.394   3.448  0.2140 -0.3782 -0.3298
20447W        W40727   5.063   1.114   0.459 -0.1138  0.1788 -0.0450
20448W        W40728   7.079   3.685  15.072 -0.0014 -0.0166 -0.0578
20449W        W40729   3.184  14.716   3.704 -0.3528  0.3742  0.1743
20450W        W40730   2.780  15.493  15.355  0.2972 -0.2956 -0.1172
20451W        W40731  16.854  11.522  12.009  0.2717  0.1465 -0.1527
20452W        W40732  14.305   5.194   3.787 -0.1542 -0.1367  0.1908
20453W        W40733  10.182   8.908   0.728  0.1578  0.0880  0.0976
20454W        W40734  14.388   3.827  16.879  0.0008  0.2156  0.0648
20455W        W40735  14.380   6.792  15.343  0.3401  0.0830 -0.1810
20456W        W40736   1.988  10.002   2.908  0.1417  0.1113 -0.0751
20457W        W40737   5.783   9.161  12.698 -0.1293 -0.0985 -0.2291
20458W        W40738   9.793  13.360  13.144  0.0197  0.2782  0.1460
20459W        W40739  12.259  11.092  14.809 -0.2270  0.0745  0.0865
20460W        W40740   2.635  10.312  15.525  0.0224  0.1123 -0.0095
20461W        W40741   3.196  10.257   2.735  0.1208  0.0554 -0.2621
20462W        W40742   3.548   8.789   4.320  0.0040 -0.1062  0.1202
20463W        W40743   7.827  10.860   2.983  0.0276 -0.3300 -0.1401
20464W        W40744  12.696   1.090   1.542  0.0371  0.1497 -0.0541
20465W        W40745  17.564   7.454  12.425 -0.0650  0.0134 -0.1745
20466W        W40746  15.786  17.197   4.655  0.1721 -0.0509  0.2743
20467W        W40747  16.737   3.138  15.455  0.0764  0.0953 -0.0997
20468W        W40748   7.827   4.598   0.910 -0.3031 -0.1222  0.0739
20469W        W40749  16.109  12.200   3.156  0.1948  0.0135 -0.0426
20470W        W40750   3.739   0.449   0.679  0.0074 -0.1589 -0.2226
20471W        W40751  14.083   0.075  15.166 -0.0825 -0.0464  0.1846
20472W        W40752   3.261  14.268   3.352 -0.0025 -0.2146 -0.2986
20473W        W40753   5.651   4.724  16.620 -0.0227 -0.2509 -0.0989
20474W        W40754   6.951   3.550  12.503 -0.0518  0.1549  0.1802
20475W        W40755   5.220  17.635  12.674 -0.2189 -0.1709 -0.0672
20476W        W40756   3.981  14.254  12.733 -0.1053  0.1257  0.2124
20477W        W40757   1.928  11.783  11.012  0.1099 -0.0873 -0.3533
20478W        W40758   3.633  14.008  13.909 -0.0694 -0.3814  0.0438
20479W        W40759   6.280   7.110   2.107  0.0738 -0.1221 -0.2333
20480W        W40760  12.013  16.974  13.613 -0.0229 -0.1034  0.0590
20481W        W40761   2.696   4.242  13.989  0.1359 -0.0634 -0.0901
20482W        W40762   6.726  17.039   2.418  0.3815  0.1468  0.0946
20483W        W40763  12.582   6.539   0.524 -0.1366 -0.3347 -0.2537
20484W        W40764  14.145   6.344  13.432 -0.0152 -0.3264  0.3141
20485W        W40765  17.561   8.957   4.635 -0.1458 -0.2391 -0.4064
20486W        W40766  15.023   7.445  14.495 -0.0433  0.2046  0.1040
20487W        W40767   1.061   8.722   3.756  0.3291 -0.1069  0.0122
20488W        W40768   8.105  12.447  13.698 -0.0016 -0.1818 -0.2665
20489W        W40769  15.055   7.960  14.070  0.0128  0.2146  0.0227
20490W        W40770   7.619   0.400   1.315 -0.0258  0.1043 -0.1476
20491W        W40771   9.690   9.355   0.140 -0.0208 -0.0242  0.0446
20492W        W40772   5.548   2.946  12.062 -0.0184 -0.1778  0.1608
20493W        W40773   6.550  15.719   4.244  0.1862  0.0200  0.0066
20494W        W40774  14.832  11.950  12.656 -0.1617 -0.3058  0.0240
20495W        W40775   7.315   7.654  12.891  0.2069 -0.0569 -0.0577
20496W        W40776  12.974   7.627  16.730  0.2009  0.1353  0.1501
20497W        W40777  12.938   8.017  15.183  0.1558 -0.0068  0.1282
20498W        W40778  11.085  13.897   2.790  0.0203  0.0461 -0.0814
20499W        W40779   5.640   5.079   0.076  0.1063  0.3265  0.2333
20500W        W40780  16.238  11.105  14.482 -0.1452  0.2908  0.0540
20501W        W40781  14.666   8.747  12.325 -0.0376  0.0745  0.3431
20502W        W40782   3.718  16.664  15.406 -0.2187 -0.0826  0.0099
20503W        W40783  16.186  11.360  12.536  0.1247 -0.1809  0.0240
20504W        W40784  14.905   2.546  13.017  0.1226 -0.0081 -0.0918
20505W        W40785  10.870  15.677   0.235  0.1543 -0.2821 -0.2277
20506W        W40786  13.300   8.299  16.545 -0.2700  0.1336  0.1183
20507W        W40787   0.020   6.188   0.575  0.0621 -0.1846  0.3418
20508W        W40788  12.344   8.978   2.292 -0.0915  0.5499  0.2996
20509W        W40789   9.349  14.071   3.601  0.0343 -0.0929  0.0342
20510W        W40790  16.048   1.110   1.189  0.0003  0.1163  0.0123
20511W        W40791   5.734  12.399   2.924 -0.0140  0.0400  0.1480
20512W        W40792   8.659  16.459  13.921  0.0526  0.2918 -0.1124
20513W        W40793   1.011  17.619  15.408 -0.1079 -0.1284 -0.0286
20514W        W40794   4.590  16.064  14.560  0.1800  0.0485 -0.0642
20515W        W40795   1.861  11.841   3.907 -0.1279 -0.1628 -0.3985
20516W        W40796   3.502   0.915  14.257  0.0982 -0.2312  0.3642
20517W        W40797  13.262  14.197  13.139  0.1623  0.4377  0.1115
20518W        W40798  13.980   2.412   3.132 -0.2091 -0.0647  0.2466
20519W        W40799  16.717   3.513  12.853 -0.0566  0.1985  0.0118
20520W        W40800  11.086   8.242   1.215 -0.1451  0.1554  0.0891
20521W        W40801  17.618   4.326  12.586  0.3680  0.1629 -0.1568
20522W        W40802  12.594   3.425   5.354  0.0248 -0.1079  0.0296
20523W        W40803  12.185   7.554  12.357  0.1436  0.1334  0.0429
20524W        W40804  11.359  11.099  16.333 -0.0385 -0.0182 -0.1262
20525W        W40805   3.706   4.966   4.787 -0.3479 -0.1647  0.1673
20526W        W40806  12.858   2.240  15.007  0.0699 -0.0668 -0.0108
20527W        W40807   3.466   6.285   3.831 -0.1262  0.0120 -0.3302
20528W        W40808   6.539  13.778  15.451 -0.3617 -0.2021  0.1761
20529W        W40809  16.977  13.211   2.852 -0.2212  0.2322 -0.0923
20530W        W40810   8.511   9.839   3.308  0.0200 -0.1211  0.0294
20531W        W40811   3.486  12.703  16.198 -0.1319  0.0404 -0.0061
20532W        W40812   1.436   1.154   5.085  0.0117 -0.4421  0.1120
20533W        W40813   2.045   6.343  12.502  0.2361 -0.1175 -0.1039
20534W        W40814  16.414  17.029   0.595  0.0999  0.1356 -0.3150
20535W        W40815  15.763   7.558  15.597 -0.1954 -0.2156  0.1243
20536W        W40816   4.428   9.795   1.189  0.1462 -0.2711 -0.0362
20537W        W40817   0.175   8.512   3.811 -0.4121 -0.1127 -0.3686
20538W        W40818  17.057   3.020  14.401  0.1963 -0.5827  0.1541
20539W        W40819   8.748  12.660   2.498  0.2255 -0.1366 -0.3503
20540W        W40820   6.873   5.666   3.964 -0.0980  0.1620  0.0344
20541W        W40821   5.536  11.858   4.083  0.1794  0.0138 -0.1131
20542W        W40822   7.877  16.805   4.890 -0.1305 -0.2944  0.2582
20543W        W40823  17.020  12.134  13.556 -0.0133  0.0757 -0.3763
20544W        W40824   1.664  14.541   2.001 -0.1176  0.5749  0.1382
20545W        W40825   6.776   4.476  15.500 -0.1696  0.0170 -0.1384
20546W        W40826  11.810  16.160   3.390  0.1445  0.2605  0.1572
20547W        W40827  13.615   6.548  16.324  0.0820 -0.1466  0.2078
20548W        W40828  11.843  11.178   0.314 -0.0487  0.1079 -0.0717
20549W        W40829  17.449  16.011  13.429  0.1406  0.0140  0.0937
20550W        W40830   6.560  14.096   0.254  0.1798  0.1288 -0.0431
20551W        W40831   9.296   2.809  16.336 -0.0463 -0.0148  0.2345
20552W        W40832  13.633   8.583  15.988  0.1861 -0.1883  0.2838
20553W        W40833   0.944  12.971  14.525  0.1155 -0.1892 -0.0672
20554W        W40834   9.733  10.417   4.806  0.0977  0.2966  0.0437
20555W        W40835   0.751   4.660   0.415  0.0754 -0.0576  0.0199
20556W        W40836   3.759  12.595   1.802  0.0498 -0.1465  0.0667
20557W        W40837   8.142   2.248  14.288  0.0180 -0.2310 -0.0487
20558W        W40838   7.789   3.628  15.581 -0.0600 -0.2058  0.4579
20559W        W40839   9.778   6.147   0.159 -0.0213 -0.0890  0.1010
20560W        W40840   2.586   1.637  15.565 -0.0352  0.0430  0.1559
20561W        W40841   3.250   2.045   4.167 -0.2709 -0.0120  0.0291
20562W        W40842   6.535  10.028  12.436 -0.1786  0.0362 -0.0062
20563W        W40843  14.073   7.705  16.121 -0.0371  0.3233 -0.4182
20564W        W40844   1.506   8.631  14.264 -0.1926 -0.0611 -0.0065
20565W        W40845  16.904  16.214  14.122 -0.2223 -0.0522  0.0882
20566W        W40846   8.485   0.181   1.752 -0.2834  0.0608 -0.1274
20567W        W40847   2.739   2.254   2.875 -0.1668 -0.0808  0.2031
20568W        W40848   8.386   1.545  12.836  0.1117  0.1737 -0.2802
20569W        W40849  14.477   6.733   3.970  0.1264 -0.0609 -0.3469
20570W        W40850  10.672  15.442   0.689 -0.2471  0.2817  0.3801
20571W        W40851  10.626  11.898  16.269 -0.1725 -0.0702  0.1727
20572W        W40852  11.787   3.763  12.013 -0.0475  0.3600 -0.0874
20573W        W40853  16.469  11.695   0.240  0.0799 -0.1918  0.1599
20574W        W40854  15.841   1.176  12.308 -0.2010 -0.2997 -0.0406
20575W        W40855  13.111   0.969  13.744 -0.0592  0.2762 -0.1393
20576W        W40856   0.295  17.258   0.762  0.1280 -0.0963  0.0495
20577W        W40857  13.159  16.354  15.763 -0.0074  0.1275  0.2863
20578W        W40858  14.102  13.917  15.935 -0.2615 -0.1026  0.1748
20579W        W40859  11.559   5.901   1.748  0.1013  0.1492  0.1448
20580W        W40860  10.686   4.495   2.395  0.0825  0.0475 -0.1151
20581W        W40861  13.141  11.709   3.620 -0.0658 -0.0303 -0.2062
20582W        W40862   9.727   9.406   2.593 -0.0210  0.0194  0.3919
20583W        W40863  10.656  11.137   3.981  0.0678 -0.0840  0.2514
20584W        W40864  16.718  11.462  15.631  0.1837  0.1775 -0.0366
20585W        W40865   6.559   7.449   3.662 -0.1017 -0.0854  0.1115
20586W        W40866   1.656  10.743   4.466  0.3236 -0.2439  0.0784
20587W        W40867   2.145  14.172  13.247  0.3113 -0.0459  0.1509
20588W        W40868   9.019   7.195   4.027  0.2363 -0.0223 -0.3069
20589W        W40869   7.753   7.052  16.804  0.1538 -0.0861  0.2303
20590W        W40870   0.393   3.650  14.104  0.0349 -0.0687  0.2027
20591W        W40871  11.390  17.632  16.808 -0.0095  0.1391  0.3110
20592W        W40872   6.353   3.383  11.888  0.1917 -0.2185 -0.0552
20593W        W40873   2.397   9.060   2.580 -0.0181 -0.2346 -0.3052
20594W        W40874   4.164  13.936  14.165  0.0274  0.1615  0.2521
20595W        W40875  11.362  12.926   0.792  0.0897 -0.0942 -0.3416
20596W        W40876  14.921  14.119  14.492 -0.3108  0.1412 -0.1163
20597W        W40877   3.873   2.906   3.267  0.2650  0.2378 -0.2154
20598W        W40878   4.207  15.847  14.911 -0.0410  0.2537  0.4516
20599W        W40879   8.534   8.356   3.793  0.0045  0.0561 -0.0335
20600W        W40880   8.002   5.205   2.844 -0.4130 -0.2642  0.0561
20601W        W40881   5.775   9.386   1.769 -0.2579  0.0646  0.0886
20602W        W40882   1.815   1.662   3.989  0.0038  0.1943 -0.2513
20603W        W40883   3.056  11.878  15.818 -0.0721  0.3555 -0.1142
20604W        W40884   0.519   7.594  14.947  0.0428  0.0154  0.1624
20605W        W40885   5.505  13.821  13.991 -0.0553  0.0558  0.1868
20606W        W40886   7.256   7.427   2.329  0.2205  0.0836 -0.1012
20607W        W40887  13.694   7.415  12.225  0.2897  0.0799 -0.1267
20608W        W40888   6.074  13.532  15.593  0.0078 -0.0311  0.0158
20609W        W40889   6.386  10.752  14.936 -0.2457 -0.3137  0.2030
20610W        W40890  15.049   1.727  14.113 -0.3128 -0.0490  0.1614
20611W        W40891   1.468   7.712   5.132 -0.0546 -0.0192 -0.2544
20612W        W40892   2.545   5.243  15.597 -0.3740  0.0956  0.0029
20613W        W40893  16.498   7.338  15.922  0.3694 -0.0185  0.2085
20614W        W40894   0.099   5.700   1.885 -0.1317 -0.0208 -0.0480
20615W        W40895   0.070  15.371  13.608  0.0380 -0.2364 -0.0880
20616W        W40896   1.150   9.439   3.591  0.0971  0.0274  0.0311
20617W        W40897  14.116   1.556  12.953 -0.0680  0.0612 -0.0897
20618W        W40898  13.600  12.447  15.947  0.1862  0.2097  0.0174
20619W        W40899   4.947  10.592   1.558 -0.1654 -0.1233  0.0789
20620W        W40900  15.959   9.440  16.438  0.0164  0.0049  0.3377
20621W        W40901   6.321   0.459  14.403  0.1073 -0.1840 -0.0413
20622W        W40902   2.435   6.887  14.041 -0.0851 -0.0790 -0.0002
20623W        W40903   3.209   5.721  15.992  0.0534  0.1066 -0.0967
20624W        W40904  16.121   7.156   4.816 -0.0848 -0.0879 -0.0977
20625W        W40905   1.155  14.682  14.864  0.1483  0.1405 -0.0077
20626W        W40906   6.531   0.891   0.951  0.5294  0.0164  0.0345
20627W        W40907  15.547  12.530   3.668 -0.6082  0.2689 -0.1274
20628W        W40908  14.776   6.707   2.811  0.1857 -0.0729 -0.0338
20629W        W40909   0.531  17.448   0.242  0.2189 -0.0202  0.1376
20630W        W40910  11.114   7.600  15.567 -0.2961 -0.4300  0.0997
20631W        W40911   8.786   1.795  16.414 -0.0454 -0.1789 -0.1517
20632W        W40912   7.220  14.333   4.439 -0.2306 -0.0185 -0.0934
20633W        W40913  15.332   1.844  15.773  0.1984 -0.0775 -0.0252
20634W        W40914   5.392  13.474   1.492 -0.0922  0.2439  0.0257
20635W        W40915  11.877  11.576  15.385 -0.2074 -0.0997 -0.1132
20636W        W40916   2.834  13.004  14.909 -0.1008  0.1841  0.0962
20637W        W40917  15.631   6.869  16.092  0.5952  0.1582  0.2848
20638W        W40918   1.604  11.718  13.198  0.5408  0.3764 -0.2185
20639W        W40919   6.846  11.637  12.245  0.2509 -0.0987 -0.1400
20640W        W40920   8.030  11.982  15.560 -0.3270 -0.1689 -0.0987
20641W        W40921  13.934  13.003   0.368  0.3520 -0.0042  0.1749
20642W        W40922   8.239  10.195   0.957  0.4459  0.3390 -0.0159
20643W        W40923   1.299   8.209  12.792 -0.0733  0.1687  0.0281
20644W        W40924   5.016   6.614  15.049 -0.1186  0.1342  0.1588
20645W        W40925   7.607  11.141  15.907 -0.0095 -0.2300  0.0230
20646W        W40926  17.498   4.819   2.224 -0.0395 -0.0844  0.1234
20647W        W40927  11.402   3.365  16.837 -0.0615  0.0963  0.0176
20648W        W40928  17.231   6.581  12.629  0.1610  0.0483 -0.1919
20649W        W40929   8.256   3.819  15.846 -0.1216  0.2531 -0.0818
20650W        W40930  15.710  17.302  15.720  0.1054 -0.0219  0.1454
20651W        W40931   1.328  17.703  13.554 -0.2066  0.1213 -0.1593
20652W        W40932   6.589  10.235   1.407 -0.1355  0.3451  0.0038
20653W        W40933  15.721   7.136   1.977 -0.0935 -0.1200 -0.2074
20654W        W40934   8.166   5.532  12.906  0.2468 -0.1533 -0.0799
20655W        W40935   6.821   8.271   4.402 -0.1903  0.1140 -0.4518
20656W        W40936   5.600  15.920  14.356 -0.0426 -0.0093 -0.1096
20657W        W40937  13.986   1.043   2.273 -0.0775 -0.2225 -0.0655
20658W        W40938   4.888   1.943   1.634  0.0392 -0.1878 -0.0252
20659W        W40939   1.853   4.511   4.808 -0.0218 -0.1757  0.2089
20660W        W40940  14.648   4.916  14.817 -0.2073 -0.0319  0.0072
20661W        W40941   5.057   5.141   3.152 -0.0264  0.0998  0.0676
20662W        W40942  12.980  12.207   1.748  0.0478  0.0404 -0.2935
20663W        W40943  17.111   4.340  14.268  0.0298  0.2553 -0.1546
20664W        W40944   7.760  13.341  13.858 -0.1704 -0.1451  0.2550
20665W        W40945   6.345   5.632   3.121 -0.2944 -0.0405  0.0614
20666W        W40946  12.569   7.300   3.308  0.0043  0.0211 -0.0839
20667W        W40947  15.144  17.353  15.147  0.3286  0.0043 -0.1033
20668W        W40948  16.859  17.121   3.242 -0.1478  0.1018 -0.1877
20669W        W40949  17.439   0.824   4.063 -0.2067  0.1364 -0.1704
20670W        W40950  14.000   4.717   2.925  0.3139  0.0483 -0.0441
20671W        W40951  15.431  10.588   5.019  0.2593 -0.1271  0.0116
20672W        W40952  11.867   9.457   0.104  0.0876  0.0517 -0.0151
20673W        W40953  16.946  10.236   0.785  0.0434 -0.1537  0.2027
20674W        W40954  17.577  15.393  12.290  0.2813 -0.0306 -0.3461
20675W        W40955  16.716   4.554   0.497  0.0347 -0.0915  0.0146
20676W        W40956   6.330  12.532   2.888  0.1938 -0.1932 -0.1798
20677W        W40957   9.234   9.681   2.000  0.1177 -0.0477 -0.0203
20678W        W40958  13.366   0.077  15.426  0.3807 -0.2550 -0.1646
20679W        W40959   9.924  17.404  12.951  0.1465  0.1103 -0.0450
20680W        W40960  11.161  14.880   4.482  0.0242  0.3023  0.3329
20681W        W40961  14.197  14.396   3.427  0.3149  0.1111  0.1063
20682W        W40962  16.066  12.939   0.287 -0.0198  0.0671  0.0718
20683W        W40963   2.322  11.623  13.884  0.1432  0.0804 -0.1311
20684W        W40964   3.347  11.779   1.177  0.2674  0.2589 -0.0935
20685W        W40965   5.776  10.545   1.003  0.0104  0.0932  0.0341
20686W        W40966  16.698  13.311   0.044  0.0749  0.0271  0.1081
20687W        W40967  13.831   7.423   1.998  0.0867  0.2813  0.4699
20688W        W40968  10.672   4.836  12.790  0.0590 -0.2572 -0.2493
20689W        W40969  12.122   6.526  16.574  0.1399  0.0590  0.0744
20690W        W40970   8.241   1.933  15.782  0.0062 -0.0575 -0.1973
20691W        W40971   7.069  17.695   0.825  0.0101  0.2558 -0.2160
20692W        W40972  15.252   6.053   2.963 -0.2652  0.0081  0.2614
20693W        W40973  14.615   3.806   2.023 -0.2190 -0.1000  0.0540
20694W        W40974   2.112   6.444  16.066 -0.0820  0.0181 -0.0442
20695W        W40975  16.566   6.389   0.072 -0.0173  0.0396 -0.3500
20696W        W40976   6.574  16.934  11.731  0.1620 -0.3121 -0.1567
20697W        W40977   7.680  10.619  12.616 -0.0739  0.1543 -0.0018
20698W        W40978  11.934   9.528  16.131 -0.0192  0.0944  0.1873
20699W        W40979   8.550   9.372   3.636  0.3965  0.1530 -0.1672
20700W        W40980   6.286   6.424   3.491  0.1148  0.0412  0.0942
20701W        W40981  10.388   5.217  13.554 -0.1221 -0.0589  0.3051
20702W        W40982  15.463  13.285   4.118  0.1447  0.2044 -0.3266
20703W        W40983  16.687  17.289  12.421 -0.1178 -0.1496  0.0234
20704W        W40984   4.970   2.510   2.501 -0.2372 -0.1186  0.0044
20705W        W40985  14.668  14.336  13.097 -0.1454  0.1345  0.2042
20706W        W40986   9.546   8.428   0.478  0.0102 -0.0551  0.0389
20707W        W40987   2.290   1.969   3.128 -0.2748 -0.1533  0.0386
20708W        W40988  17.486   5.133  12.079  0.1654  0.3478  0.3282
20709W        W40989   5.436   3.879   1.242 -0.0385  0.3510 -0.0991
20710W        W40990   8.389   4.563  12.956 -0.2046 -0.0868 -0.0819
20711W        W40991   8.804   8.999   1.603  0.0566 -0.0274  0.1517
20712W        W40992  13.662  13.283  14.961  0.0720 -0.0978 -0.2974
20713W        W40993  14.296   6.010   4.160 -0.2479  0.1065  0.1413
20714W        W40994   7.820   3.807   2.905 -0.0245  0.1311 -0.0365
20715W        W40995   3.193   1.286   0.596 -0.3505  0.2519 -0.1574
20716W        W40996  14.350  10.390   5.047  0.0444  0.1414  0.2100
20717W        W40997   1.830   4.223  16.180 -0.2926  0.0337 -0.0835
20718W        W40998  12.047   6.414  13.676 -0.0532  0.1559  0.1065
20719W        W40999   1.365   9.597   0.594 -0.0265  0.2517 -0.2759
20720W        W41000   8.908   0.940   3.776  0.1996 -0.1216  0.0930
20721W        W41001   1.410   3.080   1.716 -0.3465  0.2270  0.1777
20722W        W41002  14.308   7.108  14.012  0.3080  0.1488  0.1396
20723W        W41003   7.609   8.283  16.237  0.0404 -0.0842  0.2244
20724W        W41004   1.261   8.324  13.659 -0.2496 -0.2341 -0.0249
20725W        W41005   3.890   6.880   0.700  0.0829 -0.2149  0.0337
20726W        W41006  12.416   6.719   1.234  0.2005  0.1709  0.3518
20727W        W41007   8.353  14.208   3.533 -0.2084 -0.1812 -0.0513
20728W        W41008   7.316   2.242  14.581 -0.0693 -0.2697  0.1008
20729W        W41009   6.912   1.076  16.435 -0.0091 -0.2190  0.2038
20730W        W41010  15.665   2.313  16.434  0.1146  0.2622  0.1383
20731W        W41011  13.825   0.803  15.871 -0.0000  0.1288  0.0267
20732W        W41012   8.199   8.766   3.403  0.0648  0.1254  0.2397
20733W        W41013   8.337  10.869  13.795 -0.0605 -0.1272 -0.0176
20734W        W41014  12.589   9.623  12.534 -0.3413 -0.3121 -0.1982
20735W        W41015   6.504   5.555   1.458  0.1975  0.1838  0.0451
20736W        W41016   6.748   8.678   2.538  0.4084 -0.3623 -0.0312
20737W        W41017   2.641   8.313  14.529 -0.0527 -0.1463  0.1899
20738W        W41018   7.308  17.465  13.394 -0.0698  0.0241  0.0584
20739W        W41019  16.187  11.359   4.981  0.1932  0.1947 -0.0212
20740W        W41020  13.162  11.190   2.763 -0.4112 -0.0894  0.3758
20741W        W41021   5.767  14.196  16.425 -0.1508  0.0353  0.1368
20742W        W41022   9.546  10.978   2.067  0.0703  0.0288  0.1027
20743W        W41023  12.128   0.988   0.124 -0.4293  0.1180 -0.3972
20744W        W41024   9.113   5.723   1.143  0.1885 -0.1776  0.3283
20745W        W41025   7.707   3.498  12.932 -0.2065 -0.0802  0.0552
20746W        W41026   6.050   8.665   0.350 -0.3052  0.2940 -0.0896
20747W        W41027  12.294   5.898  11.876 -0.4993  0.1122  0.3906
20748W        W41028  10.000   9.934  13.523 -0.0624  0.4028 -0.1193
20749W        W41029  16.730  12.900  16.636 -0.0987 -0.0500 -0.1740
20750W        W41030  15.246   1.612  12.781  0.4059  0.0811  0.0915
20751W        W41031   8.352  11.815   2.676  0.0599 -0.1266  0.1016
20752W        W41032   7.434  10.960   3.445 -0.2793  0.1285  0.0168
20753W        W41033   8.546  17.066  13.997 -0.0477  0.0721  0.1646
20754W        W41034   8.090  12.955  16.796  0.0503  0.0022  0.3391
20755W        W41035   9.381  10.464  15.990 -0.2719 -0.2482  0.2449
20756W        W41036  11.086  15.434   2.116 -0.0337 -0.0739  0.3467
20757W        W41037   7.085  13.274  15.840  0.0041  0.0068  0.0842
20758W        W41038   1.637  10.398  12.796 -0.0566  0.2018 -0.1373
20759W        W41039   6.640  14.936   2.367  0.0527  0.0584  0.0135
20760W        W41040   9.765   9.816   4.187 -0.0405  0.0531  0.0369
20761W        W41041   6.642   1.372  12.258  0.1576 -0.1478 -0.1223
20762W        W41042   9.024   3.618  13.543 -0.0927 -0.1490  0.0082
20763W        W41043  17.445   6.986   1.681 -0.1130 -0.0291  0.2475
20764W        W41044   8.500   8.597   2.380 -0.0829 -0.1449  0.1667
20765W        W41045   2.379   5.433  14.181 -0.0585 -0.2672 -0.1210
20766W        W41046   7.428  16.720  13.122 -0.1985 -0.1008 -0.3436
20767W        W41047   7.051  15.948  14.299  0.0242  0.1164 -0.0419
20768W        W41048   5.508   2.306   3.608 -0.2192  0.0493  0.3170
20769W        W41049  13.610  14.621   4.091 -0.0782 -0.0117 -0.0867
20770W        W41050   3.521   6.645  13.856  0.0777 -0.1808 -0.0664
20771W        W41051  13.963   6.564  15.098 -0.3612  0.2177  0.0381
20772W        W41052  15.567   4.104   4.083  0.0940  0.2073  0.3134
20773W        W41053   8.353  14.039   4.955  0.3104  0.1897 -0.0614
20774W        W41054   3.572   6.639   3.432  0.1073 -0.0970 -0.0345
20775W        W41055  10.937   7.074   1.173  0.0341 -0.3188  0.1450
20776W        W41056   7.094  15.402  14.272  0.0952  0.3918 -0.0359
20777W        W41057   4.604  16.636   4.146 -0.1379  0.1851 -0.1216
20778W        W41058  15.480   2.304   4.407  0.1139 -0.2823 -0.2308
20779W        W41059   1.794   9.436   3.086  0.2764  0.2083  0.1514
20780W        W41060   0.206   2.944  12.894  0.1366  0.1676 -0.0311
20781W        W41061  13.064  13.894  16.793  0.0045 -0.1080 -0.1898
20782W        W41062   1.544   2.315  14.998  0.2008  0.2667 -0.1424
20783W        W41063  14.109   3.762  14.393 -0.0113  0.0942  0.0985
20784W        W41064  16.052  15.943  15.800  0.0843 -0.1810  0.0488
20785W        W41065  12.988   0.869  15.585  0.0691 -0.1421 -0.1976
20786W        W41066   3.355  16.870  13.582  0.1102  0.2364  0.0327
20787W        W41067  14.405   2.249   1.730  0.0604  0.0934  0.1490
20788W        W41068   7.952   0.262  12.155  0.0566  0.2386  0.0043
20789W        W41069   4.156  10.732  12.209 -0.2632  0.0855  0.1194
20790W        W41070  10.657   8.154   1.429 -0.0860  0.0781  0.0956
20791W        W41071   6.188   8.485   0.776  0.0315  0.0429  0.0077
20792W        W41072   2.308  10.740  15.962 -0.0280 -0.0885  0.1898
20793W        W41073  17.740   3.963  15.250  0.0483 -0.0994 -0.4035
20794W        W41074   0.552   9.650  15.937 -0.0042  0.2674 -0.1203
20795W        W41075  15.864   3.517   1.738  0.0809 -0.2658 -0.0092
20796W        W41076   8.809  14.723   0.823  0.0157  0.0457  0.0944
20797W        W41077  14.477  13.544  16.110  0.0078  0.1239 -0.1633
20798W        W41078   7.267  12.277  13.306  0.2851 -0.1233  0.0597
20799W        W41079   7.507   1.551   2.011 -0.0724  0.1852  0.0414
20800W        W41080  13.176  13.880   2.837  0.1997  0.0077  0.2095
20801W        W41081   8.534   1.483  11.992 -0.1778 -0.1944  0.1181
20802W        W41082  16.752   6.475  12.927  0.1813 -0.1003 -0.1525
20803W        W41083  11.625  10.475  14.030  0.1472 -0.1468 -0.1543
20804W        W41084   8.323  16.094   4.611  0.0794 -0.3258 -0.0764
20805W        W41085   9.534  15.635   2.143  0.1583  0.4415  0.0888
20806W        W41086   0.629  15.654  15.745 -0.2109  0.0974  0.3834
20807W        W41087  16.121   3.883  12.104  0.1281  0.0986  0.0884
20808W        W41088  10.366  15.142  12.335  0.2751 -0.0047 -0.2768
20809W        W41089   1.283  10.016   4.360 -0.1158  0.0395  0.0803
20810W        W41090   4.406   7.966   0.785  0.0750 -0.0011 -0.1825
20811W        W41091  15.856   4.158  13.869 -0.3099  0.3016 -0.2877
20812W        W41092  13.697  13.686   3.740 -0.0011 -0.0208 -0.0257
20813W        W41093   8.361   5.531   2.270 -0.0892 -0.1325  0.2018
20814W        W41094  17.409  11.263   1.432 -0.1338 -0.0422  0.0834
20815W        W41095  12.930  10.235  15.256 -0.0380  0.1440 -0.0937
20816W        W41096  10.612  10.135   1.604 -0.0554  0.2262 -0.1572
20817W        W41097   2.681   9.090  15.815 -0.1565 -0.1972 -0.1196
20818W        W41098   4.638   6.879   2.148 -0.0458 -0.3591 -0.0077
20819W        W41099   5.393  10.102   2.974  0.1241 -0.1658 -0.0605
20820W        W41100   2.893  17.474   3.801 -0.0636  0.1207  0.3059
20821W        W41101  11.413   6.621   5.179 -0.2136  0.0138 -0.0818
20822W        W41102  10.795  14.349  12.436 -0.0770  0.2164 -0.0888
20823W        W41103  11.440  14.092   4.049  0.0134  0.0078 -0.0863
20824W        W41104   8.852   0.306   0.266 -0.1529 -0.3484  0.2353
20825W        W41105  13.234   0.866  14.249 -0.0131  0.0070 -0.0696
20826W        W41106   7.943   7.593  13.605 -0.3195  0.2982 -0.2964
20827W        W41107   3.445  11.960   2.569  0.0156 -0.2303  0.3863
20828W        W41108   3.668  16.477   4.301 -0.0824  0.2202 -0.0907
20829W        W41109  12.204  10.418   2.124 -0.0399 -0.3233  0.2224
20830W        W41110  14.032  15.901   2.817 -0.2123 -0.0752  0.2237
20831W        W41111   2.234   6.506   4.792  0.0173 -0.0784 -0.0477
20832W        W41112  12.810  12.286  13.828 -0.2228  0.0229  0.4199
20833W        W41113   6.211   3.006  14.331  0.0085  0.0064 -0.0966
20834W        W41114   7.043  16.729  12.530 -0.1222  0.2134  0.0158
20835W        W41115   5.063   9.490   3.423  0.0555 -0.1623 -0.0899
20836W        W41116   9.355   2.501  16.710  0.2234 -0.0413 -0.1519
20837W        W41117  12.378  10.051  12.385  0.0252 -0.0640  0.0131
20838W        W41118  11.790  14.745   4.667 -0.0171 -0.0855 -0.2351
20839W        W41119   5.451  17.089   1.959  0.1022 -0.1027 -0.0041
20840W        W41120  16.169  11.327   1.417  0.2972 -0.0274  0.2176
20841W        W41121   5.380  12.445  13.793  0.3694  0.1282 -0.0826
20842W        W41122  10.721  13.425   3.001 -0.0266  0.0624 -0.0277
20843W        W41123  15.183  17.641   1.133 -0.1772  0.1806 -0.0372
20844W        W41124  15.259  14.463  16.747 -0.2817 -0.1599 -0.1757
20845W        W41125   1.809   0.623   3.602 -0.2089  0.2297 -0.2416
20846W        W41126   0.635  14.220  16.583 -0.1766  0.0727 -0.1793
20847W        W41127   6.996  13.509  16.395  0.0885  0.0146 -0.0266
20848W        W41128   6.051   5.855  15.325  0.0150 -0.0592  0.2406
20849W        W41129   5.006   1.311  16.307 -0.1323 -0.3300  0.4733
20850W        W41130  16.887   9.078  15.200 -0.0164  0.0713  0.2471
20851W        W41131  12.193   3.696  14.314 -0.0590  0.2132  0.1017
20852W        W41132   8.393  16.382   2.728 -0.0699 -0.1100 -0.2530
20853W        W41133   3.178   8.244   3.459 -0.0083  0.1413  0.3086
20854W        W41134  16.421  17.723   1.278  0.1751 -0.1237 -0.1761
20855W        W41135  12.287  11.413   2.309  0.1238  0.3637  0.1328
20856W        W41136  11.745  12.278   4.649 -0.1138  0.1109 -0.0792
20857W        W41137   1.992  17.553   2.530 -0.0210  0.1153 -0.0451
20858W        W41138   1.869   7.957   1.104  0.0522 -0.2180 -0.0085
20859W        W41139   2.456  16.569  15.167 -0.0965 -0.1052 -0.1494
20860W        W41140  14.584  12.511  16.757 -0.0808 -0.1870 -0.1007
20861W        W41141  11.804   4.967  15.994  0.0235  0.1776  0.2672
20862W        W41142   9.957  17.074   1.245  0.0049 -0.0790  0.0242
20863W        W41143  12.086  12.358  13.237  0.0300  0.1796 -0.1574
20864W        W41144  13.108   3.090  12.861  0.2053 -0.1872  0.0529
20865W        W41145   4.835  15.505  14.506  0.1779  0.1137 -0.2857
20866W        W41146  15.252  10.718   0.866 -0.2737  0.0399  0.0780
20867W        W41147   3.583   3.871   2.014  0.2791 -0.1327 -0.2497
20868W        W41148   4.136   3.899  15.442 -0.1117  0.1666 -0.0005
20869W        W41149   6.531  15.257  12.839  0.0023 -0.0083 -0.0606
20870W        W41150  10.507  14.793   3.196 -0.1521 -0.0404 -0.1982
20871W        W41151   2.193  15.462  12.985 -0.0111  0.0919 -0.2604
20872W        W41152   9.898   5.293  11.747  0.0191 -0.5651 -0.0345
20873W        W41153  17.263  10.726   0.697 -0.3100  0.0949  0.2380
20874W        W41154  17.694  14.713  14.333 -0.1344 -0.2438  0.0250
20875W        W41155   3.291  10.042   0.420 -0.0982  0.1282  0.1195
20876W        W41156   7.584   4.880  13.192 -0.0366  0.0149  0.2568
20877W        W41157  11.798   6.299  11.751  0.1272 -0.0719  0.1291
20878W        W41158  16.770  12.661  16.056  0.2589  0.1616  0.1798
20879W        W41159   7.513  10.532   3.710 -0.1089  0.1470 -0.1463
20880W        W41160  15.656  12.677  15.947 -0.3791  0.1262  0.0552
20881W        W41161  10.238  15.102   4.487 -0.2671 -0.1586  0.2979
20882W        W41162   4.086   2.510  14.644  0.1085  0.0106 -0.0243
20883W        W41163   1.083  15.642  16.585 -0.0502  0.0167  0.0402
20884W        W41164   2.613   4.489   1.841 -0.0358 -0.2307  0.0109
20885W        W41165  10.944  11.469   3.713 -0.0349 -0.0737  0.0898
20886W        W41166  17.270   8.524  12.818  0.0376  0.0809 -0.0399
20887W        W41167   0.075   2.167   3.416  0.0213 -0.0796 -0.1071
20888W        W41168   3.910   2.227   2.808  0.1271 -0.2404  0.0735
20889W        W41169   7.410   4.882   0.843 -0.1070 -0.0577 -0.1303
20890W        W41170   9.854  10.732   0.707  0.0885  0.0326  0.1072
20891W        W41171  12.452   1.015  14.248  0.1199 -0.1226  0.0485
20892W        W41172  10.624   6.124   4.612 -0.2882 -0.1109  0.0369
20893W        W41173  13.646   7.414   4.506  0.1112  0.2250  0.1362
20894W        W41174  15.719  15.920  16.187 -0.2753 -0.1918  0.0287
20895W        W41175   3.171  13.988   4.453  0.0674 -0.0757  0.1696
20896W        W41176   5.337   2.538  15.116  0.3644  0.1612 -0.1797
20897W        W41177  13.557  12.361  15.209  0.0174 -0.0231  0.0451
20898W        W41178   2.657   6.401  13.267  0.0211 -0.1157 -0.0242
20899W        W41179  13.459  10.384   3.856  0.0227  0.2527  0.1180
20900W        W41180   6.391   0.039  12.537 -0.0008  0.1226  0.2691
20901W        W41181   8.943   5.310  15.531 -0.2183 -0.0190 -0.1702
20902W        W41182  13.137   2.965  15.278  0.0938 -0.1136 -0.0234
20903W        W41183  11.559  14.625  13.424  0.0846 -0.1064  0.3976
20904W        W41184  12.016   6.044   3.412  0.1172 -0.3024 -0.1701
20905W        W41185   7.187   2.030   2.421 -0.1071  0.0957  0.0409
20906W        W41186   0.123   3.988  15.797 -0.0678 -0.0070 -0.0597
20907W        W41187   6.058  15.463  16.712 -0.0641 -0.2340 -0.1529
20908W        W41188  10.283  10.527   2.973 -0.0041 -0.0302  0.2239
20909W        W41189  10.574  10.096  13.169 -0.0642  0.1129  0.1740
20910W        W41190  16.086   5.343   4.400  0.1714 -0.0478  0.1236
20911W        W41191  17.072   5.024   3.823 -0.0926 -0.0051 -0.2139
20912W        W41192  14.546   6.678  16.573 -0.0485  0.1102 -0.0547
20913W        W41193   0.337  16.200  12.413 -0.2926  0.1667  0.0478
20914W        W41194  17.197   5.148   0.985 -0.0889  0.1222 -0.1837
20915W        W41195   4.223   6.240  14.016  0.0607 -0.1359  0.1825
20916W        W41196  11.114  15.952   4.029 -0.1693  0.2217 -0.0473
20917W        W41197  16.064   2.657  14.762 -0.1416 -0.0842 -0.0179
20918W        W41198   0.154   0.489   1.078 -0.1465 -0.1342 -0.2608
20919W        W41199   9.696   9.145  16.524  0.1539 -0.1745 -0.0823
20920W        W41200   0.740  10.925  13.990 -0.2006  0.0352  0.2475
20921W        W41201  10.563   4.084  10.747 -0.0257 -0.2692  0.0843
20922W        W41202   9.152   4.875  15.545 -0.1816 -0.2444  0.0735
20923W        W41203   5.055  16.094   1.196 -0.0336 -0.1100  0.0684
20924W        W41204  10.739  17.571  12.436 -0.1581 -0.2434 -0.1837
20925W        W41205  17.100  13.316   0.991  0.1602  0.3694 -0.1963
20926W        W41206   2.706  11.697  16.145  0.3148  0.1565  0.3707
20927W        W41207  11.971  13.284   2.658 -0.0830 -0.1421 -0.0595
20928W        W41208  17.554  10.530  16.008 -0.1317  0.1110  0.0225
20929W        W41209   4.927   6.732  12.083 -0.3134  0.0394  0.0723
20930W        W41210  10.538   8.105  13.083  0.0545  0.2181  0.1606
20931W        W41211   4.778   3.785   0.045 -0.0777 -0.1243  0.0353
20932W        W41212  17.113  11.613  13.701  0.3257 -0.0640  0.0007
20933W        W41213   9.686   0.518   0.527  0.2323  0.1725  0.1991
20934W        W41214   8.071   2.990  11.894 -0.1843 -0.0186 -0.1368
20935W        W41215   2.482  12.320   0.616  0.1203  0.0514 -0.0956
20936W        W41216  12.979  11.987   0.100 -0.0179  0.1531  0.2397
20937W        W41217   3.505   2.796   2.351  0.1372 -0.0612 -0.1270
20938W        W41218  14.814   3.777  15.331  0.1108 -0.1600  0.1371
20939W        W41219  11.634   0.309  15.843 -0.1232 -0.3223  0.1787
20940W        W41220  14.970   8.698  15.987  0.2867 -0.2171  0.2479
20941W        W41221   0.091   1.742  15.385  0.3708 -0.1804 -0.1087
20942W        W41222   7.919   9.414  16.278 -0.3639 -0.2076  0.2477
20943W        W41223   9.475   1.564  15.724  0.0491 -0.1779  0.1241
20944W        W41224   9.393   8.658  15.803  0.0235  0.1365 -0.0879
20945W        W41225  14.098  12.060   1.599 -0.0424  0.0529 -0.2117
20946W        W41226   6.648   5.789   2.109 -0.1612 -0.0348 -0.0943
20947W        W41227   6.424   8.726  14.333 -0.1010 -0.1428  0.0414
20948W        W41228   2.720  17.426  14.799  0.0425  0.0641 -0.3892
20949W        W41229   3.929   7.691  11.723 -0.0511  0.1865 -0.2408
20950W        W41230   6.375   6.242  16.774  0.1384 -0.1000 -0.2295
20951W        W41231  13.541   3.936   3.369 -0.1407  0.1875  0.0485
20952W        W41232  10.556  14.349  14.578 -0.0277  0.1227 -0.0596
20953W        W41233  10.144  13.857   4.377 -0.0021 -0.2959 -0.2065
20954W        W41234   2.482   3.917   4.817 -0.0247  0.3580 -0.0297
20955W        W41235  15.645   5.171   2.394  0.2921 -0.1057  0.2865
20956W        W41236  12.710  15.388   1.132  0.1220  0.2330  0.1605
20957W        W41237   2.555   8.700   0.115 -0.0585  0.0815 -0.1239
20958W        W41238   7.605   2.046  15.549 -0.0930  0.0260  0.2052
20959W        W41239   2.843   2.192  12.222  0.0862  0.0643  0.2064
20960W        W41240   4.354  16.727  16.508 -0.3675  0.1878  0.0488
20961W        W41241  15.943   5.248  16.545 -0.1013  0.1670  0.1485
20962W        W41242   8.461  10.483   0.676  0.1939 -0.0857  0.4051
20963W        W41243  17.381   1.336   1.691  0.2456 -0.1442  0.3729
20964W        W41244   5.282   1.411  13.544 -0.0126 -0.1262  0.0406
20965W        W41245  14.004   7.527  12.648  0.1160 -0.1627  0.0167
20966W        W41246  16.001  13.380  16.440  0.0279 -0.1960 -0.0103
20967W        W41247   9.754   2.729   4.478 -0.4101 -0.1407 -0.1646
20968W        W41248   0.349   6.456   3.108  0.2866 -0.0821  0.0213
20969W        W41249  10.194  17.393  14.451  0.0497  0.0818  0.1499
20970W        W41250  17.263   2.765  16.297 -0.1557  0.2279 -0.2978
20971W        W41251  15.659   6.956   4.857  0.1728 -0.1083  0.0715
20972W        W41252   9.564  14.218   2.363  0.3652  0.0342 -0.0897
20973W        W41253   6.029   4.658  14.597 -0.0450  0.1386  0.2058
20974W        W41254  11.412  17.086   1.153  0.2978 -0.2482 -0.0789
20975W        W41255   4.121  16.698   3.875 -0.0522  0.0664 -0.1196
20976W        W41256   5.707   3.538  16.093  0.0230 -0.0847 -0.0785
20977W        W41257   7.576   5.909   2.193  0.3156  0.0396  0.1404
20978W        W41258   9.559  11.924  14.855  0.3321 -0.3843  0.1088
20979W        W41259   4.973  13.410  15.506 -0.2109 -0.0896  0.1321
20980W        W41260  12.833  17.093   2.635 -0.3455  0.1019 -0.0231
20981W        W41261  12.430   2.954   1.372  0.1498  0.3079  0.0184
20982W        W41262  14.179  11.500   4.073  0.1413  0.0950 -0.0324
20983W        W41263   6.718  14.613  12.103 -0.0783  0.1110 -0.0626
20984W        W41264   4.044   5.732   4.197  0.2016  0.4975 -0.3599
20985W        W41265   5.972   2.661  13.264 -0.1234 -0.0067  0.0054
20986W        W41266   3.623   4.091  13.922  0.0537 -0.0902 -0.0205
20987W        W41267   6.588  12.685   4.168 -0.1895 -0.2646 -0.0456
20988W        W41268   5.946   1.702   4.116  0.1749  0.3870 -0.1419
20989W        W41269  14.837  13.259  12.180  0.1112 -0.2475  0.2564
20990W        W41270   2.968  10.210  16.357 -0.2060 -0.1161  0.1575
20991W        W41271   5.370   4.823   3.604  0.1676  0.1856 -0.1120
20992W        W41272   4.657  15.867   0.300 -0.0949  0.2591 -0.1882
20993W        W41273   3.955   1.291  16.284 -0.0633 -0.1023 -0.2871
20994W        W41274   7.902   8.908   0.528 -0.2341 -0.2027 -0.2954
20995W        W41275  10.424   4.973  11.445 -0.2937  0.1541  0.2813
20996W        W41276   0.332   8.496  14.276  0.0294 -0.0766  0.1381
20997W        W41277   1.682   2.172   1.376 -0.1599 -0.3585 -0.2330
20998W        W41278   2.440  17.650   2.748  0.2213  0.0002 -0.1196
20999W        W41279  16.193  13.527   0.957  0.0852 -0.2052 -0.2159
21000W        W41280   0.296  11.155   3.795  0.2461  0.0883  0.0875
21001W        W41281   4.177  14.385  14.896  0.2726  0.0372 -0.1003
21002W        W41282  17.611  10.295   3.301  0.3490  0.0126 -0.0008
21003W        W41283  16.750  14.924   2.295  0.1139 -0.0042 -0.0719
21004W        W41284  17.099   8.298  13.236 -0.4949  0.0982 -0.0948
21005W        W41285   3.713   3.931   1.199  0.2061  0.1932 -0.2276
21006W        W41286   7.225  16.346  15.758 -0.1104  0.0491  0.0066
21007W        W41287   9.476  16.260  12.434  0.1779  0.0828 -0.0769
21008W        W41288  14.744  10.551  13.947  0.0572  0.1119  0.1437
21009W        W41289  16.588   5.546  11.873  0.2117 -0.1742  0.1605
21010W        W41290  10.415   9.116  12.199  0.1343  0.1523  0.2154
21011W        W41291   3.817  17.707   2.819 -0.2261 -0.1417 -0.1342
21012W        W41292   6.693   3.199   0.772 -0.0132 -0.0995  0.0564
21013W        W41293   5.914  10.219  16.397 -0.0068  0.0135  0.0407
21014W        W41294  15.696  17.507  14.284 -0.4221  0.0826  0.1433
21015W        W41295  11.800   8.861   0.969  0.1197 -0.2346 -0.0397
21016W        W41296  17.107  10.898   2.555 -0.0991  0.1803 -0.0115
21017W        W41297  14.595  15.529   0.056 -0.2955  0.1229 -0.1696
21018W        W41298   3.103  16.122  14.840  0.4879  0.0599 -0.1525
21019W        W41299  10.911   7.988  14.366 -0.0837  0.1781 -0.0689
21020W        W41300  12.614   9.380   1.348  0.0206 -0.1288 -0.0748
21021W        W41301   9.038   1.943   3.619  0.1760 -0.0757 -0.1036
21022W        W41302  13.735   3.027   2.836  0.1346  0.1049  0.1854
21023W        W41303   1.202  12.561  14.500  0.4147  0.0796  0.2934
21024W        W41304  11.832   4.502   4.631  0.0420  0.0828  0.0537
21025W        W41305  10.641   8.972   2.284  0.1512  0.4228 -0.1635
21026W        W41306  14.459   1.182   0.045  0.0004 -0.0034 -0.5716
21027W        W41307   5.473   4.137  15.148  0.1119  0.0383  0.2792
21028W        W41308  14.778   9.055  13.639  0.1288 -0.1776  0.0055
21029W        W41309   1.111  17.376   0.293  0.1330 -0.0555  0.0852
21030W        W41310  12.969  13.992   5.210  0.0942 -0.1921 -0.1344
21031W        W41311  16.423  10.060  16.764 -0.2031  0.2259 -0.0596
21032W        W41312  17.479   0.079   0.406 -0.4644 -0.0395 -0.2165
21033W        W41313   7.651  17.626  16.001 -0.0069 -0.0277  0.0203
21034W        W41314   8.084   0.762  16.071 -0.0607  0.1136  0.0635
21035W        W41315  17.238  16.793  14.770  0.0738 -0.0586 -0.0081
21036W        W41316   7.718   7.884  13.185  0.2330 -0.3290  0.0052
21037W        W41317  16.812   1.141   1.641 -0.2448  0.2462 -0.0960
21038W        W41318  12.642  15.692   4.388  0.1441 -0.0690 -0.1162
21039W        W41319  11.266   0.678   0.495  0.0357 -0.0587 -0.1555
21040W        W41320  11.367  14.490   1.580 -0.0898  0.2828 -0.2237
21041W        W41321  14.495  10.541  12.934  0.1224 -0.2356 -0.1339
21042W        W41322  17.357  16.147   1.224  0.2170 -0.1329 -0.2279
21043W        W41323   1.952   0.216   4.180 -0.2980  0.2215 -0.2251
21044W        W41324   9.227   6.422  15.055  0.0465  0.1743  0.1091
21045W        W41325   0.635   8.056   3.211 -0.1438 -0.0388  0.0122
21046W        W41326  14.618  11.547  13.070  0.3847 -0.3183 -0.0398
21047W        W41327  12.601   7.102   1.537 -0.1403  0.3425  0.0111
21048W        W41328  13.078   9.644   3.486 -0.1200 -0.1968 -0.0443
21049W        W41329  10.586   8.322  14.268  0.0138  0.3068 -0.0297
21050W        W41330  11.981   6.763   1.567 -0.1231  0.1001 -0.1029
21051W        W41331   5.537   3.856   0.697 -0.0784  0.0321 -0.0180
21052W        W41332   3.442  13.834  12.574 -0.2791 -0.2449 -0.0746
21053W        W41333  10.328  12.234  14.772  0.1661  0.0930 -0.2217
21054W        W41334  16.018   6.374   0.842  0.0933 -0.2536 -0.4219
21055W        W41335   0.166  16.865   4.116  0.2403 -0.0068  0.2624
21056W        W41336   1.149   1.813   1.445 -0.2835 -0.2007 -0.1126
21057W        W41337   9.206   1.449   4.499  0.1645 -0.2940  0.0019
21058W        W41338   3.357  16.662  15.981 -0.0611 -0.1597  0.0745
21059W        W41339  11.900  11.116  15.176 -0.0838 -0.1567 -0.1552
21060W        W41340  12.796  13.838  13.148 -0.0712  0.1917  0.0579
21061W        W41341  14.611  12.699   4.215  0.0621 -0.3366 -0.3212
21062W        W41342  13.262  17.006   2.786 -0.2645 -0.0525  0.2262
21063W        W41343   2.920   6.819  12.495 -0.1042  0.1574 -0.0757
21064W        W41344  14.353  10.615   0.308  0.0232  0.0207  0.0329
21065W        W41345   7.076  16.976   0.982 -0.1808 -0.0674 -0.0563
21066W        W41346  13.606   7.907   1.128  0.1433 -0.0533  0.2078
21067W        W41347  10.124   8.869  12.994  0.2134 -0.0809 -0.0810
21068W        W41348   1.334  12.200   4.831  0.0146 -0.1372  0.1029
21069W        W41349   2.199   1.925   3.960  0.1539 -0.1258 -0.1073
21070W        W41350   6.013  13.217  12.039  0.0154 -0.1258 -0.1452
21071W        W41351   7.635  13.640   4.393  0.0775 -0.4076 -0.0575
21072W        W41352   7.689  10.742  12.106  0.1708  0.5035  0.0592
21073W        W41353   5.952   7.889   2.535  0.0513  0.0186  0.2159
21074W        W41354  14.543   3.085   4.037  0.2243 -0.1922 -0.1204
21075W        W41355  13.406  16.830   0.391 -0.0498 -0.0028  0.3298
21076W        W41356  10.024   0.091  12.701 -0.1563 -0.4608 -0.1102
21077W        W41357   1.367   2.014  16.150 -0.0772  0.1748  0.0245
21078W        W41358   6.854  16.235  16.809 -0.1167  0.0803 -0.2127
21079W        W41359   3.555   8.173  14.073 -0.1340  0.0348  0.0316
21080W        W41360   9.002   3.830   1.321  0.2519 -0.0184  0.0795
21081W        W41361   2.155  10.295   3.632  0.1621 -0.0274 -0.2042
21082W        W41362   2.761  12.212   1.899 -0.3117 -0.1333  0.0321
21083W        W41363   1.203   6.872  13.495  0.0951 -0.0701 -0.1174
21084W        W41364  11.269   3.398  13.695 -0.4224 -0.1856 -0.0571
21085W        W41365   6.011   4.083   3.056 -0.1868  0.1790  0.1771
21086W        W41366  16.301   3.100  12.733 -0.0684 -0.0537 -0.0272
21087W        W41367  12.552  10.143   2.362 -0.1717 -0.2053  0.0637
21088W        W41368   2.960   3.183   2.195 -0.2304 -0.1440 -0.1365
21089W        W41369   4.465   8.165   1.288  0.2910 -0.0253  0.1144
21090W        W41370  17.644  11.054  13.018 -0.1161 -0.0645 -0.1229
21091W        W41371   1.681   3.942   3.677 -0.2488  0.0278 -0.2781
21092W        W41372   1.198  11.291   4.897  0.1749 -0.0013 -0.0888
21093W        W41373  13.191   1.170  16.439  0.4343 -0.1835 -0.1741
21094W        W41374  10.107  16.307   0.635  0.1551  0.1249  0.3002
21095W        W41375   9.292   9.950  12.891  0.1542 -0.2090  0.2911
21096W        W41376   7.986   5.064   4.877  0.0326  0.0876 -0.2481
21097W        W41377   4.039   5.993  16.237  0.1803  0.0720 -0.1406
21098W        W41378  15.833   8.686   0.103  0.0096  0.1339 -0.1167
21099W        W41379  14.969  10.543   3.768  0.1366  0.1241  0.0727
21100W        W41380   0.356  16.392   1.226  0.0806 -0.3485  0.3457
21101W        W41381   7.158  15.892  16.584 -0.2793  0.1093  0.0583
21102W        W41382   3.855  13.791   3.440 -0.1059  0.1535  0.2067
21103W        W41383  13.856  11.697   3.620  0.1977  0.0107  0.1677
21104W        W41384   4.403  14.073  12.493  0.0992  0.1573  0.0568
21105W        W41385   2.165   2.018   2.238  0.1621 -0.0999  0.0141
21106W        W41386   4.968  14.364  13.575 -0.0239 -0.4298 -0.0333
21107W        W41387  15.408  10.212   3.749 -0.0215  0.2064  0.2118
21108W        W41388  11.519  13.105   4.975 -0.1326 -0.0017  0.2084
21109W        W41389   6.192  14.970   3.739 -0.2615  0.2710  0.1245
21110W        W41390   4.420   1.716   4.580  0.2262 -0.0550  0.2370
21111W        W41391  14.834  11.205   2.189  0.1572  0.2571  0.1736
21112W        W41392   0.522   3.350   1.813  0.0505 -0.2384  0.0528
21113W        W41393   5.856  13.357  15.184 -0.3009  0.0047 -0.0418
21114W        W41394  15.485   5.598  14.965 -0.2294  0.2590  0.2114
21115W        W41395  12.661   9.377  12.980  0.0325 -0.1755  0.2362
21116W        W41396   4.478   5.599  12.990  0.0405  0.1663 -0.0918
21117W        W41397   2.543  11.212  12.018 -0.0011 -0.1745 -0.0264
21118W        W41398   1.194  16.871   1.961  0.3333  0.2976 -0.0362
21119W        W41399   7.693  15.686  15.142 -0.1075 -0.1662 -0.1216
21120W        W41400   4.589   3.639  15.232  0.1034  0.0922  0.1054
21121W        W41401   4.612  13.600  15.834 -0.0225  0.0962  0.2142
21122W        W41402  12.567   7.318  16.834 -0.0640  0.0176  0.1662
21123W        W41403   0.451  17.075   3.275 -0.0318  0.0312 -0.1261
21124W        W41404   0.350  12.550  16.787 -0.0464  0.2369  0.1581
21125W        W41405   4.200  11.571  16.284  0.2707  0.0146 -0.2418
21126W        W41406   8.804  13.507  12.586 -0.1087 -0.2679 -0.3350
21127W        W41407  11.437   7.092   4.854 -0.3749 -0.1379 -0.1844
21128W        W41408  16.989  10.177   4.957 -0.0310 -0.1833  0.2329
21129W        W41409   2.114  14.837   2.761  0.0051 -0.4539 -0.1254
21130W        W41410   0.778   1.930   1.108 -0.1165  0.0642  0.1181
21131W        W41411  15.641  15.324   4.604  0.1073  0.1084  0.1922
21132W        W41412   3.359   3.376  12.439  0.2701  0.0177  0.1245
21133W        W41413   1.811   1.815  16.289  0.4035 -0.2922 -0.1193
21134W        W41414   5.350  11.940   1.111  0.3312 -0.0906 -0.0781
21135W        W41415   0.262  11.582  16.621 -0.1806 -0.2119  0.0056
21136W        W41416   2.639   3.264  15.915 -0.2098  0.1708 -0.0654
21137W        W41417  11.237   7.539   2.565  0.0111  0.1024  0.0197
21138W        W41418  16.419   0.824   1.055 -0.0671  0.3843 -0.1316
21139W        W41419  15.644  15.771  14.456  0.0713 -0.1401 -0.0156
21140W        W41420  13.204   5.803   2.933 -0.0177 -0.0694  0.0578
21141W        W41421   7.913   3.631  16.420  0.1534 -0.1510 -0.0663
21142W        W41422   0.163  11.420  15.599  0.3177  0.0319 -0.4487
21143W        W41423  17.214   2.555  14.333 -0.0040 -0.0497 -0.0505
21144W        W41424   0.209   8.931  14.011  0.1797 -0.1283 -0.2917
21145W        W41425  13.307   2.982  15.764 -0.1279  0.1550 -0.0752
21146W        W41426   6.516   1.230   2.946 -0.0922 -0.1051  0.1671
21147W        W41427  10.923  12.867  14.283 -0.0327 -0.1649  0.0416
21148W        W41428   0.018   6.101  11.865 -0.2917 -0.1162  0.2159
21149W        W41429   5.632   8.951   0.275 -0.0055  0.0318  0.3645
21150W        W41430   6.405  13.706   3.541 -0.1838 -0.1688 -0.0168
21151W        W41431  11.605  15.478  15.693 -0.1855  0.0905 -0.0028
21152W        W41432  17.023   6.235  14.725 -0.3641 -0.0924  0.0139
21153W        W41433   4.189   9.602   4.163 -0.1516  0.0614  0.2582
21154W        W41434  15.234  13.454   3.197  0.4347  0.1718 -0.2255
21155W        W41435   2.121  16.455   1.787 -0.0876 -0.1506  0.0276
21156W        W41436   1.498  16.964   2.316  0.1761 -0.0548 -0.3160
21157W        W41437   9.494   4.478   2.913  0.2464  0.2719 -0.2317
21158W        W41438  14.362   6.643  12.584  0.2496  0.1800 -0.0029
21159W        W41439  12.922  14.281  12.719  0.2477 -0.1189 -0.0084
21160W        W41440   4.201   2.076   3.246 -0.0853 -0.0200 -0.1654
21161W        W41441   0.724   0.458   3.632  0.0542 -0.3789 -0.1035
21162W        W41442   5.003  13.957  14.479  0.2641 -0.1396 -0.2459
21163W        W41443   3.778  13.881   1.448 -0.1036  0.0580 -0.2608
21164W        W41444   3.233   0.388   2.182  0.0033 -0.1558  0.1501
21165W        W41445  12.058  12.000   0.447  0.0195 -0.0907 -0.0758
21166W        W41446   6.109   8.800  16.296  0.3804 -0.1911  0.0826
21167W        W41447  13.515   4.719  13.977 -0.1323  0.2733  0.2283
21168W        W41448   5.612   7.986  12.179  0.2281 -0.0937  0.2309
21169W        W41449   1.038   0.738  15.484  0.1283 -0.1673  0.1198
21170W        W41450   0.919   6.760   3.907 -0.0577 -0.1077 -0.2287
21171W        W41451   6.496  14.116   2.160 -0.0424  0.1957 -0.3240
21172W        W41452   6.685   3.310  16.353 -0.0803  0.0289  0.1323
21173W        W41453  11.641   8.914  15.528 -0.0136  0.2368  0.0800
21174W        W41454  13.139  11.768   2.640  0.0329  0.0147 -0.1449
21175W        W41455  17.325  15.144   1.415  0.1244  0.1494  0.2259
21176W        W41456   9.034  13.865   0.970  0.0845  0.1868 -0.2843
21177W        W41457  11.099  14.671  14.212  0.0713  0.2551  0.0762
21178W        W41458   9.139   2.365   3.896  0.0937  0.0270 -0.0046
21179W        W41459   3.649  13.090   2.741 -0.2642 -0.0407  0.0833
21180W        W41460   4.088   4.503  16.640 -0.1204  0.0532  0.2634
21181W        W41461   4.949   8.107   1.270  0.2697  0.0331 -0.0295
21182W        W41462  13.126   2.725   4.596 -0.1327  0.5696 -0.3480
21183W        W41463   6.906  17.345  13.658  0.1716 -0.1757 -0.1414
21184W        W41464   0.552  15.234   3.743  0.1843  0.0339 -0.0130
21185W        W41465   6.889  16.137   1.970  0.2314  0.3191  0.0813
21186W        W41466   8.826  10.551  15.893 -0.1398  0.1029  0.3000
21187W        W41467   0.863  13.772  16.190 -0.1258  0.1635  0.3177
21188W        W41468  15.406  12.196  13.529 -0.1828  0.2596 -0.1278
21189W        W41469  13.148   5.169  15.988 -0.1531 -0.2992 -0.1626
21190W        W41470  16.712  15.097  14.564 -0.0109  0.0200  0.3321
21191W        W41471  10.986   6.595   1.197 -0.0013  0.2370  0.0220
21192W        W41472  15.502   6.971  13.275 -0.0196  0.0123 -0.2306
21193W        W41473   8.366   3.177  16.062 -0.3153  0.0706  0.3939
21194W        W41474   1.796  14.886   1.185 -0.0676 -0.0576 -0.1097
21195W        W41475   6.892  11.698   4.376 -0.2489  0.0117  0.2595
21196W        W41476   9.756   0.893  14.070 -0.1585  0.1898 -0.1421
21197W        W41477  13.980  12.407   4.783  0.1509  0.0078  0.0326
21198W        W41478  10.702  16.133  13.283  0.0297 -0.1036 -0.2296
21199W        W41479   7.846   0.639  13.918  0.0845  0.0269  0.0551
21200W        W41480   6.412  15.920  14.733 -0.0527  0.0283  0.0089
21201W        W41481   0.222   9.022  13.511  0.0488 -0.1149  0.2301
21202W        W41482   0.390  14.933   4.531 -0.1210 -0.1188 -0.0828
21203W        W41483   8.187  15.346  13.466  0.0463 -0.2935 -0.1284
21204W        W41484   7.652   1.898  14.533  0.1869  0.1881 -0.2116
21205W        W41485   6.466   5.114  15.633 -0.2355 -0.2103 -0.0343
21206W        W41486   8.320  17.112   3.064 -0.0177  0.0733 -0.0134
21207W        W41487  17.363   8.838   3.088  0.0078  0.0921 -0.0861
21208W        W41488  10.269  14.571  15.864 -0.0826 -0.2178 -0.2290
21209W        W41489   9.030   5.169  15.021 -0.0539 -0.1826  0.2632
21210W        W41490  14.207  15.684  16.622  0.1145 -0.1533 -0.2587
21211W        W41491   2.556   2.182   1.424  0.0141 -0.2310  0.0693
21212W        W41492   3.964   0.909   0.420  0.0596  0.1217  0.1404
21213W        W41493  14.160  13.495  15.097 -0.0801 -0.2938  0.0434
21214W        W41494  14.914   0.295  13.116 -0.1429 -0.1763  0.2342
21215W        W41495   8.938   1.013   1.480  0.0504 -0.1442 -0.1088
21216W        W41496   2.703  16.251  14.059  0.0655  0.2640  0.0353
21217W        W41497   0.823   8.738   5.825  0.1256  0.0870 -0.2192
21218W        W41498  12.904   9.416  14.060  0.2855  0.1135 -0.1155
21219W        W41499   2.961   3.989  16.871  0.1099 -0.1574 -0.2542
21220W        W41500   9.411  12.442  12.976 -0.1467 -0.0898 -0.0224
21221W        W41501   9.608   2.791   3.471 -0.0652 -0.2216 -0.0037
21222W        W41502  15.281   0.215   3.454 -0.0261  0.1528  0.2194
21223W        W41503   9.317  16.560  12.782 -0.0911 -0.1451  0.0108
21224W        W41504   0.852   1.317  12.918 -0.1763 -0.2402 -0.0310
21225W        W41505   1.693  15.483   1.951 -0.0408 -0.0756 -0.1137
21226W        W41506  14.022  10.886   6.258 -0.1717 -0.0650 -0.0788
21227W        W41507   2.436  14.708   0.504  0.0416 -0.0364  0.0452
21228W        W41508  13.901   3.461  13.247  0.1091  0.1931  0.1800
21229W        W41509  12.484  11.591  12.618  0.3397  0.3225  0.2484
21230W        W41510   1.172   3.577   1.651 -0.0295  0.1076 -0.0171
21231W        W41511  12.659  14.879   4.193 -0.0048  0.0906 -0.0044
21232W        W41512  16.028  17.206   1.590 -0.1696  0.2100 -0.1087
21233W        W41513   3.604  14.152   3.710  0.1418 -0.0199 -0.1707
21234W        W41514   5.487  15.449   0.144  0.0693  0.0326 -0.1650
21235W        W41515  11.642   7.259   3.741 -0.1129  0.1735 -0.4138
21236W        W41516  10.094  10.172  13.111 -0.2607  0.0512  0.0857
21237W        W41517  15.901   7.338   3.212  0.1271  0.0190 -0.2567
21238W        W41518   1.101   7.323  14.943 -0.0646  0.2779  0.0491
21239W        W41519  12.496   5.602  13.953  0.1198  0.1235 -0.0995
21240W        W41520  11.673  10.929   0.676 -0.1247 -0.0852  0.2159
21241W        W41521  14.003   1.057   0.265 -0.0678 -0.0022 -0.1956
21242W        W41522  14.850   7.484   0.999  0.0473  0.0493 -0.0363
21243W        W41523  11.894   4.895  12.108  0.0747  0.1406  0.0876
21244W        W41524   5.722   0.521   4.700  0.0316  0.0845  0.0185
21245W        W41525  10.074  13.082  16.436  0.0572 -0.1140 -0.0443
21246W        W41526  16.376   9.810  14.544 -0.0285 -0.0420  0.0997
21247W        W41527   6.186  13.516  14.222  0.3404  0.0932  0.4001
21248W        W41528  15.055   1.520  11.939  0.1277  0.0224  0.0591
21249W        W41529   4.486  12.318  13.678 -0.1205  0.0831  0.0948
21250W        W41530   1.651  10.136  13.232  0.0052  0.1816 -0.1656
21251W        W41531  12.230   0.321   2.760 -0.1555  0.2656 -0.1801
21252W        W41532  11.836  13.965   3.156 -0.0504 -0.0771 -0.0821
21253W        W41533  10.418   0.786   4.929  0.0470 -0.1722  0.0219
21254W        W41534   3.400  16.526  14.627 -0.2847 -0.3849  0.3593
21255W        W41535   2.755   9.964   1.163  0.1389 -0.1699 -0.0862
21256W        W41536   3.792  16.854  12.296 -0.1787  0.0825 -0.1241
21257W        W41537   1.024   4.309  11.590 -0.1772  0.1003  0.1977
21258W        W41538   4.197   7.990   2.123  0.1727 -0.3515  0.0345
21259W        W41539   4.893  14.117   0.866  0.0384  0.2186  0.1121
21260W        W41540  17.054   5.841  16.438  0.0259  0.0435 -0.1550
21261W        W41541   1.859   3.232  16.251 -0.0766 -0.2489  0.0682
21262W        W41542  10.569  11.246  13.525 -0.2756 -0.0794  0.2377
21263W        W41543  16.165  11.121  13.838  0.0612 -0.1652 -0.0035
21264W        W41544   8.107   6.141   4.161  0.2659  0.1473 -0.0105
21265W        W41545   7.538   5.157  15.870  0.1201  0.0135 -0.0132
21266W        W41546  17.267  14.270  13.541 -0.1008  0.1475  0.3751
21267W        W41547  12.856   5.899  14.083 -0.0313 -0.0376 -0.1387
21268W        W41548  12.214   4.029  13.459  0.0697  0.2181 -0.0764
21269W        W41549  16.180  11.945   2.689  0.0820  0.0623  0.1349
21270W        W41550  17.444  11.624   0.550  0.0856 -0.2666  0.3334
21271W        W41551   6.286   5.520   0.645  0.1748  0.0575 -0.0705
21272W        W41552  11.403   4.380  13.533 -0.1246 -0.0577 -0.0904
21273W        W41553  12.474   0.032  12.636  0.0253  0.0448  0.1839
21274W        W41554   6.172   9.315  16.382  0.1390  0.2325 -0.0710
21275W        W41555   4.360  15.939   3.428  0.1911 -0.2875 -0.0360
21276W        W41556   5.639   6.144   0.096  0.0305 -0.2497 -0.1062
21277W        W41557   8.982  15.257  13.171 -0.2733 -0.2276  0.2520
21278W        W41558  17.560   4.030  12.942 -0.2490  0.1058 -0.0252
21279W        W41559  16.098  16.400   4.017  0.1864 -0.2808  0.0333
21280W        W41560  17.575   4.507  14.340 -0.2230  0.1701  0.1725
21281W        W41561  10.268   5.692  16.616 -0.2260  0.0131 -0.1355
21282W        W41562  14.311   0.530   0.019  0.0777  0.0726 -0.1532
21283W        W41563   3.569   1.970  13.407  0.0593 -0.0888 -0.1577
21284W        W41564  15.594   0.524   3.713 -0.2216  0.3897  0.0741
21285W        W41565   2.707   2.203  13.213 -0.0309 -0.0806  0.0645
21286W        W41566  10.209   4.948   2.182  0.2464  0.3013  0.1018
21287W        W41567   3.362  14.800   4.813  0.1676  0.2022 -0.0026
21288W        W41568  11.126  11.820   2.794  0.2106  0.0549 -0.1681
21289W        W41569   0.465  11.210   4.646 -0.1302  0.2173 -0.1168
21290W        W41570   2.908   9.566  12.030 -0.0686  0.0540 -0.0756
21291W        W41571  12.835   1.320   2.576  0.0225  0.0128  0.2030
21292W        W41572  15.639   4.705   2.702 -0.0738  0.0076 -0.0430
21293W        W41573  12.641   9.032  16.008 -0.2844 -0.1772  0.1888
21294W        W41574   5.633   1.986   2.220 -0.1040  0.3284  0.0343
21295W        W41575   8.158   0.150   1.277 -0.0512  0.0442 -0.0824
21296W        W41576  12.857   7.216   2.354  0.1284  0.0899  0.1824
21297W        W41577  10.374   8.248   2.702  0.0393 -0.1103 -0.1670
21298W        W41578   1.348   4.522  16.083 -0.0925 -0.0323  0.1993
21299W        W41579   2.241  17.600  15.652 -0.1592 -0.1104  0.0055
21300W        W41580   6.508   3.057   4.064 -0.1460 -0.1394 -0.0598
21301W        W41581  13.861  12.164  15.645  0.1846 -0.0684 -0.0906
21302W        W41582   8.431  15.021   1.572  0.0020  0.2054 -0.0727
21303W        W41583   2.765   7.545   4.698  0.0679 -0.2747  0.1634
21304W        W41584   4.899  17.667  14.572  0.4454  0.0070  0.2803
21305W        W41585   3.493  10.659   4.587 -0.0490 -0.0413  0.0259
21306W        W41586   1.323  14.444  15.811  0.2541  0.0610 -0.0031
21307W        W41587  14.667  11.143   5.032 -0.1278  0.0721  0.0827
21308W        W41588  11.783   5.140  14.578  0.1823 -0.0926  0.2192
21309W        W41589   4.586   7.941   4.319  0.1589 -0.0822 -0.1062
21310W        W41590   4.075   2.896   4.491  0.1359  0.2070  0.0954
21311W        W41591  15.528   4.765  12.900 -0.1086  0.3344 -0.1734
21312W        W41592  12.147  16.115   3.744 -0.0792  0.0206  0.1667
21313W        W41593   0.702  13.287   2.058  0.0437 -0.1802 -0.1328
21314W        W41594  12.139   7.832   2.670 -0.0465 -0.0866 -0.0566
21315W        W41595   8.926   0.519   1.552 -0.1327  0.1489  0.2403
21316W        W41596   7.886   1.833   3.005 -0.1784  0.1092 -0.1768
21317W        W41597   2.495   9.574  13.755 -0.0543  0.3737 -0.2039
21318W        W41598  15.917   5.857   3.553 -0.0506  0.0502  0.1772
21319W        W41599   3.929  16.011  12.541  0.1867 -0.1799 -0.3706
21320W        W41600   8.179  15.630  12.564  0.1393  0.2135 -0.0135
21321W        W41601  13.892  12.220   0.668  0.1844 -0.0153  0.0031
21322W        W41602  13.073   9.165   1.111 -0.1734  0.2992  0.0414
21323W        W41603  10.146  11.628  13.331  0.2452 -0.0826 -0.2911
21324W        W41604   1.789  16.173  13.383  0.1019  0.1965  0.0742
21325W        W41605   6.497   8.324   2.926  0.0623 -0.1707  0.0452
21326W        W41606   5.374   8.428   1.257 -0.2025 -0.0982 -0.1406
21327W        W41607   2.829   8.404   1.494 -0.0260  0.0289 -0.1391
21328W        W41608   2.155   0.534   3.241 -0.1128  0.1574  0.2350
21329W        W41609   6.647   9.886   2.820 -0.2098  0.0392  0.3401
21330W        W41610   9.698   6.216  12.886  0.3271  0.2397  0.0794
21331W        W41611  12.288  11.098   5.088  0.3835  0.1579 -0.0876
21332W        W41612   1.501  14.074   4.885 -0.0594  0.1844  0.1735
21333W        W41613  12.201  13.066  12.103  0.0169 -0.0763 -0.0108
21334W        W41614   3.419   5.902   3.515  0.0288  0.2231 -0.1834
21335W        W41615  14.172   9.887   4.888 -0.2944 -0.0434 -0.1602
21336W        W41616  16.602  13.998   1.776  0.0577  0.0810 -0.1100
21337W        W41617   0.460  12.416  11.442  0.1657  0.4508  0.1474
21338W        W41618   2.022   9.518   3.946 -0.1171 -0.4449 -0.0669
21339W        W41619   6.603  13.578   2.631 -0.0816  0.0623 -0.0340
21340W        W41620  10.249  15.407  15.505 -0.0740  0.1264 -0.1852
21341W        W41621   9.089   2.201  13.869 -0.2007 -0.4134 -0.1218
21342W        W41622  10.972  13.880  15.248 -0.0128  0.2628 -0.2730
21343W        W41623   0.195  13.088   3.532  0.1078 -0.0043 -0.0111
21344W        W41624   2.430  16.034   4.035 -0.0952  0.0395 -0.1338
21345W        W41625  16.564  15.694   1.538 -0.1040 -0.0915  0.2815
21346W        W41626  16.710   0.085  16.099  0.1599 -0.0170  0.1115
21347W        W41627  14.797   2.138   2.105 -0.0378 -0.0845 -0.0400
21348W        W41628   0.267   5.735   2.397 -0.1657  0.1055 -0.1286
21349W        W41629  14.445  14.672   1.324 -0.3216 -0.0352 -0.0983
21350W        W41630  13.702  14.638   2.749 -0.0735  0.1032 -0.3794
21351W        W41631   5.095  12.655   2.538 -0.0657  0.0593 -0.0641
21352W        W41632   4.978  17.328   4.782 -0.0096  0.0371 -0.3567
21353W        W41633   3.012  10.907   2.392 -0.3042  0.3238 -0.0085
21354W        W41634   7.188  11.590   2.099  0.3012 -0.1943  0.3662
21355W        W41635   2.687  13.153   2.197  0.0554  0.0411  0.0008
21356W        W41636   5.511   0.471   4.258  0.1169 -0.1970  0.1510
21357W        W41637   8.008  11.793  14.725 -0.0589  0.0173  0.2113
21358W        W41638   5.721  17.152   4.269 -0.1217  0.2154 -0.4343
21359W        W41639   1.811  15.161  13.099 -0.4165 -0.0876 -0.0400
21360W        W41640   6.072   0.946  13.567  0.0928 -0.2029 -0.1647
21361W        W41641   4.679  12.262   0.279  0.3905  0.0707 -0.1925
21362W        W41642  14.256  14.871  16.048  0.1425  0.0982 -0.2751
21363W        W41643   3.191  16.806  15.522  0.1618  0.3080  0.2115
21364W        W41644   5.454   9.611  16.526 -0.0131 -0.0899 -0.1281
21365W        W41645   8.713   9.614   2.726  0.0624  0.1830 -0.0616
21366W        W41646  10.507  11.584  13.966  0.0270 -0.0118 -0.1707
21367W        W41647  11.221  16.123   2.392 -0.0630 -0.3258 -0.1584
21368W        W41648   8.138   7.857  14.203 -0.0270 -0.1054  0.2120
21369W        W41649  17.573  10.267  13.353 -0.0530  0.1353 -0.1879
21370W        W41650  14.662  14.407  12.596  0.0390 -0.2781  0.0963
21371W        W41651   5.220  16.624  13.460  0.2421  0.0293  0.0364
21372W        W41652   5.882   4.541   3.800  0.2684  0.1362  0.1984
21373W        W41653  17.057   4.966  12.253 -0.0974  0.0034 -0.0368
21374W        W41654  12.921  16.730   3.010  0.0366 -0.3010  0.1827
21375W        W41655   1.208   6.198   1.491  0.2692  0.0114  0.1232
21376W        W41656   8.232   3.373  12.180  0.2177 -0.1802  0.1274
21377W        W41657   3.382  12.272  12.264  0.1316  0.0242 -0.1585
21378W        W41658  11.023  10.109  13.448 -0.2120  0.0115  0.0033
21379W        W41659   3.827  15.052   0.730  0.0158 -0.2140  0.0307
21380W        W41660  17.163  12.762  16.373 -0.0036 -0.1472 -0.1068
21381W        W41661   0.991  11.337  15.647 -0.2402  0.0368  0.0005
21382W        W41662   4.682   2.646  13.909 -0.0233  0.1206  0.0504
21383W        W41663  11.169   9.485   0.846 -0.1581  0.2269 -0.0468
21384W        W41664  15.439   9.614   4.601  0.0303  0.0759 -0.4831
21385W        W41665   0.329   5.709  15.327 -0.1444  0.0968 -0.0375
21386W        W41666   5.965   3.637   2.878  0.2686 -0.1602 -0.0204
21387W        W41667   6.982   8.256   1.279 -0.0853  0.0163 -0.3655
21388W        W41668  13.557  14.683   1.686  0.1239 -0.0207 -0.0512
21389W        W41669   3.930  11.711  13.639  0.3739  0.0573 -0.0028
21390W        W41670   2.523   0.157   3.278  0.1032  0.0781  0.2560
21391W        W41671  17.224   8.854   4.312 -0.1084 -0.0455 -0.0480
21392W        W41672  17.150   4.365   3.970 -0.2192 -0.1469  0.0078
21393W        W41673  13.867  12.169  13.894 -0.2429 -0.0202 -0.0643
21394W        W41674   0.925   3.871  16.670  0.0916  0.4441  0.1374
21395W        W41675   7.115   9.902   2.552 -0.1144  0.1341 -0.1972
21396W        W41676   9.768   1.279   2.089  0.0190 -0.0989 -0.0413
21397W        W41677   0.839   2.766   0.709 -0.0506 -0.0990  0.1949
21398W        W41678   2.717   7.238  15.813 -0.1005 -0.0864 -0.2753
21399W        W41679   0.850  12.393   2.322 -0.2846 -0.0434 -0.0488
21400W        W41680   4.040   4.941   3.110  0.1382 -0.0749 -0.0347
21401W        W41681   1.087   7.655  14.179 -0.1442 -0.1499  0.1539
21402W        W41682  16.709  10.087  12.752 -0.0090 -0.1132  0.0528
21403W        W41683   5.129   9.719   3.891  0.0447  0.0832  0.0134
21404W        W41684   1.708  10.319   1.765 -0.0699 -0.0382  0.1103
21405W        W41685  14.300  17.704   3.427  0.0891 -0.1863 -0.0265
21406W        W41686   4.763  11.250   3.433 -0.0183  0.2545  0.1477
21407W        W41687   0.413  15.567   3.412  0.0200 -0.0927  0.3152
21408W        W41688  17.329  11.513   4.760  0.1627  0.0243 -0.2598
21409W        W41689  10.598  11.886   0.484  0.1093 -0.3347  0.0072
21410W        W41690   9.879   9.925  12.251  0.0401  0.1326 -0.2082
21411W        W41691  15.873   3.958  13.211  0.2856 -0.1469 -0.5720
21412W        W41692   8.013  16.925   0.226  0.1839 -0.1620 -0.1267
21413W        W41693  11.012   3.823   1.873  0.0135 -0.0719  0.1383
21414W        W41694  15.202  13.047   1.445  0.2430  0.0504  0.0955
21415W        W41695   4.224   7.758  13.041 -0.2304 -0.1593  0.0786
21416W        W41696  15.385   5.603   0.001 -0.0228  0.1829 -0.3163
21417W        W41697   0.557   0.838  14.965  0.1696 -0.3646  0.1113
21418W        W41698  10.814   3.616   3.560  0.3100  0.1600  0.0156
21419W        W41699  12.819  15.714   2.530  0.1669 -0.1309 -0.0066
21420W        W41700   1.693   0.080  14.858  0.0409 -0.0604 -0.2847
21421W        W41701   8.991   2.165  16.669 -0.2595 -0.1832  0.1997
21422W        W41702  14.027  12.744   4.377  0.0436 -0.0677  0.0599
21423W        W41703   1.105  12.587  13.197  0.1006 -0.1862 -0.1767
21424W        W41704  11.880   8.655  16.475  0.0467  0.0782 -0.0298
21425W        W41705  12.574   1.715   3.020  0.0642 -0.0689  0.1688
21426W        W41706  15.510   0.599  14.263 -0.0242 -0.0179  0.1801
21427W        W41707   4.648  16.353   2.229 -0.1182  0.0315  0.0035
21428W        W41708   2.908   4.231  13.515  0.2256 -0.0031  0.0214
21429W        W41709  16.498  17.712  12.667 -0.3393  0.2795 -0.0511
21430W        W41710   3.278   3.431   3.836 -0.0039  0.0201 -0.0918
21431W        W41711  16.961   1.743  14.807  0.1210  0.1086 -0.1166
21432W        W41712  15.765  13.734   2.441  0.0173  0.1161  0.1999
21433W        W41713  14.006   2.502  11.402  0.0832 -0.2403  0.0567
21434W        W41714   1.624  15.849  14.937  0.2977 -0.0783  0.1659
21435W        W41715  14.472  11.192  12.200  0.1339 -0.0936  0.1080
21436W        W41716  12.950   3.984   5.340 -0.1128 -0.1585 -0.1506
21437W        W41717  10.451   9.105  13.410 -0.1954  0.2346  0.1474
21438W        W41718   5.469  17.016   1.128 -0.2952 -0.0261 -0.0666
21439W        W41719   4.821  16.506   0.939  0.0296 -0.0772  0.0867
21440W        W41720  11.592   1.082  14.625  0.2269 -0.0637 -0.2887
21441W        W41721   7.766   9.204  13.698 -0.3726  0.0998  0.0029
21442W        W41722  16.150   4.691   4.629  0.2425 -0.2877  0.0843
21443W        W41723  16.440   2.206   4.197  0.1845 -0.0921 -0.0619
21444W        W41724  10.224   6.459   3.885 -0.0194 -0.1777  0.2257
21445W        W41725   8.227   6.490   2.449  0.0437  0.0189  0.0758
21446W        W41726  17.149   9.321   4.534  0.0195 -0.3104 -0.0797
21447W        W41727   8.649   6.696   4.582  0.1032 -0.0085 -0.1785
21448W        W41728   9.935  14.323   4.340  0.2808 -0.0061  0.1547
21449W        W41729  15.493   9.396   1.776 -0.2349 -0.0532  0.2571
21450W        W41730   1.104   6.358  15.701 -0.0790  0.0556 -0.0049
21451W        W41731   6.344   2.613   1.724  0.1853  0.1007 -0.1906
21452W        W41732   2.517  15.723  14.023 -0.3347 -0.0679 -0.1174
21453W        W41733   3.369   0.644   1.128 -0.2311  0.1323  0.0472
21454W        W41734  15.329   3.406  15.704 -0.4348  0.1039  0.1890
21455W        W41735  13.202   8.643  14.624 -0.1029 -0.2465  0.2167
21456W        W41736   3.498   6.869   0.259  0.0847 -0.1512  0.0966
21457W        W41737   2.513   9.072  13.827 -0.3813 -0.0211 -0.1714
21458W        W41738   0.447   6.047  16.105 -0.0558  0.0019 -0.2551
21459W        W41739   9.731   6.357   1.519 -0.0389  0.1939  0.0886
21460W        W41740   6.629   4.892  12.683  0.0595  0.3275 -0.0241
21461W        W41741  12.330  17.044  12.565 -0.2208  0.0456 -0.1654
21462W        W41742   6.707   7.766  16.491  0.0948 -0.3138  0.1385
21463W        W41743  11.264  10.174   0.472 -0.1085  0.2440 -0.3449
21464W        W41744   2.096  16.183  15.111  0.4366 -0.3654  0.1952
21465W        W41745  17.132  14.232  14.325  0.0862  0.0166  0.0679
21466W        W41746   2.230   0.534   3.942 -0.1991  0.4050  0.0313
21467W        W41747  16.355  10.523  16.543  0.2319 -0.2010 -0.1392
21468W        W41748  13.214   8.227  11.196  0.1240 -0.3319 -0.0658
21469W        W41749   9.427  17.586  15.521 -0.0574  0.4000 -0.2081
21470W        W41750   7.699  12.356   1.783 -0.0705  0.2054 -0.0027
21471W        W41751  12.698   8.472   0.874 -0.0424  0.3146  0.0853
21472W        W41752   2.308   3.188   3.091  0.1896 -0.0447  0.0601
21473W        W41753   1.438  13.355   0.232  0.0581 -0.0797  0.0110
21474W        W41754  14.970   5.410  11.252 -0.0735 -0.0109 -0.0179
21475W        W41755   6.497  15.038  15.692 -0.0662  0.2870 -0.1438
21476W        W41756   5.596   0.149   3.857 -0.1838 -0.0225  0.1336
21477W        W41757   7.016  15.404   2.446  0.1599 -0.0653  0.4686
21478W        W41758   8.864   5.369  13.740 -0.0038  0.0592  0.0447
21479W        W41759   0.639   4.281   2.819  0.3874 -0.2637 -0.2794
21480W        W41760   4.889  17.716  13.683 -0.0758 -0.1219  0.2351
21481W        W41761   1.707  11.139  12.290 -0.0688 -0.1987  0.0092
21482W        W41762   7.985   8.834  13.985  0.3218  0.0637 -0.2330
21483W        W41763   5.333  13.265  15.181  0.0490  0.0784 -0.2602
21484W        W41764   4.390  14.497   3.133 -0.3898  0.0342  0.2058
21485W        W41765  16.281   5.810  14.317 -0.0596 -0.0889  0.1756
21486W        W41766   5.097  14.514  14.595  0.1102  0.0483 -0.0460
21487W        W41767  15.387  14.365  13.770 -0.1298  0.2265  0.2636
21488W        W41768   1.068  10.278   3.418 -0.5387 -0.0881 -0.2615
21489W        W41769  14.898   4.307  13.458 -0.0201  0.3389  0.2591
21490W        W41770   6.698  16.285  15.839 -0.0107 -0.0274  0.2383
21491W        W41771  12.714   7.665   1.337 -0.0336  0.1516  0.0005
21492W        W41772   5.589   6.775  15.671 -0.0801  0.0251 -0.1872
21493W        W41773   8.918   7.572  12.715  0.4634 -0.2550 -0.1325
21494W        W41774  11.062   5.751  16.009  0.2152 -0.0489  0.0725
21495W        W41775  10.914  13.490   4.462  0.1951  0.2452 -0.0443
21496W        W41776  12.531  15.570  16.645 -0.0021 -0.0129 -0.0650
21497W        W41777  10.472  16.332  16.525  0.0056  0.0389  0.0353
21498W        W41778  12.889  13.511  13.527 -0.0557  0.0268  0.2390
21499W        W41779   1.719  10.753   0.583 -0.0745 -0.1797 -0.3482
21500W        W41780  16.681  13.345  14.426  0.0300  0.2495 -0.0556
21501W        W41781   0.536   8.914  15.130  0.3006  0.0526 -0.1329
21502W        W41782  11.165   6.822   0.785  0.1968 -0.1990 -0.1161
21503W        W41783   1.228   8.217  14.868  0.4146 -0.0537  0.0251
21504W        W41784  10.326  14.227  12.135 -0.3313  0.0877 -0.1434
21505W        W41785   5.593  17.629   4.350 -0.0061 -0.0013  0.1759
21506W        W41786   6.047   6.659   2.203 -0.2009  0.1671  0.2048
21507W        W41787   0.937   2.100  14.665  0.1164  0.1174  0.1433
21508W        W41788   2.357  13.826  13.978 -0.2279 -0.0985 -0.3714
21509W        W41789  15.848  13.531   1.488  0.1283 -0.0110  0.0889
21510W        W41790  12.469   3.585  13.076 -0.0707  0.1962  0.0524
21511W        W41791  12.572  13.764   0.813  0.0658 -0.0477  0.0381
21512W        W41792  11.794   8.906  13.608 -0.0741  0.1204  0.0017
21513W        W41793   0.619   9.872   1.743  0.1928  0.1391 -0.1447
21514W        W41794   4.517   4.082  14.971 -0.2554  0.3759 -0.0536
21515W        W41795   5.358  15.497   2.500 -0.0673 -0.1219 -0.2349
21516W        W41796   5.823   1.518  15.398  0.2856 -0.0803 -0.0730
21517W        W41797  17.331  13.837  12.724 -0.1182  0.1255 -0.0731
21518W        W41798   1.191   0.164  14.820 -0.0832  0.1658  0.1067
21519W        W41799   6.338   4.304   3.343  0.0574 -0.0487 -0.2277
21520W        W41800   6.574  13.944   0.770 -0.2665  0.1358  0.2470
21521W        W41801  12.463   1.843  12.364 -0.1000 -0.0254  0.0509
21522W        W41802   0.064   7.577   4.938  0.1472  0.1790 -0.2328
21523W        W41803   9.099   5.842   4.388 -0.1252 -0.0573  0.1478
21524W        W41804   9.045  10.058  14.986  0.1291  0.0126 -0.1263
21525W        W41805   1.237  10.739   3.589 -0.2869 -0.0820 -0.2730
21526W        W41806   9.568  17.671  12.797 -0.1564 -0.3648 -0.0190
21527W        W41807  10.283  11.517   2.811  0.0322 -0.3291 -0.2822
21528W        W41808  16.635   1.846  12.855  0.0905 -0.0575  0.0992
21529W        W41809   8.758   5.414   1.864 -0.0774 -0.1200  0.1176
21530W        W41810   6.629   0.265   2.285  0.0995  0.0856  0.1592
21531W        W41811  13.532  14.472   1.165  0.0099 -0.0665  0.0161
21532W        W41812   7.457  11.265   4.741 -0.1866  0.2484  0.1165
21533W        W41813   4.955   1.502  14.943 -0.1743 -0.1716  0.1563
21534W        W41814   1.402   6.397   4.595 -0.1544 -0.2814 -0.3411
21535W        W41815   1.261   1.432  15.619 -0.1994 -0.0404 -0.0629
21536W        W41816   2.182   5.608  12.928 -0.0117  0.3280 -0.0118
21537W        W41817   6.674   0.054  15.099 -0.2031  0.0501  0.0871
21538W        W41818  12.222   2.838  16.394 -0.3687 -0.2575  0.3006
21539W        W41819  17.184   5.632   1.031  0.0409 -0.0907 -0.0664
21540W        W41820  10.801  12.276   1.207  0.2108  0.1041 -0.0783
21541W        W41821   5.954  16.193   1.295 -0.1919 -0.1765  0.0253
21542W        W41822   5.685  11.357   3.159  0.0021  0.0116  0.5269
21543W        W41823  10.192  14.835  14.440 -0.0696  0.3486  0.0858
21544W        W41824  14.622   5.039   2.379 -0.0931 -0.2500 -0.0610
21545W        W41825  12.294  10.306  13.613  0.0468 -0.2630 -0.1548
21546W        W41826   7.445  10.048  12.457  0.2707  0.0831  0.3222
21547W        W41827  12.358  11.633  14.392  0.1300  0.2121  0.2678
21548W        W41828  12.103  16.693   4.274  0.0778  0.1644  0.1678
21549W        W41829  11.489   5.362   0.062  0.2039 -0.0232  0.0978
21550W        W41830  15.674  12.454  12.412  0.2641 -0.3099 -0.1386
21551W        W41831   4.739  10.178   4.346 -0.1816  0.1867 -0.0301
21552W        W41832  12.931  13.028  14.489 -0.1102 -0.0625  0.2260
21553W        W41833   6.471  11.440   2.467 -0.1084  0.1631 -0.0386
21554W        W41834  16.391   4.627   0.090 -0.1924  0.1352  0.0186
21555W        W41835   7.448   7.152   2.760  0.2419  0.2067 -0.0104
21556W        W41836  14.930   4.672   2.208  0.1793  0.0355 -0.2512
21557W        W41837  12.783   4.874   1.283  0.0787 -0.0569  0.2310
21558W        W41838  16.597   5.699  16.376 -0.2583 -0.0075  0.0740
21559W        W41839  12.415  14.030   3.966  0.0730  0.2198  0.1480
21560W        W41840   3.327  12.657   0.890 -0.0652  0.1272 -0.0960
21561W        W41841   3.569  15.090  14.841  0.1368 -0.2849  0.1289
21562W        W41842  12.112   0.780   1.575  0.1013  0.2653 -0.0908
21563W        W41843   2.665   6.567   0.609 -0.3001  0.0520  0.1808
21564W        W41844  10.772  10.008   3.696 -0.1049 -0.0900  0.1083
21565W        W41845   9.916  15.327   2.313  0.1277 -0.1330  0.0648
21566W        W41846  10.968  17.603  16.501  0.0635 -0.2174 -0.2188
21567W        W41847  14.507   2.773  12.875 -0.3740  0.0141 -0.0501
21568W        W41848   2.837   2.768   1.726  0.0815 -0.2296 -0.0468
21569W        W41849  16.186   2.205   3.402 -0.2794  0.2979  0.2365
21570W        W41850   4.796   3.522  12.140 -0.0764 -0.3917 -0.2287
21571W        W41851  15.511  15.535   2.407  0.1344 -0.2046  0.2014
21572W        W41852   8.311  17.460   2.757  0.0667  0.1217 -0.0222
21573W        W41853   8.017   9.732   4.313  0.0781  0.2347 -0.1010
21574W        W41854  11.554   1.741  13.012  0.2814 -0.2088  0.1820
21575W        W41855   5.274   6.442  15.396  0.0344 -0.0783 -0.1059
21576W        W41856   5.912   0.222  15.358  0.1467 -0.1306  0.0977
21577W        W41857   7.125   0.685  16.171  0.0338  0.0290  0.0957
21578W        W41858  12.299   1.231   4.300 -0.3441 -0.0560  0.1180
21579W        W41859   7.163   2.803  11.813  0.0197  0.1327  0.0330
21580W        W41860  10.269   4.750  14.422 -0.2166 -0.1811  0.2007
21581W        W41861  12.679   7.899  14.782 -0.0754  0.0189  0.0402
21582W        W41862   3.333   1.022   3.435  0.0168  0.0032 -0.1581
21583W        W41863   8.455  15.893   2.897  0.1850  0.0612 -0.1009
21584W        W41864   7.210  14.161  15.709 -0.2194  0.2227  0.2234
21585W        W41865  16.568  13.471  15.871 -0.2829 -0.0268  0.4557
21586W        W41866  10.276   6.962  12.643  0.0193 -0.2201  0.2286
21587W        W41867   8.417   8.623  11.615 -0.3048  0.5144 -0.0209
21588W        W41868   7.318  11.552  15.607 -0.1043  0.0067 -0.1243
21589W        W41869  16.812  15.688   4.467 -0.0195  0.2094  0.0463
21590W        W41870   0.219  10.142   4.422  0.1760  0.0127 -0.0068
21591W        W41871   6.836  13.622  12.217  0.1134  0.1413  0.0991
21592W        W41872   2.748  11.701   4.574 -0.0157 -0.1468  0.3396
21593W        W41873   5.149  14.282   3.422  0.0023  0.1950 -0.0004
21594W        W41874  16.240   6.080   1.251 -0.2601  0.2168 -0.0060
21595W        W41875  11.383   4.652   4.987 -0.0827 -0.2130  0.0130
21596W        W41876  17.044  15.516  12.306  0.0291 -0.0256 -0.0984
21597W        W41877   1.197   0.405   3.002  0.0777 -0.2320 -0.5044
21598W        W41878   5.260  10.870  16.177  0.1573  0.1698 -0.0027
21599W        W41879   3.710   5.559  16.249 -0.2695  0.1943 -0.1747
21600W        W41880   3.931   4.023  16.324 -0.3291 -0.0318 -0.0482
21601W        W41881   2.176   5.412   0.294  0.1733 -0.1601  0.4467
21602W        W41882  12.729  11.129   3.029 -0.0314 -0.0396  0.1054
21603W        W41883   2.173   4.859   2.252 -0.0128  0.1150 -0.2220
21604W        W41884   7.340   7.269  15.550 -0.0937  0.3037  0.1106
21605W        W41885   5.288  10.982   4.343 -0.0012  0.2012 -0.1954
21606W        W41886  12.502   1.438   0.320 -0.1862  0.0815  0.1865
21607W        W41887   6.972  14.055   1.894 -0.0188 -0.0555 -0.1562
21608W        W41888  12.335   2.669   3.322  0.1649  0.0723 -0.0638
21609W        W41889  16.046   1.193  13.645 -0.2869 -0.2052 -0.0153
21610W        W41890  13.646   2.009  14.535 -0.0950 -0.3612  0.0458
21611W        W41891   3.961  11.839   3.270  0.0255  0.0816 -0.1930
21612W        W41892  13.345   6.626  13.546  0.1279  0.2027 -0.0066
21613W        W41893  15.693   6.163   3.817  0.1798  0.0117 -0.1412
21614W        W41894   5.767   9.203   3.884 -0.2228 -0.2550 -0.0947
21615W        W41895  17.326   7.748  12.830  0.2074  0.1317 -0.2446
21616W        W41896   7.336  11.531   4.295 -0.2402  0.4134 -0.2042
21617W        W41897   3.176  14.550   2.797 -0.0167 -0.1165 -0.0790
21618W        W41898   9.077   3.562  14.430  0.4055 -0.1501 -0.0920
21619W        W41899  10.975  10.168   2.038  0.1588  0.1235 -0.2365
21620W        W41900  10.068   7.187  14.574  0.1153 -0.3050 -0.0032
21621W        W41901   7.239   2.763   1.190 -0.0558 -0.2730 -0.1456
21622W        W41902  15.783  12.323   2.716  0.0496  0.0797 -0.1184
21623W        W41903   0.989  14.672  13.537  0.0051 -0.2011 -0.2035
21624W        W41904  10.453   3.324   3.178  0.1349  0.3377 -0.1246
21625W        W41905   7.154   2.128  13.455  0.3794  0.0524  0.4316
21626W        W41906   4.328   7.260  16.830  0.1860  0.0794 -0.0379
21627W        W41907  16.930   9.335   2.076  0.1083 -0.1575 -0.1643
21628W        W41908   7.183   0.517  13.073  0.1427  0.0328 -0.0181
21629W        W41909   7.699   1.394  13.370  0.1681 -0.0810 -0.0889
21630W        W41910  12.636  10.723   0.243  0.0797 -0.0045  0.1669
21631W        W41911   3.405  13.135   0.967 -0.1969  0.0192  0.2841
21632W        W41912   2.849   4.762   2.658 -0.0538  0.1442 -0.1135
21633W        W41913   6.404   6.393  14.462 -0.1146  0.1284 -0.0828
21634W        W41914   6.374   6.056  13.085 -0.0437 -0.2501 -0.0912
21635W        W41915   0.200  12.011   4.375  0.0075  0.4132  0.0470
21636W        W41916   4.230   4.065   5.037  0.1737  0.0412 -0.1377
21637W        W41917  17.261   1.598   2.833  0.1117 -0.0346 -0.3379
21638W        W41918  15.295  17.101  16.181 -0.1425 -0.3894  0.0472
21639W        W41919   5.793   9.795   4.396 -0.0862  0.3106  0.4009
21640W        W41920   4.239   8.965  16.388  0.1919 -0.0665  0.0398
21641W        W41921   8.643  15.604  13.450 -0.2059 -0.0625 -0.1778
21642W        W41922   2.288  16.801   3.694 -0.0294  0.0862 -0.0689
21643W        W41923  13.646   1.131   3.081  0.1318  0.2642  0.2628
21644W        W41924   9.693   0.315   2.453  0.0414  0.2395  0.0583
21645W        W41925   8.917   9.736  16.194  0.0921  0.1799 -0.1842
21646W        W41926  15.026   0.332  12.551  0.0897 -0.3646 -0.0708
21647W        W41927   9.449   1.262   3.632  0.4938  0.0409 -0.0622
21648W        W41928   3.974  13.642  16.571 -0.2627  0.2685  0.1036
21649W        W41929  12.625   5.508   4.335 -0.0267  0.1701  0.1102
21650W        W41930   9.513   2.402   5.029  0.2025  0.0805 -0.0104
21651W        W41931   8.688  11.648  12.320 -0.0015 -0.2752  0.4452
21652W        W41932   0.051  15.894  15.662 -0.0465  0.0143  0.1454
21653W        W41933   1.277   9.471   4.404  0.1769  0.0836  0.2384
21654W        W41934  10.802  11.728   0.974  0.2364 -0.0664 -0.1412
21655W        W41935   0.809   2.803  16.063  0.1270 -0.1592  0.1621
21656W        W41936   4.732  12.635   0.631 -0.3072  0.1187 -0.1951
21657W        W41937   7.644   5.849   1.198  0.1633  0.1068 -0.0719
21658W        W41938  17.060  15.742   2.698 -0.1335 -0.1520 -0.0805
21659W        W41939  16.544   9.499   3.310 -0.2532 -0.3098 -0.0144
21660W        W41940  16.618  12.553   2.317 -0.2444 -0.0297 -0.0447
21661W        W41941   5.564   5.466  12.236 -0.5176 -0.3812 -0.0064
21662W        W41942   5.599   0.897  14.979  0.0563 -0.1055 -0.4182
21663W        W41943   0.883  17.324   1.948  0.1487 -0.2238  0.0432
21664W        W41944   0.716  12.901  13.666 -0.0300  0.0057  0.2130
21665W        W41945   6.601   1.746  14.120  0.2795 -0.0013  0.0846
21666W        W41946  13.992  12.638  13.552 -0.1157 -0.0942  0.0501
21667W        W41947   4.048   6.611   3.107 -0.0514  0.2769 -0.3433
21668W        W41948  17.657  14.677   2.530  0.0712  0.1157 -0.1664
21669W        W41949  14.902   5.393  12.668 -0.1126 -0.1881 -0.0250
21670W        W41950   9.218   2.900   3.887 -0.3386 -0.1564 -0.0122
21671W        W41951  12.360   3.823   4.511 -0.0683 -0.1795 -0.1612
21672W        W41952   1.744  14.337  15.600 -0.0915  0.0461  0.0739
21673W        W41953  15.904  16.792   3.651 -0.1540 -0.0576 -0.0989
21674W        W41954  15.142   6.633   0.983  0.2905  0.1429  0.1776
21675W        W41955   7.039   0.652   3.589 -0.1726 -0.0266  0.0500
21676W        W41956  16.930   6.699  13.460 -0.1871 -0.2045 -0.0874
21677W        W41957  11.092  17.377   4.470 -0.1950 -0.0910 -0.2080
21678W        W41958   3.858  17.618   0.641  0.1126 -0.2222  0.0085
21679W        W41959  10.787  13.878  15.718 -0.0123 -0.1355  0.0442
21680W        W41960   2.054   3.209  12.507 -0.0763  0.0152 -0.1912
21681W        W41961   0.577   1.917  15.085  0.1182  0.0504 -0.0879
21682W        W41962   0.891   6.460   4.308  0.0350  0.0566 -0.1543
21683W        W41963  12.105  10.552  13.210 -0.1923 -0.0775  0.5283
21684W        W41964   9.131   3.612  16.187  0.2428 -0.1523 -0.0028
21685W        W41965  15.856  11.288  14.781 -0.2067  0.2294  0.0991
21686W        W41966  11.873  17.161  14.372 -0.0068  0.1844 -0.4440
21687W        W41967  16.041  13.368  12.785  0.0537 -0.1453  0.0462
21688W        W41968  16.237   1.348  14.473  0.1254  0.1475 -0.3062
21689W        W41969   9.238  14.339  16.357  0.1082 -0.1906  0.0013
21690W        W41970  10.142  12.478   2.452  0.1258  0.0781  0.3941
21691W        W41971   4.142   2.577  15.795 -0.1721 -0.2332 -0.0504
21692W        W41972  12.907   8.991  14.878 -0.0390  0.0381 -0.0461
21693W        W41973  13.103   2.407  13.996 -0.0648  0.0189  0.1240
21694W        W41974   3.480   5.874  14.232 -0.0483 -0.0820  0.2715
21695W        W41975  12.355  15.981  14.922  0.1195 -0.1117 -0.0047
21696W        W41976  15.669  16.241   4.348  0.0873  0.2532  0.1139
21697W        W41977   6.993  12.902   0.894  0.0168 -0.1146  0.2750
21698W        W41978  14.415  12.699  16.245 -0.4042 -0.0038 -0.0526
21699W        W41979  12.933  11.803  13.690 -0.3553  0.2658  0.2166
21700W        W41980  10.338   8.636   3.053  0.2330  0.0077  0.2040
21701W        W41981  14.723  13.501  15.039 -0.2293  0.1405 -0.3572
21702W        W41982   3.261  12.808  15.770  0.1498 -0.0014 -0.1197
21703W        W41983  17.502   8.805   3.918  0.0805  0.0474  0.5554
21704W        W41984   4.836   2.582  11.762 -0.1882 -0.0351 -0.0027
21705W        W41985   3.069  14.384   1.811  0.0931 -0.2909 -0.0498
21706W        W41986  16.472  14.071   4.335 -0.0427  0.1272  0.0578
21707W        W41987   7.103   6.077   2.098  0.1616  0.0477 -0.0227
21708W        W41988  12.364  15.457   3.704  0.1715  0.0575 -0.2231
21709W        W41989   1.914   0.404   2.596  0.0555  0.1376 -0.2718
21710W        W41990   4.165  11.084  12.994  0.1107  0.1608 -0.1766
21711W        W41991   7.550   9.408   4.208 -0.0875 -0.1262 -0.2193
21712W        W41992  13.981  11.657  13.960 -0.2719  0.2544  0.2124
21713W        W41993   5.461  15.027   1.985 -0.0152  0.3486 -0.1442
21714W        W41994  16.434   3.622  16.680 -0.3531  0.1123 -0.1481
21715W        W41995   1.277   2.804  15.895 -0.1331 -0.0424 -0.1850
21716W        W41996   7.742  15.882  16.488  0.1388 -0.0905 -0.0685
21717W        W41997   0.520   2.815   2.887 -0.0997 -0.2508 -0.0653
21718W        W41998   8.824  12.353  15.255  0.1475 -0.2406 -0.0679
21719W        W41999  11.849   2.159  12.748  0.0818 -0.1850  0.1547
21720W        W42000  17.639  14.580  13.495  0.3580 -0.0506  0.0627
21721W        W42001   6.242  13.837  13.168  0.0840 -0.0378  0.0764
21722W        W42002   1.617   9.581  14.132 -0.5514 -0.1584  0.0862
21723W        W42003   4.023  14.245   3.903  0.0583  0.1737  0.0164
21724W        W42004  10.480  11.758  14.687 -0.3465  0.1284 -0.1456
21725W        W42005  13.499  17.252  16.214 -0.1433  0.0237  0.2371
21726W        W42006   0.366   9.455  14.910  0.3384  0.1729  0.2218
21727W        W42007   3.951   8.998   0.927  0.0669  0.1426  0.1554
21728W        W42008  13.431   4.108   2.818 -0.0815  0.2223 -0.1229
21729W        W42009   6.896   9.501   1.864 -0.2483  0.1083 -0.1288
21730W        W42010   1.535  14.735   0.519 -0.0779  0.1227  0.0938
21731W        W42011  11.237   3.732  12.570 -0.0032 -0.0620  0.0418
21732W        W42012   6.290   1.992   5.014  0.0846 -0.0548  0.2591
21733W        W42013  17.262  15.424  14.223 -0.0260 -0.4176 -0.2594
21734W        W42014  10.082   4.228   2.072  0.3015 -0.0007 -0.0987
21735W        W42015   1.653  14.190   3.365 -0.0596 -0.4268 -0.2366
21736W        W42016  12.769  16.276   3.199 -0.1573  0.0210 -0.1630
21737W        W42017  16.140   0.858  15.376  0.0583 -0.2133  0.2326
21738W        W42018   1.788  15.668   1.553 -0.1792 -0.1379  0.1452
21739W        W42019   8.152   5.855   3.743 -0.1649 -0.0417  0.0414
21740W        W42020   8.593   5.123  11.744 -0.1864 -0.1269  0.1666
21741W        W42021  16.976   0.104   2.086  0.0403 -0.0035 -0.1698
21742W        W42022  17.437   7.860  14.257  0.4641 -0.3792  0.1120
21743W        W42023   6.733   0.855  14.110  0.1914 -0.0334 -0.0422
21744W        W42024   3.223   3.477   3.090  0.2359 -0.1042  0.0391
21745W        W42025   0.091  14.400  16.557  0.1665 -0.0261  0.0796
21746W        W42026  11.256  13.772  14.294 -0.2339 -0.0613  0.0725
21747W        W42027  14.506  16.160  12.604  0.0852  0.1136 -0.0138
21748W        W42028   9.104  16.534   1.993  0.3167  0.1183 -0.0092
21749W        W42029  17.221   3.888  14.355 -0.1363 -0.0538  0.0057
21750W        W42030   9.547  13.779  13.027  0.0140  0.1718 -0.0627
21751W        W42031  16.291   1.038  14.060 -0.2006 -0.1412 -0.2316
21752W        W42032  13.366   1.018  15.887 -0.1399 -0.2808  0.2105
21753W        W42033   2.479  16.334   0.605 -0.1578 -0.3101  0.1473
21754W        W42034   8.168   5.033  16.327  0.2238  0.0938 -0.0558
21755W        W42035  12.171   9.650  16.561 -0.1475 -0.3387  0.0056
21756W        W42036  10.831  14.127  13.556 -0.2396  0.4300  0.0444
21757W        W42037  11.031   9.776  13.101 -0.2072 -0.1401 -0.4560
21758W        W42038   6.875  16.033   2.854  0.0057  0.2778  0.2774
21759W        W42039   1.091   9.166   3.999 -0.0473  0.0060 -0.0501
21760W        W42040   6.940   2.440  14.266 -0.0048  0.0678  0.2779
21761W        W42041  11.433  16.297  12.794 -0.0861  0.4870 -0.1836
21762W        W42042  15.656  15.382  16.320  0.1929  0.1773  0.0284
21763W        W42043  17.133   3.200   0.790  0.1064  0.1426 -0.2030
21764W        W42044  13.031  10.674   3.655 -0.1533  0.0430 -0.2783
21765W        W42045   6.002  16.326   3.360 -0.0756 -0.1462  0.1788
21766W        W42046  16.595  10.757  16.154 -0.0346 -0.1120 -0.1956
21767W        W42047   6.715   5.359  12.884 -0.0860 -0.2640 -0.0041
21768W        W42048  14.824   6.505  15.931  0.1165 -0.0321 -0.2463
21769W        W42049  15.365  16.360  15.927 -0.0697 -0.1540 -0.1612
21770W        W42050   3.308  16.387   1.565  0.0477  0.0799  0.2492
21771W        W42051   7.951  13.827  12.753  0.0177 -0.2553  0.1627
21772W        W42052  14.525  11.161   3.338  0.0466  0.0973 -0.3935
21773W        W42053   3.657  11.199  10.983 -0.1153 -0.0185 -0.0782
21774W        W42054   7.845   1.668   1.616 -0.0929  0.0765 -0.0943
21775W        W42055   3.724   2.614  16.803 -0.2367  0.2806 -0.0037
21776W        W42056  14.765  13.530   2.910 -0.1358  0.1221  0.0904
21777W        W42057   0.750   0.170  13.653  0.0510  0.0504  0.1631
21778W        W42058  13.701   3.914   3.862  0.0689  0.1339 -0.1465
21779W        W42059   8.859   3.359  12.669 -0.1247 -0.0440  0.0492
21780W        W42060  17.560  12.545   0.221 -0.1335  0.3082 -0.0857
21781W        W42061   2.188  14.012   4.137  0.1509 -0.1612  0.2372
21782W        W42062   1.241  15.563  14.885  0.0354  0.2627 -0.0013
21783W        W42063   2.224  15.227  12.150  0.0516  0.0805 -0.1468
21784W        W42064   5.762  10.369   2.041  0.2700  0.0176  0.0803
21785W        W42065  12.729   3.007   3.537 -0.0516  0.2986  0.0037
21786W        W42066  13.016   1.919   1.642  0.1613  0.2516 -0.0198
21787W        W42067   6.518   3.378   3.160 -0.0295  0.0614 -0.1983
21788W        W42068   5.686   3.280  12.545 -0.0991 -0.1168  0.0371
21789W        W42069   4.091  11.354  15.877 -0.0673  0.1017 -0.2399
21790W        W42070  12.213   2.980   1.846 -0.0839 -0.0245  0.2689
21791W        W42071  15.147   0.898  14.393 -0.0572  0.3157  0.0307
21792W        W42072   2.412  13.413   2.580 -0.0992  0.1812  0.2712
21793W        W42073   5.054  12.077  11.226 -0.1580  0.0123  0.0358
21794W        W42074  11.668   1.270  13.773 -0.2141  0.0621  0.2130
21795W        W42075   7.253   3.176   0.840  0.0543  0.4021 -0.2531
21796W        W42076  11.533   4.790   3.734 -0.3322  0.0249 -0.2804
21797W        W42077   1.684   2.082   3.656 -0.1107  0.1912 -0.0601
21798W        W42078   6.932   4.344  13.921 -0.0899  0.0922 -0.0767
21799W        W42079   3.312   5.843  15.488  0.2581 -0.2108  0.1142
21800W        W42080  13.741   3.693  16.051  0.1535  0.1036  0.0042
21801W        W42081  10.420   3.657  14.783  0.1758  0.1208  0.0192
21802W        W42082   5.848  12.667  12.213  0.5676  0.1355  0.0803
21803W        W42083  17.181   8.705  12.100  0.1298  0.1310  0.0324
21804W        W42084  17.569   4.327  15.550 -0.1511  0.0222 -0.2539
21805W        W42085   2.962   4.292  16.106 -0.0442 -0.0072  0.0344
21806W        W42086   7.196  12.610  16.442  0.0572 -0.0769  0.1284
21807W        W42087   2.355   0.226  16.667  0.1388  0.0442  0.0973
21808W        W42088   1.578   6.434  13.429 -0.3914 -0.2032  0.1035
21809W        W42089  11.876   7.330  14.353 -0.0851 -0.0979  0.0346
21810W        W42090   7.141   0.187  15.925  0.1445 -0.3176 -0.0307
21811W        W42091   6.809   4.460  16.055  0.1848  0.0549  0.2198
21812W        W42092  11.560  17.300   4.758  0.4031 -0.0302  0.1194
21813W        W42093  17.053  13.940  15.336  0.1222  0.2610  0.2566
21814W        W42094  10.678   3.412   4.933  0.4480 -0.0297  0.0231
21815W        W42095   2.962  11.285   4.039  0.1416  0.0520  0.0157
21816W        W42096   1.637   1.587  14.036  0.1349 -0.0217 -0.0769
21817W        W42097  10.343   1.176  13.540  0.0743 -0.2492 -0.0605
21818W        W42098   3.223   9.164  12.129 -0.2155 -0.0534 -0.2691
21819W        W42099   0.603  16.000  15.343  0.0651  0.1334  0.0092
21820W        W42100   9.121   6.131   1.482 -0.0269 -0.2753  0.1216
21821W        W42101   9.488   7.084   0.920  0.1028  0.1823 -0.1027
21822W        W42102  16.923   2.266  13.021  0.1881 -0.1043  0.2995
21823W        W42103   1.222   0.031   4.738  0.1223 -0.2097  0.0952
21824W        W42104   5.149   5.390   1.244  0.0430  0.1111 -0.2982
21825W        W42105   9.557  16.701   2.117  0.3461 -0.0113  0.1454
21826W        W42106  11.539  10.780   5.184  0.0545 -0.1862  0.1927
21827W        W42107   2.243   4.373   5.022 -0.1260 -0.0646 -0.0792
21828W        W42108  16.974  14.643  12.261 -0.0867  0.0214 -0.3890
21829W        W42109   3.090  15.782  15.665 -0.0180  0.1487  0.1797
21830W        W42110   7.890  16.531  15.326 -0.1028  0.0420  0.4803
21831W        W42111   5.631  14.613  12.807 -0.0485 -0.0177 -0.3220
21832W        W42112  14.929  14.649   3.914 -0.0528 -0.0437  0.0810
21833W        W42113  15.936  10.109   5.768  0.0379  0.0529 -0.1564
21834W        W42114  11.107   3.083  14.860  0.3555 -0.0946 -0.2732
21835W        W42115   5.999   8.700  13.829 -0.0595 -0.2169 -0.3512
21836W        W42116   9.693  15.035   3.512  0.0304  0.2845 -0.0241
21837W        W42117   5.251  12.835   1.416 -0.2425 -0.1471 -0.0337
21838W        W42118   0.168   2.277   1.694  0.1565 -0.1830  0.1467
21839W        W42119   8.895  17.544  12.132  0.3173  0.1526  0.5266
21840W        W42120  16.601   2.709  13.179 -0.0757 -0.0055 -0.1942
21841W        W42121   6.543   5.880  13.577 -0.1837 -0.1349 -0.0349
21842W        W42122   6.799  13.948   4.502 -0.1590  0.0541 -0.1712
21843W        W42123   6.742   7.642  15.993 -0.0066  0.1814  0.0932
21844W        W42124   9.340  11.948  13.870 -0.0022 -0.0773 -0.2228
21845W        W42125  11.523   5.538  15.953 -0.1377  0.0504 -0.1799
21846W        W42126  15.741   7.252  14.212  0.0983 -0.1978  0.2314
21847W        W42127   0.385  14.737   2.886  0.0396 -0.0066 -0.1653
21848W        W42128   3.199   6.089   4.837 -0.0586 -0.0614 -0.0814
21849W        W42129   5.176  15.666  13.216  0.4065 -0.1463  0.2718
21850W        W42130  12.425   5.187   3.818 -0.0085 -0.2078 -0.0421
21851W        W42131  16.182   8.233  16.168 -0.2603  0.0765  0.2606
21852W        W42132   3.357   0.274  12.742  0.0226 -0.1195 -0.3450
21853W        W42133  10.261   9.951  15.086  0.0050 -0.1320  0.1133
21854W        W42134   3.648  13.364   1.377 -0.0010  0.1260  0.0277
21855W        W42135  14.812  16.218   2.735  0.0135  0.2109  0.0935
21856W        W42136   7.073   8.841  13.221  0.0700 -0.0732  0.3919
21857W        W42137  13.488   8.017   0.447 -0.2037  0.0907 -0.0111
21858W        W42138   7.086   5.348   4.825  0.0940 -0.0924  0.1284
21859W        W42139  12.725   3.051   0.378  0.3095 -0.2831 -0.1695
21860W        W42140  16.470   1.907  12.399  0.0040  0.1020 -0.1849
21861W        W42141   8.584   8.020   1.448  0.0090 -0.1071 -0.0794
21862W        W42142   0.941  12.084   0.889  0.1145  0.0274  0.1796
21863W        W42143   2.843   0.816  13.505 -0.2871  0.2164  0.0456
21864W        W42144   7.374  12.797  13.085 -0.0508  0.2638 -0.1837
21865W        W42145   5.225   6.640   0.793 -0.0507 -0.2652 -0.0376
21866W        W42146   6.807   7.480  14.281 -0.0931 -0.2018  0.0534
21867W        W42147   2.379   2.814   3.354 -0.1330 -0.1315 -0.1105
21868W        W42148   9.811   2.517   1.916 -0.4578  0.0432 -0.4219
21869W        W42149   4.602  10.563  15.431  0.2800  0.3778 -0.1138
21870W        W42150   3.212   7.472  13.870 -0.1689  0.0745  0.1251
21871W        W42151  12.697   4.162  12.214  0.1478 -0.2705  0.1535
21872W        W42152  14.155   6.795   2.974 -0.0971 -0.1763  0.0344
21873W        W42153   8.005   2.234  16.243  0.0270  0.0285 -0.1460
21874W        W42154  11.225  15.898  16.833 -0.1255 -0.0387 -0.1679
21875W        W42155  10.038  16.956   2.122 -0.4513  0.2484 -0.1136
21876W        W42156  12.775   7.575  15.463 -0.1457 -0.1999 -0.0590
21877W        W42157   9.852   4.204   4.637  0.4867  0.3561  0.0355
21878W        W42158  13.517   6.000   0.390  0.2526  0.1641 -0.1176
21879W        W42159   4.211   2.894   3.869  0.2189 -0.0114 -0.1887
21880W        W42160  12.382   9.029   4.421  0.2678 -0.1023 -0.0998
21881W        W42161  15.538   9.810  16.736  0.0909 -0.0868  0.3604
21882W        W42162  17.578   0.690   2.339  0.1206  0.1247  0.0485
21883W        W42163  14.936   1.156   0.314  0.0155  0.2536 -0.0280
21884W        W42164  13.488  14.714  12.274 -0.1670 -0.2079  0.1757
21885W        W42165   4.179   3.848  13.696 -0.0792 -0.0940 -0.0495
21886W        W42166   7.118   0.294   0.467  0.0235  0.1568 -0.1007
21887W        W42167   7.892   5.671   0.234 -0.1552 -0.2530 -0.0726
21888W        W42168   7.623   9.101   2.216  0.0505 -0.2302  0.0494
21889W        W42169   8.871   8.161  15.314 -0.1609 -0.0371  0.0341
21890W        W42170   3.719   2.848  15.942  0.0437 -0.0653 -0.2319
21891W        W42171   9.207   3.859   0.256 -0.1781  0.0490 -0.1891
21892W        W42172   6.231   3.959   1.705  0.0463 -0.1490  0.0464
21893W        W42173  13.609   9.299   1.030  0.0763 -0.0991  0.1861
21894W        W42174  14.761   2.109  13.748  0.0253 -0.6131  0.0386
21895W        W42175  10.735   4.434  12.450 -0.0746 -0.1855 -0.0561
21896W        W42176  15.912  11.297   3.494 -0.0540  0.0163  0.4050
21897W        W42177  13.927   0.071  12.695 -0.0166 -0.0050  0.1557
21898W        W42178   1.368   5.741  15.152 -0.1937  0.0919 -0.0453
21899W        W42179   3.665   2.328  14.819  0.1588  0.1516  0.0107
21900W        W42180   6.259   8.775   2.197  0.2981  0.0595  0.1757
21901W        W42181  17.084  16.106  16.414 -0.0368 -0.0324 -0.1543
21902W        W42182   1.066   1.915  15.691 -0.0042  0.0758  0.1314
21903W        W42183   7.113  13.408   3.157  0.0936  0.0487 -0.0656
21904W        W42184   4.158  14.645   2.357 -0.0610 -0.0485  0.0692
21905W        W42185   9.407   6.355  11.048 -0.2085 -0.1599  0.1774
21906W        W42186   6.780   3.679  13.031  0.0168  0.0973 -0.0753
21907W        W42187   4.880  15.081   4.592  0.0898 -0.0744  0.0698
21908W        W42188  10.864  14.831   1.298  0.2599 -0.1373 -0.0278
21909W        W42189   9.806  10.736  12.427 -0.0456 -0.1679  0.0367
21910W        W42190   4.310   7.411   3.462  0.2121 -0.0077  0.0622
21911W        W42191   5.333   9.872  13.821  0.2951 -0.2306 -0.0724
21912W        W42192  15.360   0.597   1.588  0.2602 -0.0919 -0.0954
21913W        W42193  17.572   0.002   5.039 -0.1581 -0.2883 -0.1410
21914W        W42194  17.093   6.698   3.693 -0.2926 -0.1762  0.2837
21915W        W42195   9.519   1.203  15.093  0.0813  0.2381  0.1573
21916W        W42196   2.577  13.517   4.849 -0.3028  0.3656  0.1314
21917W        W42197   9.500   4.128  15.505 -0.0225  0.0391  0.2519
21918W        W42198   8.902   7.973  14.825  0.2120  0.0102 -0.0032
21919W        W42199  14.426   2.703  16.403  0.2413  0.0201 -0.2490
21920W        W42200   1.945  15.850   4.717 -0.2710 -0.1439 -0.2122
21921W        W42201   4.822   6.821   1.656  0.0118  0.0544 -0.0090
21922W        W42202   8.499   4.302   2.044 -0.0764 -0.4880 -0.0903
21923W        W42203   5.906  14.168  11.704  0.1519 -0.0654  0.1747
21924W        W42204   1.296   2.752   0.843 -0.2670 -0.1798  0.1285
21925W        W42205  17.004   1.951  15.860 -0.0118  0.0240 -0.0632
21926W        W42206   6.746   6.223  16.392 -0.1962 -0.2203  0.0137
21927W        W42207   0.358   0.429  14.825  0.1008 -0.0593 -0.0742
21928W        W42208   0.537  15.870  12.986  0.0257 -0.0912 -0.1330
21929W        W42209   6.254   8.782  12.090  0.0919 -0.1204 -0.1323
21930W        W42210   8.589   0.316   4.990 -0.1764  0.1737  0.0491
21931W        W42211   1.499   5.925   4.317  0.2612  0.1282  0.0287
21932W        W42212   1.016   1.696   0.072 -0.0659  0.1428  0.1970
21933W        W42213   2.394   6.645   2.182  0.3074  0.3062 -0.2206
21934W        W42214   0.327  10.213  15.951  0.0985  0.2205 -0.1067
21935W        W42215  15.745  10.748   2.167  0.1381 -0.2752  0.0583
21936W        W42216  11.025  13.737  12.572 -0.0401 -0.0219  0.3356
21937W        W42217   0.510   9.146   3.058 -0.2180 -0.2920  0.1378
21938W        W42218   7.920  14.137  15.827  0.2537  0.3565 -0.1391
21939W        W42219  13.182   7.285  13.157  0.1729  0.0695 -0.0496
21940W        W42220  16.512  11.876   3.123 -0.0378 -0.3643  0.1976
21941W        W42221   7.736   6.641   1.507  0.0630 -0.1188 -0.0496
21942W        W42222   9.797   5.240   2.717 -0.2007 -0.2027  0.0171
21943W        W42223  11.513   3.919   3.811 -0.1738 -0.1439  0.0431
21944W        W42224   5.622  15.423  16.338 -0.0056 -0.1643 -0.1884
21945W        W42225   7.657   7.838  14.021  0.2889  0.1551 -0.2968
21946W        W42226   1.028   3.644  14.434  0.1995 -0.2282  0.3276
21947W        W42227   9.663   8.775   1.973  0.0035 -0.1383  0.2912
21948W        W42228   9.207   9.847   0.479 -0.3011  0.0533  0.2543
21949W        W42229  15.961   0.914   0.696 -0.2291 -0.3385  0.0520
21950W        W42230  13.106  10.740  13.322  0.2203 -0.3266  0.2034
21951W        W42231   6.771   7.266  12.436 -0.0557 -0.6224  0.1081
21952W        W42232  11.627   4.169  13.138  0.0515 -0.0678  0.0056
21953W        W42233   3.145   3.983   2.965  0.1797  0.2132 -0.1007
21954W        W42234  15.790   1.896   1.515  0.1423 -0.1441 -0.2112
21955W        W42235   5.723  13.835  16.787  0.0400  0.0879 -0.0239
21956W        W42236   6.773   0.472   0.809  0.1876  0.1524  0.0322
21957W        W42237  10.221   3.035   2.664 -0.0794 -0.0085 -0.0022
21958W        W42238   2.508   2.613  15.231  0.0803  0.0035  0.3293
21959W        W42239  12.620   0.364  14.393  0.2130 -0.1787 -0.2630
21960W        W42240   2.583  15.092  13.550  0.1482  0.2280  0.1052
21961W        W42241   6.427  10.794  16.717 -0.2186  0.1632  0.1774
21962W        W42242   3.575  15.424   3.185  0.0191 -0.1710 -0.1903
21963W        W42243  11.969   8.714  15.949  0.3236 -0.0817  0.2848
21964W        W42244   2.337  13.250   1.700 -0.0544 -0.0782 -0.1241
21965W        W42245  12.455  14.149  13.588  0.0276 -0.0345  0.0199
21966W        W42246   1.711  13.691   4.754  0.2106  0.3810 -0.1312
21967W        W42247  14.123  16.339  15.463 -0.1786 -0.0065 -0.0307
21968W        W42248   9.535   5.643  11.670 -0.3722  0.3080 -0.4010
21969W        W42249  12.523   9.396  13.631 -0.0141 -0.0515  0.1348
21970W        W42250   5.852   8.882   0.837  0.1203  0.0870 -0.0476
21971W        W42251   2.367  13.722  14.517  0.2884  0.2024  0.0733
21972W        W42252  13.805  16.104  14.654 -0.0232  0.0242  0.1373
21973W        W42253  17.328   8.533  14.858  0.1214  0.2198  0.1077
21974W        W42254  10.576   8.045  11.764 -0.0903 -0.0673  0.1962
21975W        W42255  10.316   4.598  15.476 -0.0589  0.0335  0.2791
21976W        W42256   5.520  12.177   1.528 -0.0663 -0.1278  0.2631
21977W        W42257   3.399  13.295   2.282 -0.2120 -0.0580 -0.1789
21978W        W42258   7.022  13.001  16.733 -0.0343 -0.0407 -0.0959
21979W        W42259  15.171  17.681  12.226 -0.0321 -0.1148  0.0506
21980W        W42260   0.635  14.247   3.600  0.0662 -0.1610 -0.2400
21981W        W42261  16.757   1.342  12.889 -0.2988  0.0079  0.1513
21982W        W42262  16.843  15.163  14.024  0.1283 -0.3130 -0.0758
21983W        W42263  14.729  14.628  14.311  0.0109  0.0895 -0.0867
21984W        W42264  11.919  11.876   0.967 -0.2734 -0.0696 -0.0000
21985W        W42265   8.243   6.560   0.582 -0.0867 -0.0056  0.2059
21986W        W42266   7.973   7.371  16.261  0.1785 -0.2868  0.0075
21987W        W42267   6.957   1.249  12.648 -0.1497 -0.0645  0.1084
21988W        W42268   6.999   4.110   0.544  0.0931  0.1597  0.0317
21989W        W42269   7.000   3.297  16.779  0.1691 -0.0562 -0.0610
21990W        W42270  15.376   2.412   3.375  0.1190  0.1758  0.0441
21991W        W42271   1.753   4.381  15.273  0.0761  0.1186 -0.2706
21992W        W42272   3.736   5.064  16.021  0.0039  0.1126  0.2397
21993W        W42273   4.719  11.883   1.051 -0.1063 -0.2012  0.4316
21994W        W42274   4.822  14.851   1.306  0.1302  0.0440 -0.4048
21995W        W42275   9.454   3.673  15.784  0.0397 -0.1226  0.2960
21996W        W42276   2.917   8.783  12.283 -0.2173 -0.0735  0.0861
21997W        W42277  17.158  13.728   3.528 -0.0127 -0.0953 -0.0287
21998W        W42278   3.978   6.609   0.305 -0.1972  0.1581  0.1685
21999W        W42279   5.118  16.910   0.116  0.2237  0.1042 -0.1075
22000W        W42280   0.043  14.209  15.096  0.2140 -0.0445 -0.1944
22001W        W42281  15.957  12.683  15.005 -0.3040 -0.0031  0.0427
22002W        W42282   9.194  11.289   1.050  0.0220  0.2702 -0.2945
22003W        W42283  10.924   8.677   0.769 -0.1151 -0.2133 -0.1046
22004W        W42284   9.048   8.691  16.842  0.0943 -0.0761 -0.0915
22005W        W42285   5.713   9.343  14.575 -0.0374  0.0186 -0.0230
22006W        W42286   7.932  16.060   0.833 -0.0621  0.0991 -0.2393
22007W        W42287   3.364   6.360   2.315  0.1332 -0.1248 -0.2332
22008W        W42288   2.517  10.236  12.495 -0.1721 -0.0983 -0.1021
22009W        W42289   4.666   3.808   4.086  0.0883  0.1562 -0.3375
22010W        W42290   4.277  10.419  14.831  0.2427  0.0021  0.0146
22011W        W42291   8.816   4.310  14.729 -0.2620 -0.4905  0.0128
22012W        W42292   7.535  17.330   0.850 -0.1133  0.2551  0.1549
22013W        W42293   2.762  14.812  13.113  0.3179 -0.0379  0.1344
22014W        W42294   4.299   0.953   0.906 -0.0286 -0.1748 -0.1775
22015W        W42295   2.805   2.680   4.083  0.3874 -0.0080  0.1923
22016W        W42296  11.726   2.093   1.972 -0.0226 -0.1125  0.1091
22017W        W42297   1.928  14.616   0.755 -0.0381 -0.2333  0.0622
22018W        W42298  10.502   9.491   2.531 -0.0390 -0.2293 -0.0207
22019W        W42299   9.088   7.622   1.441 -0.1369  0.1791  0.0168
22020W        W42300  13.506  16.413   2.177  0.0398 -0.1932 -0.0469
22021W        W42301   6.032   2.955  11.866  0.0966  0.2459 -0.0040
22022W        W42302   2.169   9.231  12.320 -0.0132  0.0926 -0.1490
22023W        W42303  17.734  11.817   2.335  0.1704 -0.3133  0.1071
22024W        W42304  10.743   0.792   0.357  0.0470  0.1232  0.3344
22025W        W42305   5.279   3.955  12.758  0.0885 -0.0981 -0.1356
22026W        W42306  11.354   4.375  16.540  0.1596  0.2338  0.0748
22027W        W42307  10.275   1.394   2.035  0.0209 -0.2183 -0.1452
22028W        W42308   4.108  16.374   3.478 -0.1323 -0.0393  0.0315
22029W        W42309  15.895  11.677  15.103 -0.2960 -0.1440 -0.2513
22030W        W42310   6.713   3.087   1.301  0.1616  0.1915 -0.0148
22031W        W42311   7.403  12.569   1.457  0.0601  0.3154 -0.1310
22032W        W42312   2.788  15.082   0.827 -0.2325  0.2418  0.3071
22033W        W42313  17.244   1.401   4.281  0.0519 -0.2071  0.1492
22034W        W42314  12.167   1.673  14.927  0.3032  0.0205 -0.0084
22035W        W42315  11.293  12.778   5.261 -0.2362  0.1061 -0.0191
22036W        W42316  14.499   4.467  11.776  0.0522 -0.0339  0.5202
22037W        W42317  14.148  17.013  16.373 -0.0879 -0.0305 -0.1046
22038W        W42318  16.311  12.707   3.254  0.3014  0.1214 -0.2883
22039W        W42319   1.261   4.616   3.790 -0.2760  0.4445  0.2454
22040W        W42320  14.363  16.645   0.405 -0.1365 -0.3236  0.0050
22041W        W42321   2.543   3.932  15.221  0.1956 -0.0364 -0.1439
22042W        W42322   1.767  16.617  13.655  0.0691  0.0467  0.2909
22043W        W42323  13.346   2.703   0.993 -0.0323  0.2394 -0.0943
22044W        W42324  10.962   1.460  15.719 -0.2097 -0.1339 -0.5137
22045W        W42325  15.391   2.197   3.957  0.0112 -0.2507 -0.0653
22046W        W42326   1.641  17.463  12.721  0.0979  0.0107  0.1727
22047W        W42327   6.849   3.038   2.905 -0.2722 -0.1079  0.0414
22048W        W42328  11.595   7.342   2.213 -0.0670  0.0807  0.0283
22049W        W42329   0.907   7.944  13.775 -0.1653  0.1407 -0.0963
22050W        W42330   5.586   6.772  14.240 -0.1951  0.0204  0.2409
22051W        W42331  13.377   9.994  15.875 -0.3244  0.2929 -0.1578
22052W        W42332   4.810  12.423  15.614  0.0020  0.2521 -0.0252
22053W        W42333   8.432   0.646   1.486  0.0972  0.0607  0.0141
22054W        W42334   3.135   1.206   2.796  0.2015 -0.0965 -0.1164
22055W        W42335  14.929   8.558   2.926 -0.1073  0.1535  0.0746
22056W        W42336  12.521   3.011   5.136 -0.0732 -0.1853  0.2690
22057W        W42337  14.225   5.935  15.857 -0.0449 -0.2025  0.4057
22058W        W42338   0.377   1.839   0.794 -0.2030  0.2529  0.0170
22059W        W42339  13.704  13.426   0.253 -0.2267 -0.1857  0.0520
22060W        W42340   5.604   1.920  12.877  0.1406 -0.0801 -0.0028
22061W        W42341  12.899   4.179   5.764 -0.1671  0.0900 -0.1780
22062W        W42342   0.429   8.654   1.079  0.0859  0.0078 -0.1294
22063W        W42343  16.444   8.371   4.036  0.0180  0.2417  0.1832
22064W        W42344   0.323   6.811  15.459  0.2170 -0.1536 -0.1738
22065W        W42345   6.507   4.500   0.021 -0.2605  0.1859 -0.0536
22066W        W42346   8.291   9.852   2.475  0.1104 -0.1511  0.2015
22067W        W42347   9.106   1.145   3.278  0.0824 -0.0775 -0.1451
22068W        W42348  13.348   2.829   3.614  0.1066 -0.3206 -0.1391
22069W        W42349   3.835   8.617   2.887  0.0098 -0.3189  0.0475
22070W        W42350   5.448   1.296  12.176  0.1397  0.0476  0.1350
22071W        W42351  13.085   5.533   4.541  0.1201  0.2677  0.0465
22072W        W42352   0.151  11.425   2.734  0.1347 -0.1334 -0.3844
22073W        W42353   3.111   5.652  12.001  0.0426  0.1306  0.1003
22074W        W42354   2.367  13.845  15.971 -0.0359 -0.3885 -0.3366
22075W        W42355  14.507  11.722  12.286 -0.2668  0.0750 -0.1401
22076W        W42356   0.988   5.656  14.766  0.0747 -0.1359 -0.0599
22077W        W42357   9.221   4.876  12.511 -0.1082 -0.0258  0.1267
22078W        W42358  10.616   4.973   0.925  0.0979  0.0416 -0.0571
22079W        W42359   0.123   5.792   0.173  0.1377 -0.3308 -0.0635
22080W        W42360  10.443   8.970  16.548  0.1205 -0.2665 -0.2156
22081W        W42361   2.667   5.604   2.399 -0.1854 -0.0697 -0.0922
22082W        W42362  11.518   1.203  12.209 -0.1913  0.0907  0.0244
22083W        W42363   8.878  13.730   3.268 -0.1760  0.1787 -0.2070
22084W        W42364  15.984  10.119  14.398 -0.0704 -0.2175  0.1361
22085W        W42365   9.401  13.881  15.902 -0.3620  0.0213  0.2139
22086W        W42366  11.989  12.645   3.428  0.1289 -0.0374  0.1389
22087W        W42367  16.017  11.241   4.111  0.0423 -0.0761 -0.0538
22088W        W42368  16.190   3.923   3.927  0.1320 -0.0873 -0.0951
22089W        W42369  12.947   1.757  14.413 -0.1711 -0.2782 -0.0675
22090W        W42370   3.632   9.002   1.428 -0.1241 -0.1161 -0.0086
22091W        W42371   4.181  14.844   1.107  0.1547 -0.1872  0.0847
22092W        W42372  10.630  13.254  14.050  0.1782 -0.3061 -0.0799
22093W        W42373   9.429   6.636  12.858  0.0515  0.1043  0.1190
22094W        W42374  16.365   9.830  13.529  0.1993  0.1776  0.0238
22095W        W42375   4.188   2.609   2.989 -0.0720 -0.1379 -0.1122
22096W        W42376  10.673   9.794  13.534 -0.2126 -0.0331  0.0394
22097W        W42377   7.286   0.897   1.317  0.3563 -0.1555  0.3733
22098W        W42378   4.406   1.610   4.059  0.0173  0.2731 -0.1197
22099W        W42379   5.858  13.995   1.309 -0.0129 -0.1848 -0.5064
22100W        W42380  16.742   4.363  16.084  0.0814 -0.1439 -0.4564
22101W        W42381   9.777   1.717   0.285 -0.1853 -0.3457  0.1468
22102W        W42382   4.914  15.024  14.482  0.2118  0.0469 -0.3570
22103W        W42383  13.931   9.369   0.028  0.1356 -0.2810 -0.1847
22104W        W42384   9.616  10.087  13.750 -0.0573 -0.0146  0.0297
22105W        W42385  10.560  15.865   4.051 -0.3542 -0.2198  0.2032
22106W        W42386  14.124   6.696  12.076 -0.0334  0.0063  0.0519
22107W        W42387   8.952  12.580  14.358 -0.0758  0.1543 -0.2567
22108W        W42388  16.149   1.936   4.517  0.0370  0.1007 -0.0493
22109W        W42389  16.555  11.172   0.307 -0.1220 -0.2651 -0.0392
22110W        W42390  12.495   7.089  13.164  0.3284  0.2825  0.0477
22111W        W42391   0.089   4.589   4.422 -0.1323  0.1051 -0.0026
22112W        W42392   1.869   5.854  13.148  0.1229  0.0883 -0.4037
22113W        W42393  17.491   4.589  12.181  0.0829 -0.1073  0.2049
22114W        W42394   8.569  12.112   1.767  0.2691 -0.0382  0.1113
22115W        W42395   8.239   1.088   2.773 -0.0800 -0.1369  0.2443
22116W        W42396   7.998   9.228   1.278  0.2116  0.0167 -0.0486
22117W        W42397  10.484  10.428   1.193  0.2756 -0.0024  0.1634
22118W        W42398   3.981   8.814   1.744  0.1437  0.0088 -0.2395
22119W        W42399   3.666  16.904  12.991  0.0543  0.1582 -0.2364
22120W        W42400   6.423   7.320  15.417 -0.2481  0.1287 -0.2319
22121W        W42401  16.675  10.997  16.691  0.2441 -0.3058  0.0763
22122W        W42402   8.576   3.745   4.773  0.0970  0.1260 -0.0918
22123W        W42403   8.458   8.284  16.161  0.0993  0.2953 -0.2171
22124W        W42404  17.241   6.164   2.332  0.0747 -0.1590 -0.1752
22125W        W42405  15.568   9.761   2.880  0.0561 -0.2009  0.2279
22126W        W42406   0.181  12.968   2.694 -0.1692  0.0849 -0.1572
22127W        W42407   0.632  12.788  15.272  0.0594 -0.0756 -0.0528
22128W        W42408   6.064   9.070  16.839  0.1505  0.2056 -0.0685
22129W        W42409   0.827   1.029  16.217  0.1826  0.2872  0.0541
22130W        W42410   0.674   9.214   3.606 -0.0736  0.3350 -0.2212
22131W        W42411   9.204  14.896   2.696 -0.2026 -0.1526  0.0624
22132W        W42412  16.201   4.317  14.671 -0.2271 -0.2564  0.0612
22133W        W42413  17.504  16.537   4.312 -0.0389  0.2002 -0.0834
22134W        W42414   9.231  11.486   2.192  0.2930 -0.0823 -0.2718
22135W        W42415  10.936  13.990   1.806  0.0137 -0.0590  0.1108
22136W        W42416   3.771   8.855   2.325 -0.0603 -0.2876 -0.0274
22137W        W42417  11.726   7.045   0.390  0.2120 -0.2742 -0.1328
22138W        W42418   6.234  17.503   3.514  0.0566 -0.2086  0.2241
22139W        W42419   9.027   6.855  15.564 -0.1916  0.0771  0.2036
22140W        W42420   9.177   8.498   3.610  0.0440  0.0028 -0.1250
22141W        W42421   8.923   2.378   2.131  0.1546 -0.2366 -0.0278
22142W        W42422  17.692   5.714  13.284 -0.1084 -0.3542 -0.1438
22143W        W42423  12.003   6.784   1.011  0.2659  0.0769  0.0459
22144W        W42424   6.834  14.062  14.795 -0.1904  0.1162  0.2822
22145W        W42425  17.650   4.014   3.365 -0.0296 -0.1218 -0.0014
22146W        W42426   7.213  15.132   2.066 -0.0042 -0.0972 -0.2430
22147W        W42427   3.379   6.374  15.635  0.0832  0.2557  0.1399
22148W        W42428   2.157   8.734  14.016  0.1425  0.0169 -0.0497
22149W        W42429   2.864  11.531   3.114 -0.0288 -0.2759  0.0200
22150W        W42430   3.709   4.223   0.731 -0.1280  0.2391  0.2456
22151W        W42431  15.737  14.299  14.325  0.0019 -0.1207 -0.0906
22152W        W42432   0.413  17.051  16.765 -0.2532  0.1449 -0.2325
22153W        W42433   7.039  16.493  13.560 -0.1487  0.2565  0.3330
22154W        W42434   4.904   5.152   0.697 -0.0480 -0.0053  0.0684
22155W        W42435  13.162  11.416  13.306 -0.1145  0.0837  0.1076
22156W        W42436  15.648   6.967  15.557  0.1946  0.1115 -0.1243
22157W        W42437  12.620   0.309  15.458  0.0711  0.6229 -0.0023
22158W        W42438  15.298  16.578   4.259  0.0374  0.0560  0.2905
22159W        W42439   5.625   7.031   3.927  0.0840  0.3803 -0.0293
22160W        W42440  16.222  11.581   2.263 -0.0466 -0.1233 -0.0858
22161W        W42441   7.506  13.701  14.089  0.0571 -0.0791 -0.0360
22162W        W42442  10.721   1.210   0.612 -0.0687 -0.2163 -0.0583
22163W        W42443   4.411   6.028  16.548  0.2245 -0.3399 -0.0162
22164W        W42444   9.639   2.634   3.985  0.0469 -0.1745 -0.2770
22165W        W42445  15.826   6.026   2.938  0.2162  0.1252 -0.1406
22166W        W42446   1.223   0.670   3.984  0.0425 -0.2133  0.0341
22167W        W42447  11.528   4.211  12.574  0.0253  0.1391  0.0845
22168W        W42448  17.459   9.110  12.713 -0.0406 -0.2490  0.2495
22169W        W42449   2.559   0.088   1.874 -0.0688 -0.3359 -0.3013
22170W        W42450   4.931   7.273   2.881  0.1099  0.0865  0.0187
22171W        W42451   0.001   2.901   0.208  0.1103  0.1846  0.1044
22172W        W42452   1.347   0.970  15.922  0.0918  0.0963 -0.0841
22173W        W42453   5.391  12.802   2.919  0.0365  0.0155 -0.1064
22174W        W42454   0.923   1.209   2.972 -0.0387 -0.2304 -0.3856
22175W        W42455  15.626  13.631  16.147 -0.3018  0.0942  0.1965
22176W        W42456   5.809  11.011   0.127  0.0317  0.2080  0.0202
22177W        W42457   3.369  14.192   1.479 -0.2970  0.2559 -0.1048
22178W        W42458  14.421  14.293   4.794 -0.1188  0.1299  0.2172
22179W        W42459   3.347   5.151   2.834  0.1094  0.3325  0.0277
22180W        W42460  14.549  17.001  11.453  0.0699 -0.3982 -0.0475
22181W        W42461   2.931   3.827  13.930  0.1548 -0.1521 -0.0992
22182W        W42462   9.337  13.235  15.019  0.1537  0.3855 -0.0422
22183W        W42463  12.483   5.681  16.379 -0.0313 -0.2303 -0.1612
22184W        W42464  12.204   0.293  14.619 -0.2202 -0.1679 -0.1126
22185W        W42465   3.467  16.498   5.958 -0.2862 -0.0991  0.1059
22186W        W42466   6.295   4.730  15.378  0.1189 -0.2329  0.1378
22187W        W42467  14.633   0.676   4.172 -0.2191  0.1529 -0.0754
22188W        W42468   1.383   5.501  12.996 -0.1533  0.1004  0.4463
22189W        W42469   0.307   7.176   4.678  0.2118 -0.0791 -0.2119
22190W        W42470   6.220   8.811  15.054  0.0329 -0.0808 -0.1491
22191W        W42471  11.270  16.564  16.829 -0.1892 -0.0851  0.0360
22192W        W42472   2.196   3.916  16.410  0.0906  0.0680  0.0164
22193W        W42473  12.455  12.395   5.009 -0.1556  0.1309 -0.0138
22194W        W42474   0.053  16.111  14.533  0.0067  0.0631 -0.0491
22195W        W42475   6.136   2.001   0.222  0.0381  0.2747 -0.0151
22196W        W42476   6.529  15.592  14.360 -0.0652  0.0445  0.0889
22197W        W42477  13.003   3.708   2.574  0.3447  0.3127 -0.1212
22198W        W42478  13.457  12.221   0.379  0.2547  0.0411 -0.2801
22199W        W42479   0.914   1.995  16.406 -0.0866  0.1563  0.2601
22200W        W42480  12.624   4.984   4.462 -0.1601  0.1177 -0.2014
22201W        W42481  13.351   7.019   3.680  0.2979  0.0229  0.1663
22202W        W42482   5.505   5.270  10.877 -0.3530 -0.2735 -0.2872
22203W        W42483  10.133  11.726   4.547  0.3030 -0.0794 -0.2650
22204W        W42484  10.903   9.897  12.652  0.2279  0.2678  0.1518
22205W        W42485   8.626  14.603  13.517 -0.0644  0.0022  0.0236
22206W        W42486   5.851   1.430  14.254  0.2208 -0.0991  0.1199
22207W        W42487  16.392   9.553   0.507  0.0523  0.1704 -0.2632
22208W        W42488  17.572  13.304   2.704 -0.0775 -0.1507 -0.3359
22209W        W42489  13.123  12.476  15.678  0.3634  0.0200  0.1723
22210W        W42490   0.265   6.413  12.745 -0.0797  0.0364 -0.0765
22211W        W42491  13.588   2.504  15.875  0.0841 -0.1782 -0.0797
22212W        W42492  14.076  17.731   4.007 -0.1110 -0.0678 -0.1823
22213W        W42493  17.189   4.771  14.056  0.0455  0.2728  0.1903
22214W        W42494  13.779  15.972   0.398  0.0833 -0.3842  0.2466
22215W        W42495  16.458   2.085  15.096 -0.2191  0.1939  0.0237
22216W        W42496  15.201   4.656  14.741 -0.0999  0.1773 -0.0701
22217W        W42497   7.924  14.563  14.106 -0.0240 -0.0940  0.1759
22218W        W42498   9.382  16.965  14.210 -0.1218 -0.1785 -0.0744
22219W        W42499   7.834   3.958  12.967  0.2032 -0.0994  0.2569
22220W        W42500  16.322   8.127   1.751 -0.2136 -0.0313 -0.2501
22221W        W42501  17.657  16.855  15.757  0.0859 -0.0060  0.0105
22222W        W42502  10.073   6.687   1.349 -0.0579 -0.1784 -0.1039
22223W        W42503   5.293   8.705   0.550 -0.3493 -0.1009 -0.3186
22224W        W42504  15.289   4.973  15.266  0.1709  0.1883 -0.1099
22225W        W42505   3.214   5.566   2.616  0.1729 -0.0567  0.2380
22226W        W42506   8.445  15.372   0.810  0.3090 -0.1436 -0.0725
22227W        W42507   5.152  11.213  13.951  0.2254  0.3366  0.2194
22228W        W42508  10.974  11.485  13.333  0.1090 -0.0302  0.3607
22229W        W42509  11.155   0.559   3.559 -0.1030  0.0155  0.0197
22230W        W42510   5.719   7.671   2.901  0.0803  0.2534  0.0686
22231W        W42511   1.964  13.478   4.113  0.1139  0.0386  0.2613
22232W        W42512   4.104  17.116  16.240  0.1785  0.0443  0.1909
22233W        W42513   6.991   3.940  13.533  0.1589 -0.2345 -0.0641
22234W        W42514   4.437  16.461  12.027 -0.1707 -0.3130  0.3552
22235W        W42515  16.576   6.983  15.024  0.0197  0.0754 -0.0372
22236W        W42516   3.915   7.137   0.221  0.4726 -0.0021  0.1971
22237W        W42517  12.913   4.486   5.343 -0.0980 -0.0660 -0.0834
22238W        W42518   2.885  16.543  14.496  0.0993  0.1086  0.2460
22239W        W42519  13.451   5.858  14.746 -0.1817 -0.6131  0.0614
22240W        W42520   3.311   3.601  15.530  0.0093 -0.0721  0.2388
22241W        W42521  16.472  10.706  13.149  0.3513  0.2067 -0.0959
22242W        W42522   5.320   4.718   3.044 -0.0194  0.1670  0.1954
22243W        W42523   0.490  13.145  12.268 -0.1448  0.2426 -0.2320
22244W        W42524   9.556   5.344   4.511 -0.0070  0.0489  0.0235
22245W        W42525  15.884   6.005  12.980 -0.0129 -0.0909  0.2159
22246W        W42526  14.096   1.828   3.772 -0.2085  0.4552 -0.0927
22247W        W42527  13.010  13.955  14.770  0.1911  0.2086  0.0103
22248W        W42528  16.356   0.049   4.993 -0.0789 -0.3172 -0.1915
22249W        W42529   8.064   3.219  15.068 -0.1549 -0.1577 -0.2843
22250W        W42530   2.497   2.366  16.164  0.2788  0.0296  0.2815
22251W        W42531  16.367  14.546  13.708 -0.1282 -0.0865  0.0737
22252W        W42532  13.851  14.364  12.529 -0.0291 -0.1456  0.0118
22253W        W42533   4.331  12.608  13.260  0.0937  0.1750 -0.1110
22254W        W42534   5.803   2.847  14.633  0.0117  0.1788  0.0183
22255W        W42535   4.921   7.469  14.319 -0.1769 -0.2147 -0.3306
22256W        W42536   8.846   0.509  16.697 -0.2020  0.2625 -0.2665
22257W        W42537   4.773   6.196   0.222  0.0697 -0.1190 -0.0882
22258W        W42538  11.222  16.528   2.074 -0.0355  0.0609 -0.2699
22259W        W42539   9.099   7.327  16.723 -0.1589  0.1389 -0.0670
22260W        W42540   7.251   6.720   1.417 -0.2080 -0.0215 -0.0599
22261W        W42541   4.695   7.692  12.525 -0.1232  0.1208  0.1200
22262W        W42542  10.555  16.248   5.127 -0.0498  0.0301  0.3600
22263W        W42543   6.717  10.920  15.311 -0.0022  0.0973 -0.1597
22264W        W42544   8.121  17.526   3.243 -0.0779  0.0889 -0.3211
22265W        W42545   0.346  10.650  13.791  0.2588 -0.0834 -0.2916
22266W        W42546  15.841  15.467   0.271 -0.2626  0.0073  0.2184
22267W        W42547   2.695   7.184  13.279 -0.0750  0.1450  0.0901
22268W        W42548  17.541   6.834  13.038  0.4406  0.0630  0.1557
22269W        W42549  13.925  10.106   3.498  0.2573  0.1479  0.0427
22270W        W42550   3.928   3.480   0.839  0.0867  0.0394 -0.0535
22271W        W42551   2.948  10.387  15.043 -0.2431 -0.1811 -0.1881
22272W        W42552   1.648  11.328   0.101 -0.1253 -0.0410  0.1730
22273W        W42553   8.409  16.981  16.136 -0.2907 -0.0580  0.0391
22274W        W42554   3.888   9.855  16.581 -0.1601  0.3349 -0.1079
22275W        W42555   2.376  15.012  15.242  0.0630 -0.3158 -0.0672
22276W        W42556  13.569   5.024   3.060  0.2804  0.1215  0.2172
22277W        W42557   6.388  16.511  14.173 -0.2583 -0.0064 -0.1152
22278W        W42558   2.329  11.301   2.307  0.1518  0.2283  0.0663
22279W        W42559   0.142  14.608   3.299  0.1204  0.2119 -0.0803
22280W        W42560  11.851   1.927   4.623  0.0203  0.2135 -0.2125
22281W        W42561  13.577   1.857   5.292 -0.0789  0.0589  0.3105
22282W        W42562   7.230   6.028  13.048 -0.1541  0.0983  0.2535
22283W        W42563   8.630  12.554  14.811 -0.1303 -0.0063  0.2695
22284W        W42564  12.023  10.218   1.601  0.1687  0.1939  0.0236
22285W        W42565   4.881   2.141  13.198  0.1427 -0.2422 -0.0166
22286W        W42566  15.434   8.963   3.748 -0.1205 -0.0241 -0.1070
22287W        W42567   8.834   9.152   4.166 -0.3176 -0.3322  0.2297
22288W        W42568  10.978   0.837  15.260 -0.0347  0.0859 -0.1976
22289W        W42569  11.264  12.201   2.479  0.1046  0.0770 -0.0444
22290W        W42570  15.627  14.461   4.654  0.2124 -0.3182 -0.1049
22291W        W42571   8.979  16.695   1.518 -0.4796  0.0166  0.0728
22292W        W42572   0.687  16.978   1.201 -0.0244  0.3047 -0.1003
22293W        W42573   9.872   9.569   3.165  0.1827  0.0990  0.0216
22294W        W42574   6.259  12.926  14.150  0.2103  0.1163 -0.0987
22295W        W42575  16.733   8.459  12.775 -0.0492  0.1046  0.0269
22296W        W42576   0.794   5.822   4.150 -0.1966  0.1891 -0.1332
22297W        W42577  16.550  16.453  15.108 -0.0112  0.1694  0.0600
22298W        W42578   8.371  12.767   0.246 -0.2734 -0.1308  0.0719
22299W        W42579  17.579  16.154  12.516 -0.0662  0.1370  0.1239
22300W        W42580  14.520   9.085   1.573  0.1899 -0.0289 -0.0993
22301W        W42581   6.508  16.077   4.792 -0.1512  0.1985 -0.2568
22302W        W42582   3.095   6.801   3.166  0.0316  0.1028 -0.3183
22303W        W42583  15.601  14.904   4.314 -0.1589  0.2482 -0.2374
22304W        W42584  10.637   6.630  11.897 -0.0957 -0.0240 -0.0799
22305W        W42585  14.738  10.650   5.193  0.1375  0.2103  0.0594
22306W        W42586   3.139  15.252  15.029  0.1494  0.0557 -0.3006
22307W        W42587  13.556   4.215  12.778 -0.0575  0.1538  0.1501
22308W        W42588   8.312  11.485   1.881 -0.0395  0.1136  0.3304
22309W        W42589  10.519   9.187   1.539 -0.2116 -0.1639 -0.0067
22310W        W42590  12.933   9.990  12.388 -0.0388  0.2842 -0.2476
22311W        W42591   8.817  14.536  11.964 -0.2218  0.3762  0.1978
22312W        W42592   6.361   2.475   3.819 -0.1085  0.1779 -0.0722
22313W        W42593   2.196   2.195   3.545 -0.0857 -0.0912 -0.0544
22314W        W42594  10.801   1.774   1.941  0.4848 -0.1109  0.1381
22315W        W42595  14.193   3.730  16.403  0.0501 -0.1004  0.2040
22316W        W42596   8.091   3.720   4.642 -0.2811 -0.2874  0.0402
22317W        W42597  13.619   0.099  14.988 -0.0528 -0.1316 -0.0330
22318W        W42598  15.639  11.142   4.779  0.1093 -0.2231  0.2622
22319W        W42599  13.499   4.860   2.105 -0.2796 -0.1064 -0.0358
22320W        W42600  15.238   0.654   2.143  0.1733  0.0598 -0.0017
22321W        W42601   6.722   5.125   3.843  0.2065 -0.2873  0.0996
22322W        W42602   4.910  12.323   3.368 -0.1902 -0.0662 -0.1062
22323W        W42603   4.067   9.455  16.260 -0.4026  0.0540 -0.1502
22324W        W42604   2.127   6.715   3.741 -0.1504 -0.1615 -0.0737
22325W        W42605  13.187   7.628  13.538  0.0165 -0.0180  0.0925
22326W        W42606  16.202   9.640  16.878  0.2124  0.0970 -0.0177
22327W        W42607  11.033  17.165  14.800  0.0381  0.0688  0.0224
22328W        W42608   5.405  10.712  13.413 -0.0052  0.3475 -0.3462
22329W        W42609   3.973   3.368   4.580 -0.0258  0.0289 -0.1294
22330W        W42610  13.323   6.981  14.379  0.2539 -0.0880 -0.1774
22331W        W42611  15.711  17.608   0.358 -0.0321 -0.3735  0.4429
22332W        W42612  13.441   5.024   0.791  0.1588 -0.0276 -0.0853
22333W        W42613  15.239  15.960  13.005  0.0294  0.2494  0.1704
22334W        W42614  10.000   1.842   0.763  0.2911 -0.1992  0.1297
22335W        W42615   1.661   1.668  15.316  0.0009  0.0340  0.2215
22336W        W42616   2.059  15.682  12.307  0.0180  0.0330 -0.1660
22337W        W42617   5.988   4.094   2.542 -0.1648  0.2064  0.1772
22338W        W42618   7.772   8.945   3.952  0.0372  0.0358 -0.0489
22339W        W42619   9.101   5.645  13.142 -0.0910 -0.2090  0.1695
22340W        W42620   3.588  12.724  14.483 -0.0723 -0.1560  0.0281
22341W        W42621   0.036   7.773   3.999 -0.1525  0.1549 -0.0533
22342W        W42622  15.692  13.631   0.962  0.2324  0.0550 -0.2792
22343W        W42623  17.207  13.686  16.318 -0.1140 -0.0824  0.0177
22344W        W42624   4.795   6.927  13.752  0.0328  0.1813 -0.1463
22345W        W42625   3.836   3.964  12.913  0.0611 -0.0029  0.0542
22346W        W42626   4.621   2.966   1.167 -0.1805  0.1755  0.2243
22347W        W42627  10.377  17.310  14.009 -0.1782  0.1831  0.2481
22348W        W42628  11.584  16.571  13.690 -0.2052  0.0581  0.0846
22349W        W42629   3.304  11.096  13.812  0.4551  0.2145  0.0085
22350W        W42630  13.834   2.996   3.524  0.0318  0.2000  0.0445
22351W        W42631   6.678  14.775   4.946 -0.2051 -0.0973 -0.0986
22352W        W42632   2.031  14.126   1.956  0.0031 -0.1779 -0.2811
22353W        W42633  17.041   8.745   4.753 -0.1225 -0.1845  0.1542
22354W        W42634  10.031  12.295   1.726 -0.0297  0.1990  0.0294
22355W        W42635   0.025   6.945   1.288  0.0716 -0.0158  0.1279
22356W        W42636  10.007   8.529   2.294 -0.0851 -0.1612  0.0513
22357W        W42637   2.241   8.367  15.562 -0.2348 -0.3633 -0.0002
22358W        W42638   6.604   1.488   4.235  0.1013 -0.0072 -0.0394
22359W        W42639  14.055  10.919   3.329  0.3120  0.2901  0.1134
22360W        W42640   7.521  16.010   3.695 -0.0361  0.2264  0.2291
22361W        W42641  17.482  15.104  15.024  0.2869  0.0953 -0.2260
22362W        W42642   8.130   7.663  16.660  0.2081  0.1052 -0.0090
22363W        W42643  17.466  16.491  13.169 -0.1113 -0.1096 -0.1445
22364W        W42644   6.424   2.764   2.669  0.0110  0.0353  0.1335
22365W        W42645   4.899   1.074  13.583 -0.1649  0.0216  0.2786
22366W        W42646  13.753  13.708  15.436 -0.1359  0.0687  0.1163
22367W        W42647  11.137   4.048  15.575 -0.3549 -0.0771  0.0228
22368W        W42648  15.270   1.324  12.381 -0.0623 -0.0253 -0.0259
22369W        W42649   6.947   2.759  15.494 -0.1570 -0.3960 -0.3323
22370W        W42650  16.882  14.312   2.129  0.0989 -0.0924 -0.0433
22371W        W42651  15.822   9.233  16.035 -0.3135 -0.0949  0.0489
22372W        W42652  12.086   0.819  13.287  0.1699  0.1139 -0.0379
22373W        W42653   3.873  11.082  11.987  0.3156  0.1536 -0.0962
22374W        W42654   0.651   8.148  12.075 -0.4658 -0.0597  0.0916
22375W        W42655   7.896  17.457  15.506 -0.0554  0.1337  0.1021
22376W        W42656   7.968  10.485  16.671  0.3231  0.1715  0.1765
22377W        W42657   2.892   4.113   2.373 -0.2569  0.0752  0.4775
22378W        W42658   7.589  17.480   2.175  0.1316  0.0938  0.1445
22379W        W42659  16.259   9.242  12.884 -0.1434  0.0482 -0.1632
22380W        W42660   3.674  15.161  15.800 -0.0403  0.0179 -0.1490
22381W        W42661   5.614   2.906  15.588 -0.0713 -0.0994 -0.1134
22382W        W42662  15.251  12.606  15.504 -0.1520 -0.0158  0.0449
22383W        W42663  11.820   9.275  16.533 -0.2420 -0.1371  0.0416
22384W        W42664   7.896   8.394  13.122  0.2169 -0.0125  0.0966
22385W        W42665  14.304  13.611   2.156  0.2420  0.1367 -0.0984
22386W        W42666  10.768  12.619  13.848 -0.2346 -0.1057  0.0288
22387W        W42667   0.582  12.231   3.677  0.0792 -0.0063  0.1257
22388W        W42668   4.420  12.180   0.711  0.0367 -0.1918  0.0174
22389W        W42669   6.928  10.624  15.626 -0.2722  0.0941 -0.0533
22390W        W42670   2.485   3.437  12.460  0.2750  0.0059 -0.2185
22391W        W42671  12.149  13.783   0.472  0.0900  0.0294 -0.0100
22392W        W42672  16.322  15.541   4.507  0.0377  0.0969 -0.0164
22393W        W42673   5.518   2.603   1.125 -0.1368 -0.4363  0.3385
22394W        W42674   0.968  14.333   1.011  0.1021 -0.2264  0.2706
22395W        W42675   6.686  14.456   0.555  0.1601 -0.1704  0.0637
22396W        W42676   5.259   6.029  16.246 -0.1391 -0.0001  0.1598
22397W        W42677   0.880   9.012  12.895  0.0188  0.0291  0.1473
22398W        W42678   8.753   6.230   2.701  0.0679 -0.0779 -0.1362
22399W        W42679   9.984  13.932  12.328 -0.1355 -0.0944 -0.1072
22400W        W42680  14.581   8.628   0.322  0.2380 -0.2710 -0.1576
22401W        W42681  14.248   5.204  15.325  0.0482 -0.2825 -0.3476
22402W        W42682   7.124   8.572  14.936 -0.0027 -0.1627 -0.3844
22403W        W42683   8.991  14.348   4.280 -0.2567 -0.0008  0.2413
22404W        W42684  15.245   4.782   0.235  0.0505  0.0551  0.3456
22405W        W42685  11.845  14.413  12.934 -0.0659  0.0706 -0.1321
22406W        W42686  11.213   9.650   3.577 -0.5211  0.3849  0.1178
22407W        W42687   1.428   3.410   1.244  0.1483  0.1513  0.0443
22408W        W42688   8.717  12.761   0.968 -0.2976  0.1868 -0.2726
22409W        W42689   7.579  15.711   4.956 -0.0129 -0.1288 -0.0663
22410W        W42690   7.316  16.362  16.653 -0.0252  0.1120  0.1705
22411W        W42691  16.156  10.147  14.876  0.2883  0.2716  0.0859
22412W        W42692   3.234   2.579  14.074  0.0815 -0.0296  0.2724
22413W        W42693   0.061  10.915  12.542 -0.0532  0.4577  0.1656
22414W        W42694   9.163  13.723   0.568 -0.0856  0.1902  0.1262
22415W        W42695  14.516  16.649  15.407  0.2914  0.1385 -0.2507
22416W        W42696   6.794   4.609  14.412  0.4273 -0.2631  0.4659
22417W        W42697   9.420  10.620   3.470  0.1159 -0.1703 -0.1750
22418W        W42698  17.022  10.097  15.213 -0.2451  0.0047  0.0459
22419W        W42699  12.985   7.617   3.162  0.1127  0.0067  0.1742
22420W        W42700  14.742   9.004   2.023  0.1134 -0.1826  0.0321
22421W        W42701  17.689   1.721   2.496 -0.2493 -0.0808 -0.0676
22422W        W42702   4.257   9.195   1.955 -0.0014  0.0277  0.1935
22423W        W42703  13.341   1.336   2.661  0.1543 -0.1939 -0.1630
22424W        W42704  10.673  13.579   2.470  0.2326  0.0916 -0.0131
22425W        W42705   9.240   7.793  15.256  0.0263 -0.0576  0.1710
22426W        W42706  16.010   5.465  14.532  0.2660  0.1778 -0.1434
22427W        W42707  13.605   3.432   1.992  0.1122  0.0219 -0.3495
22428W        W42708   3.921  16.432   2.331 -0.4752  0.0202  0.1443
22429W        W42709  13.986  12.855  15.019  0.1501  0.1790  0.0717
22430W        W42710  16.234   6.044  15.108  0.0192  0.1844 -0.0430
22431W        W42711   1.793  15.495  14.544 -0.0099 -0.0679 -0.0047
22432W        W42712   1.612   4.232  13.014 -0.3818  0.0897  0.0837
22433W        W42713  12.662   3.261   4.101  0.0038  0.0457 -0.0365
22434W        W42714   3.897   4.523  13.653  0.0161 -0.1730 -0.2189
22435W        W42715   3.843  11.716   0.324  0.0838 -0.0291 -0.1491
22436W        W42716   5.315  12.426   4.155 -0.0742 -0.0624  0.0240
22437W        W42717  16.501  12.204  13.325  0.0051  0.0535  0.0098
22438W        W42718  10.012  13.106   3.084  0.0246  0.1030  0.0862
22439W        W42719  11.391  13.163  15.563 -0.0715  0.0339 -0.1840
22440W        W42720  16.620   2.606   2.021  0.0140 -0.0435 -0.1206
22441W        W42721  15.961   3.975  16.553  0.0157 -0.4190  0.1817
22442W        W42722   7.452   9.203  15.489 -0.0755 -0.2727  0.0947
22443W        W42723  15.715   9.311  13.832  0.0972 -0.2081 -0.1128
22444W        W42724  16.735  10.535   4.142 -0.2965 -0.0839  0.0698
22445W        W42725   3.384   9.795  11.976 -0.0312 -0.1934  0.0352
22446W        W42726  15.399   0.845   1.076  0.0068 -0.0612 -0.0194
22447W        W42727   5.949  10.867  15.818 -0.1783  0.0621 -0.0965
22448W        W42728   6.174  11.684  13.423 -0.0314  0.0097 -0.1366
22449W        W42729   1.218  10.364  14.510  0.1453  0.1979 -0.2596
22450W        W42730  12.075   2.257   0.360  0.0432 -0.0316  0.1112
22451W        W42731   4.203   7.681   3.866 -0.1727 -0.0998  0.2470
22452W        W42732   6.960   1.765  13.191  0.0364  0.2552 -0.0036
22453W        W42733  15.112  14.909   0.660 -0.2714 -0.1616 -0.3132
22454W        W42734  16.826   8.722   5.635 -0.0726 -0.1038 -0.0323
22455W        W42735   3.817   4.669   3.971 -0.0767  0.2155 -0.1312
22456W        W42736   4.974   8.247   4.483 -0.2745  0.1629 -0.1150
22457W        W42737   3.219   7.939  12.229 -0.1371  0.0208  0.3675
22458W        W42738  10.995   3.586   4.411  0.2355 -0.1039  0.0036
22459W        W42739   4.166  12.528  12.614 -0.0773 -0.3265 -0.0807
22460W        W42740   1.603   0.148   5.113 -0.0222 -0.0441  0.1829
22461W        W42741   5.523  10.789  13.922 -0.0736 -0.1288 -0.0945
22462W        W42742   4.943  10.937  14.734 -0.0254  0.1816 -0.0224
22463W        W42743   1.297  12.686  12.312 -0.0488 -0.2082 -0.3084
22464W        W42744  14.707  13.535   0.906 -0.3651  0.3439  0.1011
22465W        W42745   8.605   2.058   1.899  0.0286 -0.0279  0.0467
22466W        W42746  10.091   3.194  16.463  0.1584  0.1343 -0.1424
22467W        W42747   9.823  11.003  15.196  0.0013 -0.1300  0.1873
22468W        W42748   3.197   0.323  13.754  0.1586 -0.1288  0.1418
22469W        W42749   9.833  15.535  15.148 -0.3111  0.0858 -0.1766
22470W        W42750  12.902  13.467  15.544 -0.1705 -0.2434 -0.1062
22471W        W42751  11.158   3.124   3.643  0.0200  0.1253 -0.0899
22472W        W42752   7.256  11.334   0.889  0.1551 -0.1945  0.2456
22473W        W42753  10.813   5.928   3.528  0.1472  0.5263 -0.4379
22474W        W42754  11.651  17.089   3.473  0.3201  0.2768  0.0708
22475W        W42755   5.408  13.000   3.906  0.1916 -0.3676  0.1562
22476W        W42756  16.492   7.455   4.442 -0.0404  0.0363  0.0175
22477W        W42757   7.508  11.812  14.077  0.1648 -0.1233  0.0289
22478W        W42758  17.552   6.253  12.818  0.1727  0.0355  0.0130
22479W        W42759   4.282  16.606   2.006  0.1325  0.2815 -0.1505
22480W        W42760   9.876  11.208  12.402 -0.2410  0.0542  0.0377
22481W        W42761   9.576   1.750  13.148 -0.0353  0.0697  0.0936
22482W        W42762   9.842   0.274  14.254  0.0687  0.3105 -0.1160
22483W        W42763  14.448  13.178  12.556  0.2298 -0.1600 -0.0528
22484W        W42764  15.855  11.459   1.825  0.4604  0.0178 -0.0177
22485W        W42765   7.969   0.406   1.712  0.1070  0.2372  0.0249
22486W        W42766   6.018   2.506   0.983  0.0673  0.2730 -0.0477
22487W        W42767   7.241  17.339   0.456 -0.1077  0.0489  0.1206
22488W        W42768   2.240   1.458   3.813 -0.1880  0.0778  0.2617
22489W        W42769   8.975   2.316  12.190 -0.0472  0.0926 -0.0428
22490W        W42770  14.454  15.431   4.023  0.2043  0.0119  0.0736
22491W        W42771   4.752   3.106  13.042 -0.1196  0.1071 -0.0038
22492W        W42772   1.261  14.543   2.293 -0.0819  0.0364 -0.2036
22493W        W42773  13.699   5.861  15.875  0.2128 -0.0754  0.0843
22494W        W42774   7.198  17.259  16.581 -0.4664  0.1875 -0.0068
22495W        W42775  11.967   6.320   1.276 -0.0914  0.2233  0.0408
22496W        W42776   2.810   7.346   2.525  0.2709  0.4283 -0.0496
22497W        W42777   2.827  10.512  15.941 -0.1013 -0.0334 -0.4077
22498W        W42778  16.461   6.417  16.025  0.3905 -0.1138  0.1930
22499W        W42779  17.149   8.594   1.313  0.1869  0.1925 -0.1462
22500W        W42780  15.869  15.798   4.520  0.0669 -0.1250 -0.0300
22501W        W42781  14.911  16.544   3.952  0.0382 -0.2580 -0.1375
22502W        W42782   9.924   4.940  15.383 -0.0360 -0.0139 -0.1455
22503W        W42783   1.953   7.808   3.111  0.1146 -0.2837  0.0722
22504W        W42784  17.522  16.903   1.509 -0.1009 -0.0244  0.2818
22505W        W42785  12.185  10.380   0.178  0.3348  0.2378  0.0437
22506W        W42786  15.251   5.162  14.230  0.1872  0.1575  0.0365
22507W        W42787  13.597   8.613   4.000 -0.2211  0.2090  0.0387
22508W        W42788   5.648  16.005   4.299  0.0951  0.2624 -0.2379
22509W        W42789  15.566  17.634  15.343 -0.0661 -0.3005  0.0958
22510W        W42790   1.439   3.941  15.186 -0.1762  0.3257 -0.2763
22511W        W42791  15.444  16.989   5.040 -0.0126  0.2017 -0.1713
22512W        W42792   1.183  12.330  16.667 -0.4255 -0.0667 -0.2909
22513W        W42793   6.468  11.845  14.211  0.1832 -0.2624  0.0393
22514W        W42794  15.512   4.429   5.100 -0.3854  0.1560  0.1741
22515W        W42795   4.608   4.624  14.202  0.1795 -0.0026  0.0855
22516W        W42796   0.769   6.939   0.717  0.0798 -0.0464 -0.0950
22517W        W42797  12.289   8.787   0.831  0.0772 -0.2057 -0.3054
22518W        W42798  10.477   0.740   0.846 -0.3731 -0.1876 -0.2156
22519W        W42799  11.962   1.037  14.171  0.1231  0.1505 -0.2078
22520W        W42800  12.955  12.890   3.518 -0.3324  0.1267  0.2583
22521W        W42801   5.652  16.116   0.462  0.2312  0.0865  0.0056
22522W        W42802   4.316  16.266  14.142 -0.1571 -0.0244  0.1898
22523W        W42803   8.889   5.946  13.958 -0.1163  0.1017 -0.0274
22524W        W42804  17.307   2.243  12.194 -0.1270  0.0253 -0.1752
22525W        W42805   8.217  16.579   4.548 -0.0228 -0.1416 -0.0213
22526W        W42806  12.348  17.587   4.411 -0.0263  0.1729  0.0713
22527W        W42807  16.026   3.689   0.516 -0.1387 -0.1239  0.2262
22528W        W42808   8.710  10.025   0.646 -0.0142 -0.1285 -0.0251
22529W        W42809   2.900   6.095  14.430  0.1565 -0.2068  0.0132
22530W        W42810  16.998   3.097   2.215  0.3255 -0.2154 -0.2616
22531W        W42811   3.185   4.277   1.864 -0.1683 -0.1674  0.0354
22532W        W42812  11.516   3.603   4.405 -0.2170 -0.3842  0.0448
22533W        W42813   7.225   4.795   1.371 -0.0963 -0.0194  0.0212
22534W        W42814   1.643   9.679  14.652 -0.0318  0.2007  0.1355
22535W        W42815  10.284  17.072   4.686  0.0056  0.1363 -0.1576
22536W        W42816   4.184  11.848  14.081  0.0680 -0.3488  0.1373
22537W        W42817   0.761   0.039  12.373  0.1874  0.0540  0.1308
22538W        W42818  16.404   5.451  16.772 -0.0772 -0.4566 -0.0339
22539W        W42819  13.353  15.649   3.326  0.0847 -0.2589 -0.1692
22540W        W42820   1.973   8.508  13.385 -0.0371  0.1417  0.2409
22541W        W42821   2.209   0.836   1.570 -0.1020  0.1262 -0.3276
22542W        W42822   9.880  17.026  16.861  0.2479  0.0270 -0.0289
22543W        W42823   4.060   3.520  16.530 -0.0939 -0.0442  0.0762
22544W        W42824  15.866   5.336  12.224 -0.0386  0.1474 -0.0993
22545W        W42825   2.541   5.797   0.150 -0.0729 -0.2550  0.2561
22546W        W42826  13.699   9.087   5.027  0.0345  0.1187 -0.3472
22547W        W42827   6.613  12.379   3.298  0.0170  0.0534  0.1148
22548W        W42828  15.971   4.789  16.392 -0.0040 -0.1007 -0.1061
22549W        W42829   1.786  12.956  15.221  0.0946 -0.0593  0.0900
22550W        W42830  17.736   4.006   0.750  0.1839 -0.1735 -0.3311
22551W        W42831  17.071   9.862   1.172  0.0515  0.2279 -0.3065
22552W        W42832  11.054   2.871   4.485 -0.3759  0.1381 -0.0061
22553W        W42833   2.542   3.771  12.837  0.2206 -0.1496 -0.0115
22554W        W42834  10.255   4.618   1.242  0.4432  0.2602 -0.1899
22555W        W42835  10.037  10.373   1.052  0.2633 -0.1033 -0.2100
22556W        W42836  17.075  16.107  14.590  0.1880 -0.2581  0.1591
22557W        W42837   8.753   7.980   3.012 -0.0773 -0.0930 -0.0712
22558W        W42838  11.126   0.506   1.331 -0.0425 -0.2102  0.1374
22559W        W42839   1.403   5.328  16.008  0.0439 -0.1810 -0.1412
22560W        W42840  16.167   1.888   0.580  0.0557  0.1209 -0.0109
22561W        W42841   9.757   9.926  15.310 -0.1461  0.0459 -0.1285
22562W        W42842   3.481  16.832   4.856 -0.2286  0.1534 -0.0802
22563W        W42843  12.516  17.545   0.365  0.1190 -0.0562  0.0111
22564W        W42844  14.529  11.513  15.943 -0.0510 -0.2360 -0.0123
22565W        W42845  12.134   7.749  14.616 -0.0419 -0.2506  0.0433
22566W        W42846   8.234  11.530  13.678 -0.1304 -0.0800 -0.1329
22567W        W42847  17.039  11.647   0.925  0.0105 -0.0524 -0.1872
22568W        W42848   0.150   5.257  12.775  0.0585 -0.0017 -0.3298
22569W        W42849   9.357   8.963  13.097  0.0275 -0.0139  0.0704
22570W        W42850  17.390  12.193  14.395 -0.1825  0.0353 -0.2215
22571W        W42851   0.399   9.690   0.323  0.0218  0.0206  0.1226
22572W        W42852   2.566  16.683   4.305 -0.1943  0.0664  0.3060
22573W        W42853   5.620  14.460   1.365  0.0337 -0.1795  0.0403
22574W        W42854  17.708   6.340   1.221  0.0899 -0.3023  0.0369
22575W        W42855  14.418  15.544   0.958 -0.0414  0.3780  0.0597
22576W        W42856   9.762  11.509  15.343 -0.0168 -0.2136 -0.0462
22577W        W42857   0.640  16.441  16.885  0.1058 -0.2045  0.0599
22578W        W42858  11.892  13.037   2.155  0.0151 -0.2756 -0.0928
22579W        W42859   5.006  16.272  15.425  0.0475 -0.2961 -0.2116
22580W        W42860   0.358  14.204   2.047 -0.0101  0.1300 -0.2324
22581W        W42861   7.564  14.518  15.695 -0.2077 -0.1852 -0.2672
22582W        W42862   6.148  13.784   0.384  0.0714 -0.1862 -0.0419
22583W        W42863  15.362  17.443   3.393  0.1124  0.1298  0.1416
22584W        W42864   4.023  15.924  14.364 -0.1893 -0.1124  0.0630
22585W        W42865  13.573   6.094  15.257  0.1232  0.3518 -0.2144
22586W        W42866   7.956  11.266  12.362  0.1290  0.1308 -0.2331
22587W        W42867   4.172   3.357   4.092  0.0261  0.0057 -0.1059
22588W        W42868   1.767   0.942  15.001 -0.2242  0.2733  0.0802
22589W        W42869   2.252   1.338   1.195  0.1213 -0.3176 -0.1328
22590W        W42870   8.055   9.703   3.363  0.1593  0.2253 -0.1265
22591W        W42871   4.182   6.517  12.626 -0.2814  0.1655  0.2507
22592W        W42872   7.154   4.669  13.065 -0.1484 -0.1472  0.4485
22593W        W42873  17.332   5.925  14.447 -0.1995 -0.1015 -0.0188
22594W        W42874   7.502   8.748  13.765  0.0707 -0.1827  0.1290
22595W        W42875   4.336   8.519   2.056 -0.2057  0.0400 -0.1344
22596W        W42876  16.660   2.144   2.337 -0.2203 -0.0345 -0.2965
22597W        W42877  13.310  16.942   3.298  0.0082 -0.2387 -0.4301
22598W        W42878   9.721   4.854  11.993 -0.1295 -0.1767  0.1838
22599W        W42879   6.707  17.690   0.245  0.0523 -0.0156 -0.3678
22600W        W42880   9.547   1.540  12.243 -0.0866  0.2781 -0.0610
22601W        W42881   0.885  10.003   1.289 -0.1354 -0.1755  0.0639
22602W        W42882   2.047   9.291   4.391 -0.1330 -0.1978  0.0754
22603W        W42883  10.904  13.115  14.850  0.3095 -0.1429  0.1910
22604W        W42884  10.375   0.391   2.674  0.1692  0.3050  0.0610
22605W        W42885  10.589  11.915   5.789 -0.2441 -0.0422  0.1554
22606W        W42886  11.400  16.926  14.461 -0.0786 -0.1344 -0.3133
22607W        W42887   8.075  17.553  14.518 -0.0488 -0.1009 -0.2217
22608W        W42888   4.075  12.002  13.235 -0.2300 -0.0367 -0.5737
22609W        W42889  12.545  16.465  16.278 -0.1072  0.0547  0.1691
22610W        W42890   0.537   3.257  12.624 -0.1072  0.2682 -0.2001
22611W        W42891   6.656  14.167  15.780  0.0397  0.1540  0.0871
22612W        W42892   7.161   8.498   2.717  0.1025  0.0219 -0.1006
22613W        W42893   7.244  17.176  14.114 -0.0327  0.1554  0.0330
22614W        W42894  13.777   2.477  16.666 -0.2566  0.0481  0.2198
22615W        W42895  13.944  15.569   3.966 -0.0970 -0.0372 -0.0360
22616W        W42896   0.393  15.492  15.327 -0.4637 -0.1762 -0.2161
22617W        W42897   8.933   7.368  15.057 -0.2069 -0.3191 -0.3515
22618W        W42898   1.329   7.881   0.985  0.2971 -0.1942  0.1740
22619W        W42899  11.621  13.022  16.373 -0.0734 -0.0787  0.0228
22620W        W42900   2.442   9.587   4.247  0.2429  0.3456 -0.1659
22621W        W42901   7.647  12.256   3.426  0.1258 -0.1394 -0.3414
22622W        W42902   1.365   3.630  16.496 -0.1866  0.1087  0.0519
22623W        W42903  17.346   8.528   0.008  0.1966  0.0218  0.3054
22624W        W42904   8.916   8.695   3.983  0.3784 -0.1242 -0.0375
22625W        W42905  16.975   5.685  13.475 -0.2521 -0.3205 -0.0359
22626W        W42906  14.765   5.973  12.029  0.0707 -0.0502 -0.0360
22627W        W42907  11.014   8.000   3.399 -0.2109  0.1324  0.1942
22628W        W42908   2.210   8.311   0.295  0.1986  0.0817 -0.0349
22629W        W42909  10.549  11.764   4.727  0.0314  0.0244  0.2475
22630W        W42910  14.017   2.178  15.840  0.1391  0.0048 -0.1006
22631W        W42911   7.660  13.210  15.943  0.0135  0.1684  0.0474
22632W        W42912   1.706  15.838  13.707 -0.0660  0.0194 -0.2053
22633W        W42913   7.589  13.004  14.636  0.1010  0.4043  0.1558
22634W        W42914  11.860  16.134  14.947  0.1598  0.0429 -0.0077
22635W        W42915   5.869  14.809   1.776 -0.1092 -0.4545 -0.1236
22636W        W42916  10.776  11.469   2.736 -0.0988  0.0768  0.2727
22637W        W42917  10.172   4.945   2.764  0.1305 -0.6721  0.0421
22638W        W42918   9.332   2.684  12.159  0.1915 -0.0891 -0.0768
22639W        W42919  17.609  10.963  15.620 -0.0395 -0.2785 -0.2473
22640W        W42920   4.332   5.378  14.629 -0.1215 -0.3829 -0.0452
22641W        W42921  15.745   6.799   1.560 -0.0888  0.0713 -0.0462
22642W        W42922  15.807  14.877   2.616 -0.0311 -0.0950 -0.4265
22643W        W42923   7.515   0.413   3.710 -0.1019  0.2354  0.3259
22644W        W42924   5.046  13.043  14.537  0.1335 -0.0771 -0.1177
22645W        W42925   4.745  15.192  14.012  0.1367  0.3399 -0.0170
22646W        W42926   8.472  11.986  12.945 -0.0578  0.2160  0.2381
22647W        W42927   7.952  11.912  13.848  0.0451 -0.2681  0.0152
22648W        W42928  15.268   5.924   0.483  0.0961 -0.2087  0.2341
22649W        W42929   5.978  17.700  16.618 -0.1092 -0.2503  0.4070
22650W        W42930   8.900  13.399  14.778  0.1897  0.0641  0.0390
22651W        W42931   8.999   1.245   1.962  0.0110  0.0045 -0.0630
22652W        W42932   6.192   6.404   2.645  0.0497 -0.3610  0.2237
22653W        W42933  10.025  13.990  16.548  0.0709 -0.2814  0.0750
22654W        W42934   2.055  10.336  15.101  0.1929  0.0835 -0.0507
22655W        W42935  11.724   9.058  13.114  0.0064  0.3496 -0.0247
22656W        W42936  14.765  11.054  12.836  0.0383 -0.1557 -0.2962
22657W        W42937  15.011   2.900   3.163  0.0391  0.1284  0.1614
22658W        W42938  13.355   5.154  13.750 -0.3099  0.3036 -0.1314
22659W        W42939  12.309   8.214  14.957  0.0286  0.0909 -0.0806
22660W        W42940   2.806  15.396   4.181  0.0349  0.0083 -0.0322
22661W        W42941   6.527   2.974  13.136  0.1063  0.0099 -0.1670
22662W        W42942   9.552   4.176  11.819  0.1419  0.1138  0.1780
22663W        W42943  14.851   3.043   3.666  0.1315  0.0049  0.2503
22664W        W42944   6.855  10.446   1.764  0.0187  0.1543 -0.1641
22665W        W42945   8.992  12.311   0.936  0.2069  0.0159 -0.0616
22666W        W42946  11.180   6.002   4.497  0.1264  0.2254  0.1943
22667W        W42947   3.321   9.838   4.114 -0.0605  0.2250  0.1872
22668W        W42948   1.986  16.174  12.403  0.1723 -0.0048  0.0329
22669W        W42949   0.315  10.512   2.407 -0.1179 -0.0946  0.0238
22670W        W42950   6.693  11.105  11.992 -0.2572 -0.0338  0.0307
22671W        W42951   0.634   3.784  12.653  0.0773 -0.0173  0.1170
22672W        W42952  14.421  14.896  12.411 -0.1512  0.2488 -0.1940
22673W        W42953   8.084  16.116   3.658  0.0889 -0.1302 -0.2169
22674W        W42954   3.033  14.884  14.604  0.0303  0.1247 -0.1829
22675W        W42955   4.024   3.247  13.959 -0.0010 -0.0656  0.0272
22676W        W42956   7.056   9.082   1.558 -0.0910  0.3387 -0.0757
22677W        W42957   7.535  16.892  14.492  0.1952  0.1518  0.3057
22678W        W42958   5.189  15.613  16.010  0.1328  0.2031 -0.4996
22679W        W42959  12.765  10.154   1.021 -0.0712 -0.0755  0.0108
22680W        W42960   0.155  17.681   1.113  0.2244  0.0071  0.4025
22681W        W42961  10.260  16.455  14.787  0.0040  0.0663 -0.0285
22682W        W42962  15.681  13.666  13.106  0.1226  0.0373 -0.1022
22683W        W42963  13.879  14.841  12.575 -0.0564  0.1421  0.0819
22684W        W42964   2.417  14.085  14.867  0.0964  0.0615 -0.4696
22685W        W42965   1.752   4.949   2.977  0.4996 -0.2330  0.4911
22686W        W42966   4.238   3.578   0.064 -0.2421 -0.0882 -0.1843
22687W        W42967   8.921  14.734  16.398  0.1618 -0.0007 -0.2188
22688W        W42968  10.922  14.179   0.442 -0.1123  0.1257 -0.0541
22689W        W42969  16.216   4.151   1.357 -0.0106  0.2309  0.1529
22690W        W42970   5.414   0.560   1.679 -0.2056  0.2055 -0.1662
22691W        W42971   7.745  10.277  13.745 -0.4645  0.0276  0.0054
22692W        W42972   2.926   6.971   0.309  0.0314  0.1588  0.0068
22693W        W42973  11.187   5.786   0.294  0.0414 -0.1259  0.1248
22694W        W42974  14.409   9.816  14.914 -0.2073  0.2031 -0.0997
22695W        W42975   7.266   0.088   2.448  0.1438 -0.4423 -0.1248
22696W        W42976   2.202   1.038   4.050 -0.1151 -0.1717  0.5228
22697W        W42977  13.536  14.798  16.610  0.1259 -0.0184 -0.1307
22698W        W42978  12.028  12.100  15.709 -0.1691 -0.0491  0.0750
22699W        W42979  15.768   6.033  15.166  0.0839 -0.1122 -0.1447
22700W        W42980  12.209  12.699   3.953  0.0753 -0.0836 -0.0337
22701W        W42981   4.966   2.619  13.129 -0.1620 -0.0263  0.1407
22702W        W42982  11.380  12.745  13.927  0.2439  0.2163 -0.0885
22703W        W42983  14.959  14.069   0.135 -0.0185  0.0278 -0.2258
22704W        W42984  16.202  15.279  13.296  0.0806 -0.0712  0.0167
22705W        W42985  10.267  12.717  15.110  0.2996 -0.0125  0.0622
22706W        W42986  17.732   7.511   0.384 -0.3803  0.2760  0.2251
22707W        W42987   5.483  11.146   2.014  0.0522  0.1298  0.0274
22708W        W42988  17.431   7.929   4.431 -0.2752 -0.3682 -0.3072
22709W        W42989   4.534  12.009   3.358  0.0363 -0.1494  0.3519
22710W        W42990  13.008  12.798   2.542 -0.1145  0.0724 -0.0636
22711W        W42991   2.250   3.754   1.736 -0.0468 -0.3684 -0.1097
22712W        W42992  15.748  11.842  16.221 -0.3745 -0.1665  0.0464
22713W        W42993   2.862   2.866  12.149  0.2050  0.0507 -0.1001
22714W        W42994  12.555   2.642  15.165  0.2156 -0.2901 -0.0301
22715W        W42995  10.852   0.862  14.275 -0.2209 -0.3290  0.4017
22716W        W42996   9.167  13.421  13.921  0.0377 -0.2981 -0.0350
22717W        W42997   9.600   2.434  12.531 -0.0890  0.1085 -0.0618
22718W        W42998  16.388   1.812  14.665  0.0304 -0.2628 -0.2745
22719W        W42999  14.345   5.433  16.024 -0.0661 -0.0119  0.2074
22720W        W43000  15.664   0.014  16.696  0.2711  0.1201 -0.2269
22721W        W43001  10.840   8.429   1.783 -0.0222  0.0123 -0.0432
22722W        W43002   8.999   2.988  15.195 -0.1016 -0.2121 -0.0870
22723W        W43003   2.251   0.656   5.005  0.0367  0.2089  0.2552
22724W        W43004  12.048  14.795  15.979 -0.2711  0.1221  0.4943
22725W        W43005  13.136   1.131   4.260  0.0372 -0.0596 -0.1547
22726W        W43006   7.262   5.036  16.658  0.0016  0.1805 -0.0477
22727W        W43007  13.322   5.095  14.274  0.1579  0.0045 -0.2504
22728W        W43008   0.085   8.105  14.044 -0.0321 -0.0443  0.0748
22729W        W43009  17.637  10.489   0.516 -0.0917  0.2427  0.0341
22730W        W43010   3.177   1.792   0.362 -0.1398 -0.1914 -0.0981
22731W        W43011   4.980   5.273  12.374 -0.1098  0.2306 -0.0180
22732W        W43012  16.734  12.296  15.018 -0.0977  0.0563 -0.0384
22733W        W43013   6.099   8.652  12.926  0.0056  0.1587  0.3331
22734W        W43014   9.388  10.393  16.644  0.1426 -0.0075 -0.0109
22735W        W43015  16.890   5.128  15.580  0.0058 -0.4337  0.0633
22736W        W43016   2.737  14.510  16.498  0.1004  0.0340 -0.0132
22737W        W43017  16.780  15.980  12.994 -0.2108 -0.1616 -0.1567
22738W        W43018   0.326  16.662   4.551  0.1244 -0.3378 -0.2403
22739W        W43019   7.474  14.197   0.155 -0.1046  0.2285 -0.0070
22740W        W43020   1.296   9.185  15.412  0.2029  0.1350  0.2998
22741W        W43021  12.666  16.306  16.808 -0.0170  0.0728  0.3754
22742W        W43022   7.381  10.587  16.672  0.1610  0.1856 -0.1429
22743W        W43023   3.411  16.488   0.784  0.0143  0.1856  0.0021
22744W        W43024  15.023   4.730  15.604  0.4155 -0.1775  0.1652
22745W        W43025   4.431   1.734   2.939 -0.0382 -0.2551 -0.2231
22746W        W43026   9.666  15.371  14.654  0.2662 -0.0964 -0.1390
22747W        W43027   6.212   6.828  13.330 -0.0084  0.0848  0.2793
22748W        W43028   7.873  12.153  15.134  0.5469 -0.0200  0.2602
22749W        W43029  14.256  16.285  14.956 -0.2676  0.0851  0.0599
22750W        W43030  15.293   3.282   1.022 -0.1500  0.0966 -0.1127
22751W        W43031   7.029  17.458   1.321  0.0767 -0.0820  0.1775
22752W        W43032  16.497   8.542   1.956 -0.1696 -0.0457  0.0126
22753W        W43033   4.791  12.422  12.000  0.1128  0.1633  0.0144
22754W        W43034   0.791   9.134   1.258 -0.3033 -0.1685  0.1945
22755W        W43035   2.837   2.756   3.604 -0.1628  0.0417 -0.0874
22756W        W43036  16.444  16.591   0.324  0.3113 -0.1900 -0.1305
22757W        W43037   5.508  13.061  12.339  0.0229  0.0095 -0.0147
22758W        W43038   8.168   8.155   4.057  0.1020  0.2694  0.0029
22759W        W43039  11.436  11.234  15.286  0.0581  0.2275 -0.0367
22760W        W43040   5.153  11.987   4.432 -0.1947  0.0108 -0.0647
22761W        W43041   1.321  17.662   3.726  0.1904  0.0734  0.0008
22762W        W43042   9.616   2.772   0.216  0.0479  0.3297  0.0093
22763W        W43043   5.968   6.147  14.759 -0.2090 -0.0153  0.0404
22764W        W43044   9.447  15.202   4.304  0.0292 -0.0327  0.0728
22765W        W43045   4.437   2.269  14.924 -0.3374  0.1092 -0.0392
22766W        W43046  13.559   3.910  15.153 -0.2145 -0.1109  0.0859
22767W        W43047   9.566  17.579  13.291 -0.1314  0.0956  0.1552
22768W        W43048   9.890   1.667   3.635  0.2532 -0.1076  0.4164
22769W        W43049  13.451   7.159   2.869  0.1849 -0.1107  0.0144
22770W        W43050   4.675   1.026  14.949 -0.4410 -0.0193  0.0772
22771W        W43051   7.832   4.081  13.461  0.1766  0.1530 -0.1806
22772W        W43052  12.424   4.298   0.156 -0.3692 -0.2177  0.0897
22773W        W43053  14.393  14.685  13.364 -0.1555 -0.3375  0.1371
22774W        W43054  13.954   4.416   1.178  0.2804  0.2956 -0.0040
22775W        W43055   1.938   2.406  12.593  0.0439  0.1099  0.2498
22776W        W43056   8.052  15.639   2.744  0.1850  0.0955  0.1116
22777W        W43057   5.534   9.454  13.977  0.0807 -0.0435  0.4931
22778W        W43058   0.461   4.040  15.460 -0.1168 -0.0665  0.2826
22779W        W43059   6.214   5.075  16.063 -0.0870  0.0142  0.4608
22780W        W43060   3.726   4.949   3.495  0.0393 -0.1092 -0.0291
22781W        W43061  16.454   8.736  14.245  0.1011 -0.2598  0.0682
22782W        W43062  17.041  16.801   0.617 -0.0593  0.0007  0.1023
22783W        W43063  15.060   7.997   3.013 -0.4070 -0.0776  0.2815
22784W        W43064  16.663   4.067   3.989 -0.2280 -0.2006  0.0640
22785W        W43065   9.886   7.584   2.146 -0.0503 -0.2481 -0.0517
22786W        W43066   5.583  12.841  15.374  0.2161  0.5029 -0.0186
22787W        W43067   6.089   3.959   0.678 -0.0728  0.0313 -0.3537
22788W        W43068  15.174  15.959   1.547  0.0512  0.1512 -0.1422
22789W        W43069   5.100   0.008   0.670 -0.0577 -0.3334  0.2302
22790W        W43070   2.713   7.321  13.789 -0.1301  0.2264  0.0384
22791W        W43071  14.985  10.396   4.795  0.4227  0.0953 -0.1592
22792W        W43072   7.817  16.230  13.987 -0.0075 -0.1667 -0.0734
22793W        W43073  10.332   2.342   3.173  0.0867 -0.3386 -0.0996
22794W        W43074  17.001  13.621  14.711 -0.1609 -0.1370 -0.1490
22795W        W43075  14.409  12.100   4.638 -0.3245 -0.0901  0.2050
22796W        W43076   3.376  17.658   4.821 -0.2543 -0.0280 -0.3047
22797W        W43077  17.305   0.821   3.555 -0.0968  0.3044 -0.2883
22798W        W43078   4.555   4.431  12.384  0.0969 -0.0775 -0.0954
22799W        W43079   1.995   2.256  14.642 -0.1658 -0.3191 -0.0694
22800W        W43080   4.140   6.313   4.798 -0.1554  0.1030 -0.1941
22801W        W43081  11.828   2.132  13.571 -0.2765 -0.2117 -0.0301
22802W        W43082  13.543   3.535   4.880 -0.0128  0.2131 -0.1973
22803W        W43083  12.446   3.245  13.519 -0.1612 -0.1480  0.3441
22804W        W43084   7.721  15.109  13.449  0.2258 -0.1831  0.1156
22805W        W43085   1.893   2.970  14.277 -0.4229 -0.0767 -0.3101
22806W        W43086   0.450   3.110   1.014 -0.3486  0.0312 -0.1060
22807W        W43087  13.817   8.901  12.439 -0.0973 -0.2267 -0.0293
22808W        W43088  13.421   4.682  14.637 -0.0688  0.0038  0.2047
22809W        W43089   2.614   0.421  15.242  0.2783  0.3137 -0.3641
22810W        W43090   3.702   1.360   0.389 -0.2042 -0.0073 -0.2509
22811W        W43091  15.729   4.992   1.037 -0.0455 -0.1121  0.0100
22812W        W43092   3.733   2.968  13.621  0.0891 -0.1509  0.0952
22813W        W43093   6.221   1.833  13.595 -0.1253  0.2169 -0.0313
22814W        W43094   4.945   9.256  13.346  0.0066 -0.2923 -0.0585
22815W        W43095   3.350   3.265  13.428 -0.1194  0.3550 -0.0006
22816W        W43096   4.397  13.963   3.285  0.1675 -0.0973  0.1716
22817W        W43097  16.130   2.367   1.900 -0.0360  0.3806  0.2742
22818W        W43098   8.222  13.169   3.294  0.0450 -0.2480  0.1089
22819W        W43099  12.584   0.292   0.840 -0.2091  0.0098  0.0350
22820W        W43100   5.556   6.415  12.823  0.4623  0.2981 -0.0754
22821W        W43101   5.414   9.343   2.105  0.0474  0.1212 -0.0915
22822W        W43102   1.801   7.004  13.376  0.3359 -0.0244  0.0245
22823W        W43103  16.433   6.466   3.451 -0.2087  0.0488  0.1287
22824W        W43104  16.251   3.071  13.305  0.2442  0.1824  0.1648
22825W        W43105   4.018   9.320   1.301  0.2027  0.4521  0.0360
22826W        W43106   7.139   4.310   3.146 -0.0357  0.0364  0.1869
22827W        W43107   4.190  16.837   1.574  0.0145  0.2119  0.0520
22828W        W43108  15.088   3.250   2.725  0.1844 -0.0555  0.0943
22829W        W43109   6.808   1.782   2.587 -0.1071 -0.1441 -0.0132
22830W        W43110  15.892   5.614   1.632 -0.0492 -0.0594  0.0152
22831W        W43111   0.814   8.119  16.626  0.1438  0.0863  0.0225
22832W        W43112  17.037   6.073   4.620  0.0471  0.1610 -0.0731
22833W        W43113   1.257   2.173  16.865 -0.1182  0.4129  0.0171
22834W        W43114   1.130   4.120  13.150  0.0712 -0.0090  0.0644
22835W        W43115   3.903   0.706   1.174  0.1756  0.0970  0.1416
22836W        W43116  11.182   0.591  13.932  0.5217  0.1225  0.2943
22837W        W43117  14.376   1.385  12.522 -0.0817 -0.0985 -0.1684
22838W        W43118   3.822  15.419   1.238 -0.0521  0.3147 -0.1407
22839W        W43119   0.848  16.996  14.827  0.0627  0.1147 -0.0970
22840W        W43120   8.432  14.060   1.395  0.0556 -0.0775  0.1066
22841W        W43121  13.858  10.523   0.133 -0.2210  0.1259 -0.1267
22842W        W43122   7.074   2.528  13.760 -0.1517 -0.0836  0.0800
22843W        W43123   3.178   1.623  15.944  0.1015 -0.0340 -0.4079
22844W        W43124  12.128  15.534   1.731 -0.0947  0.3369  0.0957
22845W        W43125   2.956   3.348   1.689  0.2130  0.0188  0.0563
22846W        W43126   2.578  16.698  13.789  0.2093 -0.0931 -0.0852
22847W        W43127  15.328  10.753  14.643  0.0792  0.3891 -0.0658
22848W        W43128  10.608  12.733  14.719 -0.2462 -0.1268 -0.0881
22849W        W43129   7.750  17.509   2.750 -0.0371 -0.0238  0.2131
22850W        W43130  12.405   4.762  12.806 -0.0056 -0.1224 -0.0631
22851W        W43131   1.992   0.441  16.024 -0.0608  0.0622 -0.0740
22852W        W43132   1.984   4.605  14.699  0.0287 -0.0939  0.1079
22853W        W43133   9.373   3.178  11.680  0.0188  0.0117 -0.1707
22854W        W43134   0.571  11.732   4.704 -0.1048  0.0706 -0.2689
22855W        W43135   7.646   5.999  14.883 -0.1274  0.2504  0.0491
22856W        W43136   9.566  14.369  14.308  0.2487 -0.3740 -0.1777
22857W        W43137   4.245  14.077   1.520  0.0298 -0.1969  0.2283
22858W        W43138  12.682   1.435   3.441  0.1457 -0.0743 -0.3852
22859W        W43139   5.836   5.917   0.489  0.0867  0.0021 -0.2430
22860W        W43140   3.400   1.716   1.216  0.0082 -0.1024 -0.0525
22861W        W43141  13.749   0.080   0.062 -0.3205  0.1300 -0.2181
22862W        W43142  12.348   7.987  13.214  0.1576 -0.0675  0.0358
22863W        W43143  17.721   1.694  14.451 -0.1568 -0.1886  0.1956
22864W        W43144  16.171  14.716   1.590  0.1553 -0.0606 -0.1859
22865W        W43145  14.895   5.515  13.160 -0.0866  0.1778 -0.0110
22866W        W43146   4.671   1.306   3.739  0.0063  0.3198  0.4114
22867W        W43147  13.737   0.881   1.242  0.1755 -0.1782 -0.0164
22868W        W43148  10.571  13.184  16.464 -0.1129  0.0436  0.0859
22869W        W43149   5.387   7.412  15.579 -0.0047  0.1438 -0.0866
22870W        W43150  11.982   6.053   4.838 -0.3361  0.0885 -0.3084
22871W        W43151  14.136  10.769  14.090  0.5269 -0.0369  0.2329
22872W        W43152  11.594   5.280   2.890  0.0346 -0.1391 -0.0429
22873W        W43153  16.986  14.916  14.985  0.1353  0.0410  0.2699
22874W        W43154  14.649  15.171  13.299  0.0016  0.1567  0.3128
22875W        W43155  11.819   8.158  14.851 -0.1569  0.0307  0.0840
22876W        W43156   4.245   3.770  12.774  0.0075 -0.1196 -0.1565
22877W        W43157   4.560  14.642  14.679 -0.1780 -0.0070 -0.0473
22878W        W43158  15.054  15.506  16.849  0.1691 -0.1338 -0.1884
22879W        W43159   8.161  14.443   4.793 -0.0517 -0.2280  0.3035
22880W        W43160   3.548   4.676   1.032 -0.1496 -0.3695 -0.3147
22881W        W43161  10.166  13.701  15.289 -0.3255 -0.2377 -0.0936
22882W        W43162  11.071  10.387  12.425  0.2539  0.0928 -0.1089
22883W        W43163   3.249  12.258  15.365 -0.0411  0.1684 -0.1564
22884W        W43164  14.560   1.906  14.156 -0.3428 -0.3229  0.2504
22885W        W43165  16.003  12.081  12.039 -0.1382  0.0674  0.1521
22886W        W43166  11.580   0.264  12.836 -0.0471 -0.6231  0.1893
22887W        W43167  14.049   2.278   3.953 -0.0836  0.1006 -0.0643
22888W        W43168   9.044  10.897  12.319 -0.0276  0.2852  0.0118
22889W        W43169  10.771   6.184  12.969  0.0816  0.0509 -0.1912
22890W        W43170   2.650  17.114   1.091  0.0288 -0.2298  0.0954
22891W        W43171   1.924  12.489  16.154  0.1566 -0.3711 -0.1206
22892W        W43172   2.255   1.346   1.817 -0.0885 -0.3379 -0.1686
22893W        W43173   6.963   5.734  13.933 -0.0307 -0.2145  0.0978
22894W        W43174   4.596   4.094  14.172 -0.1723 -0.2694  0.0183
22895W        W43175   2.843  16.070   3.376  0.0967 -0.1274  0.5311
22896W        W43176   8.168   0.372  12.663  0.1800 -0.0452  0.1742
22897W        W43177  13.591  13.529  12.433  0.1609  0.0430  0.1982
22898W        W43178   2.644  16.145  13.539 -0.0211  0.0487  0.1851
22899W        W43179   9.747   4.716   2.619 -0.0340  0.0156  0.1959
22900W        W43180   8.394   4.242  11.946 -0.0861  0.2431 -0.1240
22901W        W43181   4.821   0.415   4.565  0.1097 -0.0061  0.0451
22902W        W43182  13.937   9.441   4.706  0.1827  0.0361  0.1840
22903W        W43183   9.297   9.373   3.281 -0.3484  0.3267 -0.1735
22904W        W43184   5.977   5.824   1.493 -0.3278  0.0139 -0.1183
22905W        W43185   2.027   3.148  14.760 -0.1554 -0.2166 -0.0321
22906W        W43186   4.983  10.348   3.281 -0.0131 -0.1599  0.0474
22907W        W43187  14.799   6.808   3.616 -0.1281 -0.5337  0.0344
22908W        W43188   2.900  17.292  16.610 -0.0181  0.0395 -0.3565
22909W        W43189   8.585   5.812  14.650  0.1607  0.0240 -0.1446
22910W        W43190  11.704  10.912   3.874 -0.0186  0.3655 -0.2942
22911W        W43191   5.291  10.016   4.402  0.0420  0.3716  0.1843
22912W        W43192   9.150  10.724  14.542 -0.0008  0.1247  0.3371
22913W        W43193  14.624  10.875  14.359 -0.0348  0.1782 -0.1126
22914W        W43194   6.712   0.709   2.140 -0.2048 -0.0147 -0.1001
22915W        W43195  13.023  13.649  12.609  0.1016 -0.0196 -0.2255
22916W        W43196  17.308  16.757   3.776  0.1783 -0.1394 -0.0264
22917W        W43197   5.922  14.174  13.747  0.0563 -0.2535  0.1440
22918W        W43198  14.887   4.613  15.129 -0.0414  0.1376 -0.1243
22919W        W43199  14.437   0.051  16.157  0.0072 -0.0075  0.0446
22920W        W43200   5.156  11.581   3.929 -0.1332  0.1257  0.0320
22921W        W43201   6.825   6.972   4.510  0.0735  0.0226 -0.2822
22922W        W43202   9.216   3.894   4.061  0.0945  0.0201  0.0430
22923W        W43203  11.557  10.567  13.056 -0.2459  0.1403  0.0209
22924W        W43204  11.773  10.609   2.221  0.0800  0.2029  0.4538
22925W        W43205   2.138   7.907  16.845  0.2104 -0.0135 -0.0275
22926W        W43206   7.013   0.952  14.958 -0.0385  0.0519  0.1543
22927W        W43207  13.297  13.919  16.363 -0.0283 -0.2449  0.2022
22928W        W43208  16.188   2.506  15.222  0.0087 -0.1467  0.2913
22929W        W43209   9.974   9.133  12.542 -0.3102  0.0457  0.0842
22930W        W43210   7.754   3.419  16.017  0.0752 -0.1052 -0.1603
22931W        W43211  13.551   8.614  13.657  0.1475 -0.2465 -0.2706
22932W        W43212  14.833  10.606   0.581 -0.0853 -0.0076 -0.0869
22933W        W43213   3.104  17.712   3.335  0.0212 -0.3646  0.1922
22934W        W43214  13.172   6.620   3.965 -0.1131  0.2294 -0.1818
22935W        W43215  14.311   2.855   0.002 -0.2234  0.1988  0.0034
22936W        W43216   2.073  10.426  14.111 -0.1767  0.4426  0.1355
22937W        W43217   3.534   8.094  15.249  0.0194  0.1950  0.1339
22938W        W43218   3.251   2.882   4.091  0.0893  0.0674 -0.0087
22939W        W43219   5.376   5.269   2.620 -0.1180  0.1535  0.0550
22940W        W43220  10.836  16.200  15.373  0.4454  0.0636 -0.0764
22941W        W43221   7.764   9.738   0.241 -0.0284  0.0194  0.0700
22942W        W43222   0.159   2.806  14.371 -0.0758  0.0212 -0.2556
22943W        W43223   0.935   3.323  15.815 -0.1839  0.1514  0.1736
22944W        W43224   3.978  13.388   3.683 -0.1918  0.2076 -0.0123
22945W        W43225   6.519  16.935   0.871  0.0014  0.0064  0.0576
22946W        W43226  16.620   1.210  16.517 -0.1259  0.3511  0.2194
22947W        W43227   8.341   1.478  16.692 -0.0505 -0.0698 -0.0686
22948W        W43228   4.297   0.794   0.078 -0.0538 -0.2352  0.1224
22949W        W43229   3.311   6.432   1.283  0.0423  0.0076  0.1423
22950W        W43230   4.157  16.764   0.080 -0.0001 -0.0681  0.3101
22951W        W43231   4.740   5.130  16.198 -0.1551 -0.0143  0.0462
22952W        W43232   3.229   4.097  12.202  0.3661 -0.0133  0.1071
22953W        W43233   6.881   7.027  16.851 -0.1624  0.0572  0.1848
22954W        W43234   0.949  13.616   3.765 -0.1074  0.1235  0.1783
22955W        W43235   0.517   6.213  15.003 -0.1051 -0.0560  0.1303
22956W        W43236   5.325   8.372  12.422  0.0750 -0.1345  0.1460
22957W        W43237   8.448   1.364   0.802 -0.2092 -0.0718 -0.0767
22958W        W43238   4.800   5.703  12.570 -0.1519 -0.0670 -0.4492
22959W        W43239   9.571   1.353  16.823  0.0514 -0.0534 -0.1701
22960W        W43240  13.973  13.948   3.342 -0.0166 -0.2830  0.0807
22961W        W43241   4.490  11.187   3.900  0.3612 -0.0277 -0.0866
22962W        W43242   8.097   8.246   2.031  0.4085  0.2412 -0.0579
22963W        W43243  15.640   2.863   1.735 -0.1226  0.1855 -0.3022
22964W        W43244  16.398  13.727   1.363  0.0678 -0.1219 -0.0863
22965W        W43245  13.364   7.785  16.406 -0.0997 -0.0681 -0.1304
22966W        W43246  15.476   3.502  11.972  0.0806  0.1680  0.3701
22967W        W43247   2.678   3.892   0.436 -0.2350  0.0860 -0.2904
22968W        W43248  11.797   5.939  13.557 -0.1633  0.2192 -0.3726
22969W        W43249  17.461   4.472   2.620 -0.3090 -0.1236 -0.0939
22970W        W43250  14.186  11.027   1.248 -0.1088  0.2837  0.3981
22971W        W43251   3.888   1.796   0.493  0.0216 -0.0652  0.1324
22972W        W43252  16.865  10.654   1.015 -0.3264 -0.0186 -0.2449
22973W        W43253   3.725   2.994   0.788 -0.0896 -0.0287  0.0747
22974W        W43254   3.685  15.593   4.496  0.0091 -0.1663  0.1457
22975W        W43255  13.275  14.388   2.753  0.1613 -0.0549 -0.0244
22976W        W43256   1.163   6.511  11.602 -0.1446  0.1821 -0.1777
22977W        W43257  12.433   8.822  15.088 -0.2973 -0.0277  0.0554
22978W        W43258   8.659  11.985  14.722 -0.0099  0.0995  0.1100
22979W        W43259  10.484   8.608  13.221 -0.0175 -0.1668  0.0217
22980W        W43260   4.562   4.938   2.227  0.1629 -0.0028  0.0056
22981W        W43261   3.265  14.668   4.290 -0.0394 -0.1185  0.1420
22982W        W43262  12.115  16.896   0.165  0.5764  0.3607  0.0973
22983W        W43263  11.478  13.056   2.365 -0.2040  0.1389 -0.1792
22984W        W43264  17.048   2.504   4.736 -0.1293 -0.2288 -0.1451
22985W        W43265  14.005   5.083  13.909  0.2030 -0.1639  0.0598
22986W        W43266   8.944  12.176  13.002 -0.0517 -0.2528  0.2759
22987W        W43267  16.623  15.627   2.442  0.0333 -0.3748 -0.0204
22988W        W43268  17.557   1.685  13.363  0.1001  0.4545  0.0042
22989W        W43269  14.944   0.919   1.315 -0.1292  0.0688 -0.0502
22990W        W43270   3.332   9.673   3.597 -0.1878  0.0987 -0.1872
22991W        W43271   2.519  17.602   0.199 -0.3312 -0.1214 -0.0376
22992W        W43272  15.458   7.316   2.910  0.0371 -0.1731  0.1014
22993W        W43273  14.936  16.450   1.594 -0.0097 -0.0049  0.1260
22994W        W43274   6.101   7.383   2.899  0.0679 -0.1064 -0.0894
22995W        W43275  15.803  13.762  14.029  0.1698  0.0819 -0.2342
22996W        W43276   9.344  16.857   4.113 -0.1162 -0.0874 -0.2844
22997W        W43277  13.179   9.434   1.565  0.1778  0.2567 -0.0391
22998W        W43278  14.753  13.615  15.674 -0.3250  0.3197 -0.1006
22999W        W43279   6.707  10.601   1.107 -0.0823  0.1644  0.1023
23000W        W43280  14.393  11.370   2.758  0.1473 -0.2746  0.0748
23001W        W43281   4.664   5.700  16.864  0.0453  0.3243 -0.0364
23002W        W43282  10.755  13.897   0.805 -0.0807 -0.0564 -0.0234
23003W        W43283   2.046  13.799  15.038 -0.1460 -0.2424 -0.2336
23004W        W43284  13.438  16.162  12.372  0.0074  0.1310  0.2254
23005W        W43285   0.384   4.612   4.876  0.0030  0.1177  0.1134
23006W        W43286   1.160  11.003   2.800  0.0319  0.0939  0.0802
23007W        W43287   0.554   6.061   0.333 -0.2479 -0.2857 -0.0658
23008W        W43288  15.135   6.708  13.069  0.3292  0.1605 -0.0686
23009W        W43289   9.018   2.296   0.893 -0.1411  0.0689  0.3012
23010W        W43290   6.295  16.130   4.269  0.0889 -0.0454  0.0443
23011W        W43291  10.778  15.872   2.284 -0.1730  0.1324  0.3563
23012W        W43292  12.984   5.499   5.430 -0.0064 -0.2156 -0.0557
23013W        W43293  11.762  15.572   2.722 -0.2226  0.2010 -0.2152
23014W        W43294   9.707  15.787  14.325 -0.4810 -0.1884  0.4029
23015W        W43295   9.375  12.327   0.412  0.2790  0.3870  0.0401
23016W        W43296   3.932   8.350   4.444  0.2501  0.3530 -0.1889
23017W        W43297   0.527   5.552   0.029  0.0627 -0.0602 -0.0381
23018W        W43298  15.408   9.699  13.800 -0.0916  0.1506  0.0372
23019W        W43299  16.876   3.848   5.054 -0.0337 -0.1943  0.0666
23020W        W43300  15.054   6.855   2.333 -0.0156  0.2197 -0.1442
23021W        W43301  12.683   9.312  16.523  0.1723  0.2363 -0.2501
23022W        W43302   4.354   9.615  13.307 -0.1218  0.0792  0.2013
23023W        W43303   8.686  14.225   1.849 -0.3939  0.0340  0.3218
23024W        W43304   1.353   5.741   2.619  0.0123 -0.0480  0.1015
23025W        W43305   4.319   4.540  14.912 -0.0470  0.2954  0.1478
23026W        W43306  17.084   0.416  13.494 -0.0895 -0.1569  0.2809
23027W        W43307   3.548   9.870   2.680  0.1619 -0.0196 -0.0932
23028W        W43308   6.619  13.036   0.595  0.0671  0.2688 -0.0356
23029W        W43309  16.492   5.063  15.307  0.3356  0.1484  0.2263
23030W        W43310   9.123  17.055   1.777 -0.0632 -0.2614 -0.0158
23031W        W43311   9.963   0.032   0.459 -0.0030 -0.1089 -0.0729
23032W        W43312   7.691   8.090  14.448 -0.2553 -0.0141 -0.0381
23033W        W43313   5.320   6.983   3.503  0.1175  0.0272 -0.5030
23034W        W43314  12.185  10.175  14.686  0.0222  0.0321 -0.1285
23035W        W43315   8.537  15.011  13.115  0.0074  0.3030 -0.1003
23036W        W43316   6.787   2.748   4.581 -0.2852  0.2489  0.1481
23037W        W43317  14.449  14.480  14.746  0.1923 -0.0629  0.0427
23038W        W43318   3.320  11.613  15.373  0.0757 -0.0713  0.2441
23039W        W43319   5.425   5.791   4.444  0.3634 -0.0295  0.2347
23040W        W43320   0.923  14.838  14.348  0.3495 -0.0067 -0.3370
23041W        W43321  11.247  14.059  13.941  0.0292  0.0758  0.0005
23042W        W43322   7.740  15.127   2.146 -0.2924  0.0392  0.0142
23043W        W43323   0.997  13.768   4.911 -0.4720  0.0380 -0.1358
23044W        W43324  14.669   7.745   0.057  0.0611 -0.4515 -0.0724
23045W        W43325   4.636   0.097   1.315  0.1904  0.4002 -0.2783
23046W        W43326   5.114  13.341  12.901 -0.1521  0.2181 -0.0110
23047W        W43327   8.622  16.441  12.322  0.1515 -0.0760 -0.0247
23048W        W43328   2.348  11.454  12.862  0.1208 -0.2356 -0.1580
23049W        W43329  13.604   6.535   4.239  0.0732 -0.0991 -0.2684
23050W        W43330   2.926   9.244  14.796 -0.1452 -0.0992 -0.0300
23051W        W43331  14.784  14.311  13.886  0.0800  0.1158 -0.1180
23052W        W43332   2.850  16.724  16.032  0.1923 -0.1245  0.0344
23053W        W43333   0.969   8.746   0.201 -0.0361  0.1505 -0.0645
23054W        W43334  14.313  10.081  12.944  0.1605  0.1884 -0.1132
23055W        W43335  12.175   7.424  15.520 -0.0172  0.0929  0.0182
23056W        W43336   0.304   1.647   0.313  0.2666  0.0016 -0.2583
23057W        W43337   7.593  10.923   0.695 -0.1655 -0.2614  0.0324
23058W        W43338  13.863  13.959  12.913 -0.1794 -0.0941 -0.1633
23059W        W43339   1.764   6.143   2.575  0.0951  0.0906 -0.1734
23060W        W43340  14.455   6.404   0.631 -0.1412 -0.0624 -0.0912
23061W        W43341   0.107  14.684  14.918  0.0136 -0.4906  0.1679
23062W        W43342   5.646   5.933   1.932  0.1920 -0.1375  0.0521
23063W        W43343   0.823   1.434  16.565  0.2303  0.4022  0.0173
23064W        W43344   6.208   8.542  13.374  0.0334 -0.1041 -0.3256
23065W        W43345   1.212   5.468  12.486  0.2157  0.0502 -0.1957
23066W        W43346   8.661   1.163   3.009 -0.0509  0.1955 -0.0757
23067W        W43347   1.338   6.270  14.316  0.3062 -0.2641  0.1463
23068W        W43348   9.802   4.538   4.156 -0.1916 -0.2709 -0.0846
23069W        W43349  12.245   4.231   1.044  0.1415 -0.1735  0.2277
23070W        W43350   9.354   2.409   4.311 -0.0860  0.2455 -0.1972
23071W        W43351   8.408  15.159  15.255  0.2093 -0.2863  0.2045
23072W        W43352   4.593   4.406   1.249  0.0141  0.1170  0.0554
23073W        W43353  11.041  13.814   0.016 -0.2585 -0.0320 -0.1395
23074W        W43354   1.435  11.890  14.044 -0.1461 -0.0633 -0.4151
23075W        W43355  15.881   9.193  14.839 -0.3483  0.0060 -0.2360
23076W        W43356   3.871   0.777  12.220  0.2582  0.0433 -0.1456
23077W        W43357   4.898   8.888   0.825 -0.2866  0.0832 -0.1215
23078W        W43358   6.201   8.340  16.194 -0.2844 -0.0246  0.1575
23079W        W43359  15.192   2.628   3.764 -0.2061  0.0490 -0.1742
23080W        W43360   0.298   3.293   0.099 -0.1656  0.0416 -0.1899
23081W        W43361   2.395  12.843   1.367  0.0060 -0.0336 -0.4114
23082W        W43362   7.092   5.567   0.661  0.4111  0.1056 -0.0333
23083W        W43363   8.172   1.278  13.184 -0.1642 -0.0324  0.0256
23084W        W43364   5.783   4.810  12.906  0.2400 -0.0956  0.0524
23085W        W43365  12.768  13.071   2.100  0.1070 -0.1475  0.0858
23086W        W43366   4.723  15.450   1.153 -0.0109  0.2709 -0.2502
23087W        W43367  15.093   8.627   1.049 -0.0244 -0.2245 -0.0397
23088W        W43368   6.266   4.605   1.748 -0.1687  0.0820 -0.0912
23089W        W43369   2.725  15.908  13.039  0.1130 -0.1941 -0.0457
23090W        W43370  16.648  12.843  14.564 -0.0015 -0.1297  0.1797
23091W        W43371  10.349   9.864  12.771 -0.2582  0.0029  0.0048
23092W        W43372   1.335   5.076   0.666 -0.0748 -0.0100  0.1033
23093W        W43373   5.525   4.022  14.281 -0.1303  0.3936 -0.0748
23094W        W43374  16.475  13.885   3.850  0.1867  0.1343  0.1002
23095W        W43375   6.582  13.779  14.387 -0.3029  0.1555  0.0522
23096W        W43376   6.119   0.916   1.292 -0.1918 -0.0768  0.0943
23097W        W43377  11.300  10.562  16.339 -0.1355  0.2320 -0.0066
23098W        W43378  13.974   8.744   3.050  0.1230  0.0476 -0.1338
23099W        W43379  12.175  13.715   3.502  0.0020  0.2095  0.1265
23100W        W43380   1.702  15.666  13.224 -0.4061 -0.3628  0.1931
23101W        W43381  15.278  12.767   1.891  0.2644  0.0247 -0.2835
23102W        W43382   1.434  13.893  15.639 -0.2059 -0.3715 -0.1148
23103W        W43383  17.018  17.654  12.712 -0.0367  0.2162  0.0871
23104W        W43384  11.892  13.923   1.800 -0.0463  0.0818 -0.0473
23105W        W43385  10.319   9.817   3.418 -0.1164  0.2253  0.2344
23106W        W43386  16.160   8.179   3.662 -0.0003 -0.3705  0.0766
23107W        W43387  15.858   8.060  13.567 -0.1032  0.2219 -0.0080
23108W        W43388   0.115   5.848  15.815 -0.0540  0.1136  0.2481
23109W        W43389  10.371   5.913   1.387 -0.1035 -0.2028 -0.0863
23110W        W43390  14.379   5.375  13.231 -0.2057  0.3371  0.2245
23111W        W43391  15.991   0.375   3.321  0.0279 -0.0290  0.0431
23112W        W43392   5.656   4.498  16.107  0.0516  0.2135  0.1879
23113W        W43393  17.185  14.350   0.924 -0.1569  0.0301 -0.1385
23114W        W43394  11.723  16.111  16.833 -0.2590 -0.0302 -0.1183
23115W        W43395   8.191  12.318   3.426  0.1028 -0.4794 -0.0712
23116W        W43396   8.275   3.603  14.074  0.4648 -0.1888 -0.1544
23117W        W43397   9.684   5.953   5.034  0.3194  0.0917 -0.2236
23118W        W43398  13.379  10.052   4.372  0.3477  0.0875  0.2320
23119W        W43399  10.189  15.320   1.119  0.0482  0.1538 -0.0351
23120W        W43400  14.365   2.782  12.337 -0.1896 -0.1230  0.2184
23121W        W43401  10.269   9.515  13.504  0.0297  0.1981  0.0309
23122W        W43402   2.943   8.953   3.161  0.4447 -0.0806 -0.3970
23123W        W43403  12.700  11.315   5.278 -0.3458  0.4324  0.0685
23124W        W43404  10.406   2.029  16.534  0.3463  0.0736  0.1675
23125W        W43405   6.036  16.716   3.651 -0.3483 -0.1341  0.1647
23126W        W43406  15.175   4.929   3.542 -0.0938 -0.0754 -0.0725
23127W        W43407  17.157  10.949   4.644  0.1085 -0.0344  0.3174
23128W        W43408  13.031   4.177   2.498  0.1385  0.0045 -0.2212
23129W        W43409   2.117  13.387   1.238  0.0193  0.0781 -0.2162
23130W        W43410  13.197   3.683   4.119  0.1813 -0.2824  0.1410
23131W        W43411   8.188  10.172   3.135  0.1666 -0.0622 -0.2975
23132W        W43412   6.903  13.852   3.388  0.0372 -0.0756  0.0880
23133W        W43413   6.085  11.971  16.255 -0.1006  0.0524  0.2685
23134W        W43414   8.600   7.597   0.601 -0.0182 -0.0986 -0.0816
23135W        W43415   0.642   2.893   0.136  0.0549 -0.0523  0.0328
23136W        W43416  11.388   2.567   0.630  0.1986 -0.0356 -0.0291
23137W        W43417   3.381  17.439   3.708 -0.3554 -0.3772 -0.0064
23138W        W43418  14.907  15.783   3.230  0.1662  0.0014  0.2766
23139W        W43419   9.275   3.224  12.984  0.2121  0.0916  0.0480
23140W        W43420   4.745  13.517  13.258  0.0502 -0.0153  0.0342
23141W        W43421   4.127  12.760  13.737  0.1773  0.0019  0.1475
23142W        W43422  16.381   8.745   0.227 -0.3171 -0.0890  0.2739
23143W        W43423  14.605  15.729  12.769 -0.0427  0.1224 -0.0849
23144W        W43424   7.887  10.177  14.809  0.2160 -0.0686 -0.0037
23145W        W43425   9.489   8.335   0.028 -0.2828  0.0059 -0.0128
23146W        W43426   4.999  14.666   4.375  0.2074 -0.0553 -0.1031
23147W        W43427   8.529   4.507  15.139 -0.1697 -0.1646  0.0994
23148W        W43428   4.625   8.599   3.541  0.1951  0.3650  0.2512
23149W        W43429  15.270   2.442  11.949 -0.0846  0.1031 -0.0022
23150W        W43430  10.146  16.930  12.939 -0.3463 -0.0345 -0.2526
23151W        W43431   9.796  17.462  15.949 -0.1604 -0.1205  0.0536
23152W        W43432   9.040   0.970  16.379  0.1413 -0.0628  0.0655
23153W        W43433  17.418   8.267  16.075 -0.2345  0.1810 -0.1228
23154W        W43434   6.547   2.487  15.616 -0.0783 -0.1355 -0.1414
23155W        W43435  16.792   6.335  12.190 -0.2156 -0.3627 -0.1925
23156W        W43436  12.423   6.464  12.456 -0.3073  0.0328  0.1717
23157W        W43437   6.234   5.622   4.621  0.5065  0.0681  0.1636
23158W        W43438   3.225  11.823  16.370 -0.1376 -0.1170 -0.1574
23159W        W43439   3.793   2.931   1.614  0.0853  0.0398 -0.1671
23160W        W43440  14.120   5.882  16.736  0.0015  0.2105  0.0111
23161W        W43441   2.378  16.308   3.594 -0.0174 -0.2465  0.1595
23162W        W43442   7.762   6.987   1.868 -0.0085  0.0428 -0.3290
23163W        W43443   3.763  11.617   4.395  0.1073  0.0905  0.2516
23164W        W43444  13.979   5.419  13.509 -0.1886  0.1037 -0.0214
23165W        W43445   5.381   6.389  16.585  0.1570  0.0242 -0.1905
23166W        W43446  13.766   3.232   0.020 -0.1139 -0.0166  0.0377
23167W        W43447   8.750  14.610  16.822 -0.0755  0.0102  0.3136
23168W        W43448  15.375   2.719  16.345  0.2908  0.0094 -0.3288
23169W        W43449  14.243   5.865  13.698 -0.3281  0.1387  0.2644
23170W        W43450   9.197   0.114   2.482 -0.0454  0.0307 -0.0926
23171W        W43451  12.728   9.571   1.809 -0.0876 -0.2093  0.0839
23172W        W43452   8.728  14.084   2.342  0.1328 -0.1276  0.0919
23173W        W43453  10.298  13.733  15.798  0.2312 -0.1200 -0.0857
23174W        W43454  13.102  16.352   0.211 -0.1925 -0.0118  0.0852
23175W        W43455  11.707   7.308  16.512 -0.0429  0.1684 -0.1490
23176W        W43456   2.955   7.230   3.536 -0.0323 -0.1556 -0.0692
23177W        W43457  11.585   3.137   4.601 -0.3193 -0.1541 -0.0520
23178W        W43458   7.145  13.053  12.647  0.2093 -0.4716 -0.1351
23179W        W43459  17.420  17.274   4.639  0.1144  0.0155  0.0739
23180W        W43460   8.352   4.029   1.130 -0.0796  0.3398  0.0466
23181W        W43461  12.168   9.133  14.624 -0.1713 -0.1821  0.1376
23182W        W43462   1.816   0.901  16.239 -0.0855 -0.0435  0.3324
23183W        W43463  14.041  14.791  16.586 -0.3216 -0.1722 -0.0224
23184W        W43464   3.005  15.621   1.196 -0.0739 -0.1793  0.1517
23185W        W43465  12.100   3.526   0.538  0.1156 -0.3043 -0.3302
23186W        W43466  14.186   6.232   2.995 -0.1507  0.1699  0.1812
23187W        W43467  13.627   6.016   3.347  0.2433 -0.0381  0.3644
23188W        W43468   3.764  16.686  13.411 -0.0849 -0.0183  0.0302
23189W        W43469   7.714   3.958   1.433  0.0844 -0.0149  0.3336
23190W        W43470   8.153   3.398  16.796 -0.0161 -0.0707  0.1652
23191W        W43471   9.907  14.661   1.537  0.2934  0.2859 -0.0979
23192W        W43472   5.977  15.180   0.251  0.1197 -0.1463 -0.1292
23193W        W43473   3.834   5.759  15.341  0.2514 -0.0401  0.3269
23194W        W43474   3.034  12.568  16.419  0.1496 -0.1690 -0.1524
23195W        W43475  16.905  15.674  14.637  0.0341 -0.0104  0.0060
23196W        W43476  15.850  12.022   3.586 -0.0030 -0.1937  0.2815
23197W        W43477  10.806   0.860  16.605 -0.1642 -0.0736  0.1416
23198W        W43478   1.428   6.618   1.207  0.0795  0.1020 -0.0499
23199W        W43479   3.643  10.161  13.548 -0.0864  0.1431 -0.0090
23200W        W43480   1.928   3.259  12.967 -0.1520 -0.2273  0.0134
23201W        W43481   3.922  12.077   2.768  0.0255 -0.2737  0.0353
23202W        W43482   2.295   0.308   0.376  0.2480 -0.1615 -0.0394
23203W        W43483   8.803  13.051   3.572 -0.0366  0.0649 -0.0270
23204W        W43484   6.709  11.580   0.874 -0.0387  0.2586  0.0615
23205W        W43485  14.989   7.275  14.977  0.1645  0.1310  0.0140
23206W        W43486  11.358   2.621  15.557 -0.1832 -0.1195 -0.1142
23207W        W43487  13.578   4.478   3.137  0.1771 -0.1215 -0.2879
23208W        W43488  11.511  10.318  15.705  0.1847  0.3180  0.2460
23209W        W43489   5.141   0.132   1.567 -0.0090  0.2309  0.0745
23210W        W43490   2.564   3.533   4.537 -0.2671  0.0971 -0.0031
23211W        W43491   2.380  17.239  15.279 -0.0622  0.1175  0.0183
23212W        W43492   0.749   7.186   0.001  0.1121 -0.0128 -0.0197
23213W        W43493   2.784  11.898  15.182  0.0589  0.0504 -0.3352
23214W        W43494   5.191   7.759   4.534 -0.1089  0.0921  0.1653
23215W        W43495  11.719  11.240  16.698 -0.0200  0.3913 -0.2912
23216W        W43496   1.695   0.499   3.048 -0.1206 -0.0222  0.0580
23217W        W43497   0.922   0.963   1.198  0.0821 -0.0875 -0.1545
23218W        W43498   0.193   3.224   1.481 -0.0280  0.1892  0.2020
23219W        W43499   5.612   6.538  13.297  0.1123  0.3407 -0.0509
23220W        W43500  10.085  15.907  15.397 -0.0422  0.0607 -0.4497
23221W        W43501   9.220  16.075   3.427  0.2386 -0.2964 -0.0850
23222W        W43502  17.673   7.784  15.928  0.1274  0.0895  0.2837
23223W        W43503  16.492  14.715  14.976  0.2054 -0.0902 -0.1459
23224W        W43504   3.052  17.183  15.995 -0.2795 -0.2607 -0.1403
23225W        W43505   0.451  17.117   2.760  0.0201  0.1284  0.1469
23226W        W43506  17.740  15.816  13.808 -0.0330  0.1269  0.0465
23227W        W43507  12.747   3.049   1.931  0.0770  0.1314  0.5047
23228W        W43508   0.687   9.058  13.733  0.0486 -0.0218  0.0441
23229W        W43509  14.835  17.090  16.004  0.2566 -0.0708  0.2849
23230W        W43510   9.951   8.256   0.850  0.0026 -0.1525 -0.1426
23231W        W43511   0.861   1.258   0.252  0.6188 -0.0035 -0.0246
23232W        W43512  13.780  12.594   1.000  0.0961 -0.1575 -0.2033
23233W        W43513   0.331   6.793  11.347  0.0836  0.1227 -0.2334
23234W        W43514  12.534  15.686   3.001 -0.3295  0.0659 -0.0133
23235W        W43515  15.813  10.841  14.541 -0.2114 -0.0160  0.3765
23236W        W43516   0.625   4.648   3.737 -0.1392 -0.1685 -0.2605
23237W        W43517   1.095  10.441   2.854  0.1402 -0.1386 -0.1618
23238W        W43518   0.651   5.733   2.013 -0.1790  0.0309  0.2458
23239W        W43519  15.125  17.023   1.993  0.1135  0.4499 -0.2475
23240W        W43520  17.615  10.663  14.152  0.0442  0.2104 -0.1106
23241W        W43521  10.307   3.005  12.833  0.2852 -0.1406 -0.0240
23242W        W43522   0.188  10.949  16.037  0.1430  0.0085 -0.0155
23243W        W43523   3.640  15.533   3.686  0.5499  0.1272 -0.0237
23244W        W43524   5.627   8.796  15.076  0.2444  0.4699  0.2389
23245W        W43525  14.339   7.443   2.273 -0.0511 -0.2677 -0.1077
23246W        W43526   5.186   6.262  13.231  0.2124 -0.1393  0.0171
23247W        W43527   6.448  16.256   1.524 -0.0309 -0.0130 -0.1744
23248W        W43528  15.778   1.368   0.861 -0.0739  0.1917 -0.3269
23249W        W43529  11.559   6.452  16.467 -0.1925 -0.1595  0.3191
23250W        W43530   5.433  10.793   4.750 -0.2495  0.0564  0.0729
23251W        W43531  14.259  14.434  12.293 -0.0390 -0.2768 -0.1830
23252W        W43532  17.180   5.250   1.525  0.2212 -0.0114  0.3326
23253W        W43533   1.629  17.244   0.304  0.1944  0.0169  0.1152
23254W        W43534  14.266  11.420   0.875 -0.1595 -0.3609  0.2136
23255W        W43535   0.022   7.772  14.891  0.2079  0.2287  0.0034
23256W        W43536   9.518  15.575   2.914  0.1142 -0.0000 -0.2502
23257W        W43537  11.437   9.377   3.897  0.1290 -0.2669 -0.1301
23258W        W43538  12.429  10.926   3.372 -0.0314 -0.2011  0.2600
23259W        W43539   7.912  12.596  14.315  0.3408  0.2292 -0.0358
23260W        W43540   9.261  17.570   4.936  0.1591  0.0381 -0.0201
23261W        W43541  13.075   1.348  12.793 -0.0118 -0.2617  0.0646
23262W        W43542  16.856   6.804  16.788 -0.0395  0.3609 -0.2223
23263W        W43543   0.966   2.714   3.959  0.2236  0.2492  0.2537
23264W        W43544   7.613  12.076  12.492 -0.1209  0.3133  0.2495
23265W        W43545  12.494   9.490   4.345 -0.0066  0.1573  0.1026
23266W        W43546  16.990  11.168   3.572 -0.0033  0.1067  0.0638
23267W        W43547  16.638   4.671   4.525 -0.1535 -0.0068  0.1426
23268W        W43548  17.277   2.575  15.395 -0.2214 -0.0888 -0.1905
23269W        W43549  13.510  13.313   5.381  0.0745  0.0119  0.0011
23270W        W43550   6.285   4.853  12.197  0.1558  0.0116  0.0367
23271W        W43551   0.470  16.135   3.276 -0.0827  0.3148 -0.1285
23272W        W43552   1.051   2.580  14.699  0.1953  0.0022  0.0399
23273W        W43553   8.497   5.550   3.778  0.2051  0.0604 -0.0059
23274W        W43554   3.288  17.192   1.763  0.3406  0.1608 -0.0016
23275W        W43555   6.233   4.711  11.701 -0.0462  0.0245  0.0098
23276W        W43556   6.544  10.872  12.800 -0.1226 -0.0008 -0.0020
23277W        W43557   5.125   7.110  12.341 -0.4307 -0.0618 -0.1013
23278W        W43558  14.714   5.079  15.300 -0.1807  0.0014 -0.1343
23279W        W43559  16.987  16.254  13.378  0.1386  0.2286 -0.0899
23280W        W43560  15.685   2.505  15.026  0.1284 -0.0407  0.1255
23281W        W43561  14.077   5.985   3.599  0.3069 -0.1683  0.1533
23282W        W43562   2.468   3.550   4.043  0.0537  0.0880  0.1138
23283W        W43563   0.141  13.738  15.087 -0.4353  0.0218 -0.0512
23284W        W43564   0.733  14.407   0.512  0.0716 -0.1869  0.1135
23285W        W43565   1.506  11.225  12.804 -0.2206  0.0163 -0.1050
23286W        W43566   5.306   0.887  12.479  0.0881 -0.0440  0.2492
23287W        W43567  10.612   5.744  14.333  0.0856 -0.3452 -0.0525
23288W        W43568  10.880  10.987  13.198  0.0650  0.1041 -0.1609
23289W        W43569  14.851  10.834  12.190  0.1855 -0.1155  0.1997
23290W        W43570  17.265   3.251   3.197 -0.3829  0.0042 -0.1101
23291W        W43571  17.597  15.439  16.068  0.1980 -0.1423  0.1646
23292W        W43572  11.022   4.684  16.862  0.1553  0.0812 -0.1844
23293W        W43573  15.306  16.321  16.439 -0.1156 -0.1120  0.1190
23294W        W43574   2.947   1.874  11.290 -0.1558 -0.1661 -0.2157
23295W        W43575   5.089  14.362   2.561  0.1484  0.0748 -0.0397
23296W        W43576  14.185  10.293  13.884  0.0154 -0.1812 -0.0135
23297W        W43577   2.368   2.285  12.847  0.0614  0.0760 -0.0745
23298W        W43578   0.627  17.187  13.168  0.2211  0.0588 -0.1160
23299W        W43579  12.984   2.146  13.252  0.1316  0.0844  0.1146
23300W        W43580  15.379   7.426   0.983  0.0981 -0.0745  0.1420
23301W        W43581   9.170   5.740  15.299  0.0610  0.1706 -0.1454
23302W        W43582  12.786   4.504   4.379  0.2647  0.0505  0.2897
23303W        W43583   8.053  12.461  12.409  0.0512  0.0715 -0.0513
23304W        W43584   0.947   6.473   1.119  0.1295  0.0261  0.0318
23305W        W43585   4.112  13.306   0.879 -0.1670 -0.0206  0.1725
23306W        W43586  17.087  15.789   2.138 -0.1084  0.1803  0.0545
23307W        W43587   0.849   9.512   3.170 -0.0187  0.0908  0.1044
23308W        W43588  12.379   8.565  16.173 -0.1865 -0.1197  0.5387
23309W        W43589   2.556  11.377   1.807 -0.1680 -0.0489 -0.0187
23310W        W43590  11.626   5.767   5.141  0.1695 -0.0032 -0.4755
23311W        W43591   4.583  11.075  12.023 -0.1187 -0.1903  0.1002
23312W        W43592   9.674   1.061  12.451 -0.2034 -0.2954 -0.0430
23313W        W43593  13.945  14.812   3.636 -0.2851  0.0405 -0.0701
23314W        W43594  16.968  12.225  12.957  0.2475 -0.2781  0.0110
23315W        W43595  11.339   4.825   0.305  0.2026 -0.1141 -0.0526
23316W        W43596  10.967  13.520  16.524  0.1930  0.2033  0.2190
23317W        W43597   7.267   7.030   1.895  0.0442 -0.0572  0.2001
23318W        W43598  13.111   3.463  13.294  0.2388  0.1301 -0.3217
23319W        W43599   8.713   4.847  14.709 -0.0537  0.2094  0.0463
23320W        W43600  13.252  10.886  14.737 -0.1140  0.2902  0.1629
23321W        W43601  11.610   7.371  15.989  0.1805  0.0716  0.0935
23322W        W43602   6.002   5.757  13.158 -0.1085  0.0710 -0.1845
23323W        W43603   1.723  12.882  12.457  0.0267  0.0731  0.1819
23324W        W43604   6.894  17.372   3.360 -0.2343  0.0209 -0.1993
23325W        W43605   0.430   6.008  14.153 -0.1399  0.0523 -0.1678
23326W        W43606  12.553   2.588   5.353 -0.1531  0.1180 -0.1849
23327W        W43607  13.941  14.457   0.336  0.3262  0.2565  0.0930
23328W        W43608   5.111   7.143   4.602 -0.0506 -0.3226 -0.0964
23329W        W43609   8.625  10.101  15.985  0.0151 -0.0511  0.2107
23330W        W43610  10.874  17.624  15.154 -0.1628 -0.1835  0.0600
23331W        W43611   4.907  14.557   3.021  0.0381 -0.2787  0.3400
23332W        W43612  15.026   3.948  14.587  0.1982 -0.1828  0.0230
23333W        W43613  14.789  13.205  13.366  0.2407  0.2153 -0.0556
23334W        W43614   0.057  12.522   1.113 -0.1134  0.0365 -0.2065
23335W        W43615   2.617   7.797  13.855 -0.1931  0.0452 -0.0161
23336W        W43616  14.097  12.273  12.550  0.2124  0.2028  0.1025
23337W        W43617   5.647  13.715   3.866  0.2354  0.3648  0.1172
23338W        W43618   6.337  12.974  16.581 -0.4730 -0.1853  0.1379
23339W        W43619  11.096   4.647  15.816 -0.0216 -0.1033 -0.1425
23340W        W43620   1.409   1.480  16.186  0.0330 -0.0268  0.1376
23341W        W43621  13.559   3.296   0.956 -0.3116  0.1780  0.0781
23342W        W43622   5.266  15.202  13.938 -0.0431 -0.0717  0.2565
23343W        W43623  16.326   2.984  15.130  0.0782  0.2791  0.0604
23344W        W43624   8.587  15.467  12.845  0.0082  0.0349  0.0029
23345W        W43625   7.438   1.357  16.362 -0.1550  0.1094 -0.2417
23346W        W43626  17.537   9.169  16.208 -0.1170  0.2444 -0.0025
23347W        W43627   6.887  15.171   4.634  0.0158  0.1086 -0.1254
23348W        W43628  17.579  17.724   3.447  0.2838  0.0571 -0.3664
23349W        W43629  10.729   7.237   3.300  0.0867 -0.1660 -0.0490
23350W        W43630  12.406   5.716   3.944  0.1379  0.0395 -0.0604
23351W        W43631   5.242   2.953   0.259  0.0139 -0.0408  0.0248
23352W        W43632  12.566   4.742   3.926 -0.1120 -0.1062  0.0093
23353W        W43633  16.493  12.458  14.275 -0.0426 -0.0495 -0.2501
23354W        W43634  13.150   7.242   0.781  0.0359  0.2474  0.0642
23355W        W43635  11.576  14.540  13.984  0.1038 -0.0391  0.3715
23356W        W43636  12.552   6.148  13.792  0.1486 -0.0350  0.0901
23357W        W43637  13.803   1.028  14.867  0.0842 -0.0186 -0.1334
23358W        W43638   9.495   7.754   2.389 -0.0532  0.2867  0.0164
23359W        W43639  10.284   5.372   2.535  0.0027 -0.0984 -0.1734
23360W        W43640   5.402  11.585   2.214  0.0088 -0.4764  0.3387
23361W        W43641   7.535   1.058   2.048  0.1682  0.2294  0.1283
23362W        W43642  15.468  12.268   2.221 -0.1672 -0.0477 -0.0352
23363W        W43643   1.687   7.274  12.895 -0.1515 -0.0228 -0.1007
23364W        W43644  16.686  15.077   3.813  0.0927 -0.0100  0.1636
23365W        W43645  13.821  11.811  13.417  0.3556 -0.0429 -0.4605
23366W        W43646   2.660   6.550   4.469  0.0614 -0.0482 -0.0589
23367W        W43647   5.020  10.145   2.540  0.0605  0.1092  0.3743
23368W        W43648   2.681  14.101   4.142 -0.1266  0.0576 -0.1703
23369W        W43649   0.698  15.497  12.263  0.1144 -0.2095  0.0880
23370W        W43650  12.507   3.580  16.585 -0.2326 -0.2627  0.2145
23371W        W43651   5.921  13.915  12.796  0.0068  0.1151  0.1971
23372W        W43652   9.838   8.720   5.306 -0.0117 -0.1362  0.2267
23373W        W43653   6.666  16.417   0.435  0.3154  0.0653 -0.2853
23374W        W43654   1.652   2.314  16.406 -0.0173  0.0421  0.3110
23375W        W43655  11.413   5.952  11.774 -0.0753  0.0517 -0.0049
23376W        W43656   0.681   5.283   3.729 -0.0797 -0.2145  0.2557
23377W        W43657  10.630  11.453   3.264 -0.0066  0.1443  0.0842
23378W        W43658   2.005  12.466  15.109  0.0291  0.0248 -0.1065
23379W        W43659  10.484   6.110  13.427  0.0591 -0.3468  0.0952
23380W        W43660   8.356  17.131  14.491  0.0210 -0.2473 -0.0418
23381W        W43661   8.300   2.357  15.341 -0.0398  0.3477 -0.1670
23382W        W43662   4.865  13.028  13.218  0.2266  0.0482 -0.1015
23383W        W43663   8.867  13.270  13.584  0.1525  0.0682 -0.3266
23384W        W43664   2.209   0.383  15.588  0.0683 -0.2506 -0.1497
23385W        W43665   5.801   0.994  16.259  0.2781  0.1723 -0.4073
23386W        W43666  12.060  16.478  16.423  0.1231 -0.1409  0.1304
23387W        W43667   4.660  14.211   4.604 -0.1286  0.1944 -0.0388
23388W        W43668  13.238  11.343   1.405  0.2661 -0.1512  0.2309
23389W        W43669  15.559   5.448  13.236 -0.0949 -0.2033 -0.0948
23390W        W43670  14.119  16.196  16.489 -0.1855 -0.0208  0.1178
23391W        W43671  12.175  10.842   0.461 -0.0143  0.1097 -0.1272
23392W        W43672   3.517   3.716  12.102 -0.0320 -0.2091 -0.0937
23393W        W43673   3.009  13.863   1.844  0.1752  0.0478  0.1188
23394W        W43674  16.946   1.469   3.267  0.0188 -0.0836 -0.1150
23395W        W43675   0.508  14.619  15.778 -0.0605  0.0073 -0.2314
23396W        W43676   5.285   8.640  16.859  0.0822 -0.0249  0.0925
23397W        W43677   7.601  11.136   3.921 -0.0005  0.1103 -0.0438
23398W        W43678  15.540  16.119  15.536  0.0276  0.0744  0.0532
23399W        W43679  17.590   0.412  16.875 -0.0490 -0.0074  0.1941
23400W        W43680  16.239   3.827  13.602  0.0474 -0.1443 -0.1966
23401W        W43681  16.800  13.253  14.982 -0.0142 -0.1267  0.1458
23402W        W43682  16.786   7.717  13.405  0.0743 -0.0556  0.0801
23403W        W43683  11.945   4.392   2.826 -0.1169  0.0663 -0.1383
23404W        W43684  12.985  14.051  13.562  0.0337 -0.3911 -0.0169
23405W        W43685  11.248  13.862  13.492  0.1140 -0.0518  0.1684
23406W        W43686  12.322  13.199   1.883  0.1351  0.1677  0.0072
23407W        W43687  15.000  12.173  15.463 -0.0925  0.2698 -0.2853
23408W        W43688  14.477   1.183   0.536  0.3730  0.3877 -0.1255
23409W        W43689  16.283  10.070   3.405  0.0462  0.1841 -0.0186
23410W        W43690  14.907   6.684  14.478  0.0087 -0.1893 -0.2040
23411W        W43691  13.452   9.447  15.163 -0.1134  0.1923 -0.0902
23412W        W43692  17.362   7.445   3.276  0.1329 -0.1671 -0.1135
23413W        W43693  16.109  15.530  16.170 -0.0926  0.0044  0.2947
23414W        W43694   2.315  12.313   2.252 -0.0870 -0.0485  0.1188
23415W        W43695   2.367   5.594  16.199 -0.1054 -0.1090 -0.5441
23416W        W43696  13.269  10.378   3.096  0.0172 -0.0081 -0.1032
23417W        W43697  14.239   1.128  16.181  0.0225  0.0882 -0.0893
23418W        W43698  11.458   9.962   3.250  0.2861 -0.2930 -0.0477
23419W        W43699   7.639   0.248  12.697  0.1079  0.0281  0.0873
23420W        W43700   7.409  14.546  14.273 -0.4043  0.3249  0.1036
23421W        W43701  13.883   5.489  12.439  0.2230  0.0398 -0.0228
23422W        W43702   7.438  13.451  14.816  0.0184  0.4173 -0.0613
23423W        W43703  14.527   1.394  16.452 -0.0713 -0.0273 -0.0633
23424W        W43704   2.454  10.518   2.377 -0.3207 -0.0204 -0.0184
23425W        W43705  12.072   4.296  15.331  0.0708  0.0610 -0.1276
23426W        W43706  11.087  15.701   4.454 -0.2596 -0.0465  0.0319
23427W        W43707   7.762   9.441   3.019 -0.0866 -0.2260 -0.2391
23428W        W43708  13.848   8.310   3.701  0.1404 -0.1307  0.2879
23429W        W43709  13.653   8.037  16.786 -0.0206 -0.2924 -0.1076
23430W        W43710  16.449  14.697  12.431  0.0688  0.0621 -0.1091
23431W        W43711   2.900  10.549   1.911 -0.4517  0.1481 -0.3221
23432W        W43712  11.165  16.033   3.383 -0.0083 -0.1363 -0.1666
23433W        W43713  11.360   0.336   0.911  0.1900 -0.0388 -0.4630
23434W        W43714   5.072  13.213   4.670  0.0884  0.2268  0.2521
23435W        W43715  11.693   4.626  13.870 -0.2103 -0.0204 -0.0095
23436W        W43716   8.728   3.728   3.943 -0.3585 -0.0527 -0.1010
23437W        W43717   3.586   8.668   1.026  0.0941  0.1603  0.1526
23438W        W43718   8.115   7.097   3.954  0.0090  0.1610 -0.4270
23439W        W43719  11.631  16.745   4.443 -0.2210  0.2480 -0.0894
23440W        W43720   9.085   4.412   0.345 -0.0206  0.0651 -0.1243
23441W        W43721   7.435   3.377  15.179 -0.0277  0.1038  0.3696
23442W        W43722  14.441  12.580   4.636 -0.1302 -0.0520 -0.0542
23443W        W43723   0.175   7.884   3.057  0.0786  0.2147 -0.0568
23444W        W43724   5.445   0.955   4.171  0.0949  0.0474 -0.2122
23445W        W43725   7.483   6.615   2.760  0.1187  0.0181  0.0328
23446W        W43726   6.794   6.129   1.277  0.1503  0.2975  0.1247
23447W        W43727   0.181   3.558   1.017  0.0417  0.3788 -0.1308
23448W        W43728  16.675  12.227   4.478  0.1238 -0.0971  0.1344
23449W        W43729   4.683   2.040  14.118 -0.1797  0.0657 -0.1119
23450W        W43730  12.026   5.369  12.819  0.0626 -0.0072  0.0544
23451W        W43731  10.674   7.161  15.062 -0.0328 -0.0424 -0.0745
23452W        W43732  17.304   4.695  12.691  0.4388  0.1981  0.0073
23453W        W43733  16.499  11.553   2.700 -0.1376  0.0374 -0.0383
23454W        W43734  12.961  15.181  13.024 -0.2316 -0.0804 -0.0947
23455W        W43735   1.905  17.276   1.575 -0.1083  0.2446 -0.0315
23456W        W43736  13.213   6.188   4.828  0.1153  0.2021 -0.1423
23457W        W43737   9.829   2.238   4.161  0.0776  0.3002 -0.1742
23458W        W43738   8.091   3.200  13.492  0.0790  0.1645 -0.2555
23459W        W43739  10.814   2.268  13.525 -0.0636  0.0397 -0.2808
23460W        W43740   2.695   1.151  15.291  0.0038 -0.1983 -0.1928
23461W        W43741   8.916   3.997   4.520 -0.2089  0.4686  0.3147
23462W        W43742   3.832   0.955   4.361  0.3020 -0.0196  0.0934
23463W        W43743   7.617   2.633   2.728 -0.1354  0.1609 -0.2634
23464W        W43744  12.970  13.364   3.815  0.0094  0.2164  0.2458
23465W        W43745  16.047   0.893   4.372  0.2600  0.1437  0.2146
23466W        W43746  16.844   9.011   1.138 -0.3808 -0.1657 -0.2524
23467W        W43747   6.417   3.432   1.572  0.1722 -0.0526  0.0034
23468W        W43748   4.702  12.174   2.886 -0.1017 -0.0683 -0.2227
23469W        W43749  10.324   7.404   2.391 -0.1207 -0.0458 -0.2517
23470W        W43750  17.496  14.777  16.510  0.0136 -0.1384 -0.0327
23471W        W43751   5.657   5.803  14.914  0.0235 -0.3114  0.0945
23472W        W43752   8.538   6.870   4.109 -0.1640 -0.1243  0.1345
23473W        W43753   7.962   4.414   1.370  0.0386  0.2415 -0.1408
23474W        W43754   3.316  11.330  14.313 -0.0278  0.1964  0.0117
23475W        W43755   7.018   1.985  12.199 -0.2480  0.3559 -0.1085
23476W        W43756   9.697  11.689  13.593 -0.0553  0.0606 -0.0597
23477W        W43757   1.271   0.850  14.830 -0.0505  0.0253 -0.1511
23478W        W43758  11.736  16.141  15.443 -0.2099  0.1894 -0.0477
23479W        W43759   0.910  10.594  12.571 -0.0870 -0.0370 -0.0358
23480W        W43760  13.983  14.611   4.504 -0.2311  0.1436  0.1035
23481W        W43761  14.261  13.277   0.054 -0.2716 -0.3424 -0.2503
23482W        W43762  16.864   9.780   0.596  0.4062  0.3785  0.1028
23483W        W43763   5.017   4.136   3.999 -0.3958  0.0486 -0.0691
23484W        W43764   2.529   8.697  16.408 -0.0824  0.2236 -0.1559
23485W        W43765  10.154   3.795   0.660  0.3397  0.0420 -0.0657
23486W        W43766   8.630  12.882   1.616 -0.0183  0.2516 -0.1197
23487W        W43767   2.474  17.730  12.927  0.0152 -0.3311 -0.2121
23488W        W43768   0.874  13.222   4.068  0.0735 -0.0082 -0.2823
23489W        W43769   2.877   7.741  15.775 -0.1231 -0.1718  0.0687
23490W        W43770  11.543  12.250  13.365 -0.0206 -0.1765  0.5897
23491W        W43771   9.929   8.329  12.077  0.2093 -0.0640  0.1012
23492W        W43772  13.930   5.920  14.564 -0.4396 -0.0582 -0.2016
23493W        W43773   8.137  11.041  14.498 -0.1755  0.1387 -0.2236
23494W        W43774   6.394   2.503  13.032  0.0641  0.0072  0.1006
23495W        W43775  10.308  15.332   0.411 -0.0799 -0.0777  0.2309
23496W        W43776   6.289  15.653  16.310  0.1478  0.1811  0.0087
23497W        W43777   0.979   1.615  13.359  0.0626  0.1356 -0.1644
23498W        W43778  10.248   3.493  14.153 -0.0145  0.0024 -0.2250
23499W        W43779   3.007   4.209   3.383 -0.0639  0.0625  0.1578
23500W        W43780   5.544   9.445   0.234  0.2179  0.2214 -0.0113
23501W        W43781  16.676   3.041   3.669 -0.0562  0.3376  0.0129
23502W        W43782  10.861   0.072   5.143  0.3156  0.2838 -0.4071
23503W        W43783   4.831   6.240   1.464  0.0800  0.2018 -0.0771
23504W        W43784  15.511   8.340   4.999  0.1941  0.2306 -0.0607
23505W        W43785   9.593  16.826  12.390  0.1277 -0.2426  0.2101
23506W        W43786  10.133  17.254   3.816 -0.1069 -0.2771 -0.1230
23507W        W43787   2.103  17.523  14.217 -0.0505  0.1088  0.1253
23508W        W43788   8.414  14.970   3.955 -0.0548 -0.1809 -0.0565
23509W        W43789  17.314  13.920  13.910  0.0773  0.0723 -0.0997
23510W        W43790  10.683  17.587   4.642 -0.2029  0.2567 -0.0662
23511W        W43791   8.621  10.661  12.131 -0.0786 -0.0245  0.0220
23512W        W43792  14.761   5.695  13.672  0.0255  0.0836  0.1069
23513W        W43793  10.587  10.581  14.563  0.3533  0.1361 -0.0093
23514W        W43794  15.322   6.855   2.774 -0.0837 -0.0068  0.0057
23515W        W43795  10.878   8.799  16.761  0.2228  0.2144 -0.3615
23516W        W43796   3.673   5.003   1.503  0.2197  0.1240  0.0623
23517W        W43797   6.499  10.121  11.936  0.1429 -0.0355 -0.1122
23518W        W43798   6.019   4.307  13.272  0.3306 -0.0961 -0.3375
23519W        W43799  10.948  11.974   3.844  0.1391 -0.0858 -0.3229
23520W        W43800  10.883  10.257   2.561 -0.0208 -0.3762  0.1336
23521W        W43801  16.756  15.678   3.709 -0.3537  0.1595  0.1196
23522W        W43802   4.264  13.026  14.149 -0.2677  0.0280  0.1298
23523W        W43803   0.653  14.734  14.829 -0.1304 -0.0463  0.1636
23524W        W43804  10.922   8.083  12.092 -0.4128  0.2338 -0.2883
23525W        W43805   6.729   8.346  14.032 -0.1609  0.2009  0.1913
23526W        W43806   0.523  15.621  13.908 -0.4410 -0.2013  0.1439
23527W        W43807   3.677   8.490   1.478  0.0530 -0.0082  0.4870
23528W        W43808  14.201  12.619   0.658  0.3051  0.2992 -0.1421
23529W        W43809   9.829  17.144   4.278 -0.0258 -0.2228  0.0249
23530W        W43810   4.440   9.192  14.153 -0.2154  0.0824  0.1186
23531W        W43811   5.147  10.859   3.286 -0.0134 -0.0733 -0.3008
23532W        W43812   3.032   6.215   6.228  0.1720  0.1747 -0.1165
23533W        W43813  11.794  16.024   2.522 -0.1365 -0.1622 -0.1087
23534W        W43814   0.343   2.697   1.402 -0.0508  0.3658  0.1936
23535W        W43815  15.424   6.267   0.190  0.0853 -0.1818 -0.3988
23536W        W43816  12.277  14.001   2.260 -0.1253 -0.1170  0.2043
23537W        W43817  12.062  15.859   3.039 -0.0414 -0.0538 -0.3246
23538W        W43818   3.567  11.036   0.773  0.0532 -0.0119  0.1062
23539W        W43819   0.675   5.577   4.707 -0.1508 -0.1081  0.4966
23540W        W43820   9.582   7.015  13.196 -0.1166 -0.1352  0.1269
23541W        W43821  11.371  11.896  14.171  0.0033 -0.0221 -0.2560
23542W        W43822   0.056   6.357   5.033 -0.1700 -0.2186 -0.2277
23543W        W43823   2.285   2.727   4.707 -0.1242 -0.0171  0.2709
23544W        W43824  13.993   9.695  13.193  0.2362 -0.1593 -0.0195
23545W        W43825  15.452   1.172   3.784  0.1295  0.0804 -0.1262
23546W        W43826  15.872   7.628   2.283  0.0421  0.0558  0.2142
23547W        W43827   3.706  11.963  14.048 -0.1955  0.0545 -0.0524
23548W        W43828   5.100  16.794   0.592  0.1830 -0.0133  0.1233
23549W        W43829   1.789   9.005  15.395  0.1359 -0.0424 -0.0151
23550W        W43830   8.193   9.820   1.382  0.0521 -0.1626 -0.3340
23551W        W43831   7.571  12.528  15.921  0.2921  0.0038 -0.0494
23552W        W43832  13.537   9.534   5.027 -0.0641 -0.2647  0.1402
23553W        W43833   3.500   7.506   0.093 -0.3254  0.2937  0.2663
23554W        W43834  12.889   1.116   1.050 -0.2336 -0.1901  0.1132
23555W        W43835  11.912  17.630  15.951 -0.1593  0.0343 -0.1618
23556W        W43836   9.150  12.323  13.490  0.0947  0.1385 -0.2791
23557W        W43837   2.765  17.731   2.387  0.3588  0.2977 -0.4289
23558W        W43838  13.168   6.298   2.591  0.0586 -0.2266 -0.0590
23559W        W43839  13.121   7.408   4.796  0.0225  0.0388 -0.0818
23560W        W43840  10.951   6.248  13.439 -0.2070  0.1340 -0.2059
23561W        W43841  12.955  15.170  15.976  0.0178 -0.0311 -0.1398
23562W        W43842   9.806  15.176   2.883  0.0891  0.0156 -0.0127
23563W        W43843   4.895   2.572   4.277  0.0175 -0.0107 -0.0776
23564W        W43844  13.142   8.808   4.929  0.2403 -0.1041 -0.1218
23565W        W43845   2.802   4.259  14.531  0.0749 -0.1857  0.1181
23566W        W43846   7.928   8.511   0.260  0.1284  0.3004  0.3594
23567W        W43847  13.484   3.727  12.704 -0.0530  0.2511  0.0909
23568W        W43848   3.333  12.989  13.659  0.0520 -0.2184  0.3515
23569W        W43849  11.143   7.660  12.706  0.1076  0.1800 -0.0385
23570W        W43850  14.429   9.608  12.898  0.0316 -0.0674 -0.2984
23571W        W43851  17.660  14.461  16.062  0.0730  0.1648  0.2684
23572W        W43852   6.685   5.636   0.913 -0.0900  0.1195  0.2558
23573W        W43853  17.318   5.065  13.522 -0.0919  0.1350 -0.1253
23574W        W43854   5.582  13.031  14.797  0.0227 -0.1724  0.1145
23575W        W43855   2.730   6.352  16.815 -0.1528  0.3266  0.0746
23576W        W43856  12.490   5.789   4.695 -0.0233  0.2987  0.1111
23577W        W43857   7.810   9.509  14.188  0.0651 -0.0455 -0.1782
23578W        W43858   2.280   2.232   0.174  0.1389 -0.1369 -0.0473
23579W        W43859   9.657  13.729   4.656 -0.3208 -0.1471 -0.2281
23580W        W43860   2.643  17.515  16.028  0.3315 -0.0396  0.1072
23581W        W43861   3.016   6.054   1.254 -0.0766  0.1818  0.2810
23582W        W43862   2.931   7.705  11.832  0.2254 -0.0106  0.0417
23583W        W43863  14.688   9.499  15.919  0.1721 -0.0710 -0.1751
23584W        W43864   2.553  11.991   3.611  0.2412 -0.0115  0.0875
23585W        W43865  12.439  16.562  13.335  0.0281  0.0534  0.1754
23586W        W43866   6.110  12.653  12.782 -0.2126 -0.1481  0.2572
23587W        W43867  14.320  15.759   3.637  0.1181  0.2937 -0.2707
23588W        W43868   9.362   2.592   1.095  0.1830 -0.0841 -0.2137
23589W        W43869  10.503  11.059   2.855  0.1552 -0.2510  0.2626
23590W        W43870  13.216  15.293  14.086 -0.0242 -0.2492  0.0880
23591W        W43871  13.995  15.119  14.471 -0.1649  0.1073  0.0815
23592W        W43872   8.112  13.674  15.694  0.2730  0.0360  0.1692
23593W        W43873  13.253  15.221  16.419 -0.1700  0.0404  0.1068
23594W        W43874   6.259   1.140  14.287  0.1810 -0.2945 -0.2632
23595W        W43875  16.927  16.758   2.398 -0.0386  0.0728 -0.2473
23596W        W43876  12.518   7.050  16.289  0.0365  0.1353  0.5909
23597W        W43877   2.915   9.025  14.108 -0.0514  0.0901 -0.4071
23598W        W43878   7.726   1.650  15.968  0.0817 -0.0180 -0.0286
23599W        W43879  11.343   9.852   4.108 -0.3160 -0.0307 -0.0801
23600W        W43880   1.941   6.697   1.382 -0.0166  0.0422  0.3632
23601W        W43881   0.491  10.932  13.405 -0.0404  0.0070  0.1189
23602W        W43882  14.703   5.602   0.475  0.0483  0.0125  0.0947
23603W        W43883  11.349   8.454  12.956 -0.2991 -0.0798  0.4078
23604W        W43884   7.898  16.116   2.929  0.1639 -0.1162  0.2847
23605W        W43885   8.994   0.248   3.390 -0.2377  0.1517 -0.1063
23606W        W43886   8.639   9.397  14.445  0.3007 -0.0871 -0.1899
23607W        W43887   8.992  14.897   4.178  0.0407  0.0761 -0.1089
23608W        W43888   9.719  15.621   5.335  0.3509  0.2326 -0.2704
23609W        W43889  12.439  15.991  13.524  0.1745 -0.2021 -0.2455
23610W        W43890  13.866  14.360   1.969 -0.2581  0.0554  0.2241
23611W        W43891   4.786  11.655  16.465 -0.0732 -0.1640 -0.1259
23612W        W43892   9.361   5.752  12.261 -0.0570  0.1077 -0.1470
23613W        W43893   4.809  15.112  15.352  0.0797 -0.0518  0.2514
23614W        W43894   0.504  11.513   2.406  0.1630 -0.0670  0.1147
23615W        W43895   6.738   7.006  13.553  0.0340  0.0253 -0.1093
23616W        W43896   6.771  12.195   3.756 -0.2667 -0.4227 -0.0794
23617W        W43897  12.877  16.192   2.690  0.0765 -0.0580 -0.3846
23618W        W43898   7.832   3.743   1.880  0.0817 -0.0728 -0.4536
23619W        W43899  14.848   1.518   4.395 -0.0959 -0.3024 -0.2890
23620W        W43900   4.387   6.446  13.593 -0.2219  0.0384  0.2282
23621W        W43901   3.341  12.274  14.316 -0.4043 -0.1524 -0.0294
23622W        W43902   1.434   5.043   3.996  0.1593  0.0968 -0.1715
23623W        W43903   7.217   8.448  16.006 -0.1041 -0.1671 -0.0407
23624W        W43904   2.779   7.974  13.243  0.1951  0.1250  0.2595
23625W        W43905   3.191  10.266  15.495  0.2348 -0.1478  0.1844
23626W        W43906   9.561   5.911   1.333 -0.1249  0.0495 -0.0195
23627W        W43907  14.976  10.338  13.246  0.0286  0.0765  0.1036
23628W        W43908   5.405  10.992  16.723  0.2047 -0.1086  0.1597
23629W        W43909   4.702   7.636   5.601  0.1646 -0.2064  0.3276
23630W        W43910  15.341   7.773   2.164  0.0242 -0.0927 -0.4888
23631W        W43911  13.513   0.598  15.036  0.0726  0.1917 -0.0662
23632W        W43912  14.110   0.490   2.150  0.0102 -0.0423  0.0482
23633W        W43913   7.977  12.765   3.342  0.0519  0.0546 -0.0505
23634W        W43914   3.380   2.124  13.917 -0.1052  0.1485 -0.1022
23635W        W43915   2.887   1.469   0.112  0.1298  0.0891  0.4334
23636W        W43916   7.685   2.453   1.134 -0.0292  0.0716  0.1091
23637W        W43917  16.643   1.676  16.302  0.1356  0.0303  0.1120
23638W        W43918  13.900  10.608   0.641 -0.1457  0.2374 -0.1320
23639W        W43919   9.086  16.440  13.613  0.0466  0.3694 -0.0160
23640W        W43920  16.167   6.086  15.831 -0.1157 -0.2561  0.0203
23641W        W43921   6.738  13.658   4.074  0.0339 -0.1679 -0.0151
23642W        W43922  16.421  13.401  15.322  0.1091  0.2948 -0.0474
23643W        W43923   2.926  11.402  15.111  0.0770  0.0195  0.2397
23644W        W43924   0.183   9.436  12.481  0.1045  0.2513 -0.2799
23645W        W43925   2.392  10.510   0.355  0.0089 -0.1641 -0.2939
23646W        W43926   4.594  12.211  15.193  0.1325 -0.2489  0.4170
23647W        W43927  14.752   2.655   2.815 -0.1314  0.1470 -0.1987
23648W        W43928  13.425  10.378  15.496  0.4187  0.0110  0.2625
23649W        W43929   2.984  11.819   0.065 -0.3509  0.1310  0.1973
23650W        W43930   5.170   1.495   2.488  0.3478  0.0902 -0.0551
23651W        W43931  15.772  16.303   2.343  0.1282  0.0954  0.0455
23652W        W43932   5.266  12.928  13.961 -0.3004 -0.1157 -0.0798
23653W        W43933   5.359  13.779   1.039  0.0356 -0.3129 -0.2166
23654W        W43934   2.889  14.992  14.121  0.3764  0.0342  0.0835
23655W        W43935  10.759  10.893  14.865 -0.0423  0.0339  0.0109
23656W        W43936   9.700   8.587  15.271 -0.2047 -0.4183 -0.1503
23657W        W43937   2.624   4.754  15.466 -0.2179 -0.0700 -0.0308
23658W        W43938   3.312  17.089  16.841  0.1230 -0.2718 -0.0113
23659W        W43939   2.659  17.066   3.512 -0.3223 -0.2445 -0.1707
23660W        W43940  13.951  13.140  13.815 -0.2522  0.0022 -0.1822
23661W        W43941   3.822   3.237  12.336  0.0036  0.2033  0.0648
23662W        W43942   2.448   1.912  15.967 -0.0676 -0.1314 -0.0813
23663W        W43943  12.004  14.365   4.856 -0.2563 -0.3850 -0.0158
23664W        W43944   1.601   1.741  14.544 -0.1444  0.0127 -0.1538
23665W        W43945  16.281  13.812  16.455  0.1281  0.1669  0.1493
23666W        W43946  15.324   0.019   0.652  0.5904  0.2648  0.1860
23667W        W43947   3.470  12.682  16.703 -0.0396  0.3660  0.2435
23668W        W43948   0.254  14.005  12.892  0.0377 -0.0089  0.1324
23669W        W43949  11.459   8.836   2.013  0.0387 -0.2106  0.1365
23670W        W43950  11.424  11.752  13.084  0.1936  0.1666 -0.0469
23671W        W43951   5.191   5.489  16.880  0.2480 -0.1642  0.3133
23672W        W43952  14.635  15.334   3.295  0.0369  0.1568  0.2953
23673W        W43953  17.675   8.528   1.268  0.0759  0.4061  0.0977
23674W        W43954  17.495   4.563   4.914  0.0898  0.1854 -0.1068
23675W        W43955   8.874  10.677   3.527  0.2167 -0.1499 -0.0295
23676W        W43956   8.863   3.652  15.055 -0.2404 -0.1387 -0.1782
23677W        W43957  15.973  12.678   0.935  0.1047 -0.0434 -0.1759
23678W        W43958  15.251   7.706   1.385  0.0462 -0.0639  0.1279
23679W        W43959  17.083   0.634   4.525  0.1532 -0.0590 -0.0934
23680W        W43960   0.001  10.754  13.402 -0.0793  0.1398 -0.0045
23681W        W43961  16.604  14.490  16.122  0.0080  0.0922  0.0196
23682W        W43962  17.146  13.247  16.492  0.0303 -0.1207  0.1980
23683W        W43963   5.559   2.201  12.353 -0.0086 -0.1986 -0.0862
23684W        W43964  15.039  12.756   0.077 -0.2798 -0.2723 -0.2624
23685W        W43965   4.170   6.279  14.860 -0.1872 -0.2019 -0.2660
23686W        W43966  14.431   9.827   0.738  0.3101  0.0563  0.0366
23687W        W43967   9.651  10.871  15.847 -0.1310  0.0358 -0.0274
23688W        W43968   2.286   7.385  14.139 -0.1593 -0.0175  0.2294
23689W        W43969   8.795  13.164   0.575  0.0310  0.1820 -0.0203
23690W        W43970   0.256  11.553   1.412 -0.0924 -0.3821  0.2377
23691W        W43971  11.231   1.162   0.613  0.1270  0.1158  0.0951
23692W        W43972  14.989  10.456  14.400 -0.0319 -0.0341 -0.1293
23693W        W43973  13.593   1.411  12.852 -0.2899 -0.1736  0.2093
23694W        W43974   0.410   0.547   2.828  0.1039  0.0231 -0.1039
23695W        W43975   7.523  12.572   0.396 -0.1075 -0.2853  0.2135
23696W        W43976   7.528   1.094  13.999  0.0641  0.0141 -0.1495
23697W        W43977  17.727   1.364   2.830 -0.3902 -0.1065 -0.1168
23698W        W43978   1.096  15.987  15.155 -0.0235 -0.2788 -0.1014
23699W        W43979  12.070  12.281   5.971  0.2464 -0.0451  0.1078
23700W        W43980  11.460  16.781   0.722  0.1669  0.1670  0.0949
23701W        W43981   4.037  10.971   2.243  0.0044 -0.2752 -0.0891
23702W        W43982  17.618  13.825   2.355 -0.1517 -0.2140 -0.2505
23703W        W43983   9.705   3.410  15.368  0.1473  0.0404  0.1576
23704W        W43984   0.618  16.619   4.001  0.0492  0.0282  0.0953
23705W        W43985   8.236   6.190   0.248  0.0238 -0.2911  0.0439
23706W        W43986   3.717   9.174   2.802 -0.4368  0.1460  0.1538
23707W        W43987  17.723   3.432   1.855  0.0659  0.0146  0.3657
23708W        W43988  15.159  13.331  15.307  0.0274  0.0356  0.1532
23709W        W43989  16.825   9.623  13.550  0.1009  0.2900 -0.0584
23710W        W43990  13.654   8.231   3.243 -0.0836 -0.0915 -0.0731
23711W        W43991   6.648  13.497  13.381 -0.2019 -0.0782 -0.0449
23712W        W43992   7.837  11.181  12.878  0.2296  0.2043 -0.2068
23713W        W43993   3.087   4.423   0.195  0.0387 -0.0165 -0.1603
23714W        W43994  14.092  16.399  12.850  0.0724 -0.0220 -0.0613
23715W        W43995  12.678   4.470   0.780 -0.1093 -0.1750  0.1975
23716W        W43996  15.360   5.715   3.938  0.2352  0.1143 -0.3293
23717W        W43997   0.528   0.738   4.688 -0.3987  0.1745 -0.2233
23718W        W43998   9.871  11.281   4.534  0.0252 -0.0333  0.0248
23719W        W43999  14.765  12.248  14.165 -0.2416  0.0217  0.0246
23720W        W44000   5.091   7.776   2.040 -0.0154  0.0053  0.0074
23721W        W44001   3.878  17.584   0.136  0.2618  0.0011  0.0945
23722W        W44002   4.713   8.259  16.792 -0.0359  0.0096  0.1001
23723W        W44003  16.939  14.730  15.472  0.0476  0.0920  0.1030
23724W        W44004   3.275  14.739   0.034 -0.2555  0.1105 -0.2060
23725W        W44005   1.646  17.046  15.404 -0.0383  0.3249 -0.0101
23726W        W44006  15.809   7.307   1.311 -0.0250  0.1545  0.1057
23727W        W44007   8.116   4.556  15.446 -0.2664  0.0867 -0.2608
23728W        W44008   6.209  12.752   3.759  0.1678 -0.1766  0.2479
23729W        W44009  16.815   4.369  13.345  0.1739  0.1613 -0.0642
23730W        W44010   8.162   7.387   2.470 -0.1887  0.1995 -0.1039
23731W        W44011  12.639   5.316   0.368  0.0603  0.0125 -0.0245
23732W        W44012   1.968  11.936  12.992  0.0848 -0.3250  0.2086
23733W        W44013   1.154  12.944  15.976  0.0088  0.1421  0.1531
23734W        W44014  13.594   4.201  13.817 -0.0371 -0.0202 -0.2006
23735W        W44015  13.507  15.285  12.278 -0.3161  0.0584 -0.1615
23736W        W44016   1.024   2.520   5.967  0.2513 -0.0352 -0.0117
23737W        W44017   0.496   3.371   2.751  0.0108 -0.0771 -0.0274
23738W        W44018  17.034  12.278   5.454  0.0458 -0.2279 -0.1002
23739W        W44019  10.559  16.286   3.650 -0.2275 -0.0178 -0.1416
23740W        W44020   1.138  10.429   4.525 -0.1933  0.2959 -0.3542
23741W        W44021   0.004  14.071  13.639  0.2842 -0.2552  0.1841
23742W        W44022  11.764  12.462  16.584 -0.2634  0.0542 -0.0080
23743W        W44023   6.342  13.815   4.439 -0.2455 -0.0730  0.0920
23744W        W44024  12.841   0.925   3.408 -0.0545  0.0657  0.1310
23745W        W44025   2.930   1.194  15.776  0.4849 -0.1711 -0.0249
23746W        W44026  16.702   0.699  16.486 -0.3022 -0.2040  0.0153
23747W        W44027  10.384   5.431  11.665  0.0375 -0.1219  0.0611
23748W        W44028  12.463   2.205  13.482  0.3601  0.1056 -0.0813
23749W        W44029   0.736  10.202   2.556 -0.0726  0.1861  0.0894
23750W        W44030  15.772   0.643   2.428  0.1091  0.0391 -0.1595
23751W        W44031  12.383   0.551   0.082  0.4923 -0.0232 -0.0828
23752W        W44032   8.557   5.235  16.176 -0.2605  0.1924  0.0561
23753W        W44033   7.789   9.786  12.916  0.0703  0.4520 -0.3436
23754W        W44034  12.611   4.063  14.359  0.2787  0.0865  0.1385
23755W        W44035   0.258  13.343   3.018  0.2066  0.0447 -0.2746
23756W        W44036   3.696   5.680   1.254 -0.1890 -0.0036 -0.0404
23757W        W44037  15.773   6.105   1.704  0.1796 -0.1165  0.3279
23758W        W44038   1.159  14.818   4.900  0.0443  0.1220  0.0614
23759W        W44039   7.682   8.062   4.605 -0.1741  0.1079  0.0443
23760W        W44040   6.106   8.588   1.634  0.0402  0.0778 -0.0574
23761W        W44041  14.128  12.840  16.723 -0.1259 -0.1756 -0.0687
23762W        W44042  13.132  17.222   0.786 -0.0052  0.1652  0.1245
23763W        W44043   7.362  17.417  15.596  0.2259 -0.2583 -0.1724
23764W        W44044   7.376  15.516   4.477  0.1374  0.0892  0.2764
23765W        W44045   4.739  11.093   1.708 -0.1584 -0.1669 -0.1601
23766W        W44046  12.119  10.585   3.120 -0.1212  0.0469  0.1547
23767W        W44047  12.652  11.094   2.553  0.3348 -0.1327 -0.0490
23768W        W44048  12.340   6.226  13.321  0.1973  0.1384  0.2261
23769W        W44049   8.693  13.982   4.156  0.1250  0.4306 -0.1415
23770W        W44050   3.578  15.270   4.898  0.2955 -0.1827  0.2941
23771W        W44051  10.773   7.492   2.149  0.1058  0.2943  0.0775
23772W        W44052   1.946  15.670   0.649  0.0737 -0.2275 -0.1513
23773W        W44053  10.500  14.448   1.525  0.1672 -0.2632 -0.1189
23774W        W44054   7.377  10.914  12.921 -0.1407 -0.1791  0.0104
23775W        W44055   0.527  17.654   1.911  0.1302 -0.2559  0.2097
23776W        W44056   4.061  10.595  12.706  0.2469  0.0682 -0.0250
23777W        W44057   8.446   3.900   4.310 -0.0760 -0.0525  0.2919
23778W        W44058   2.630   4.102  16.505  0.3312  0.2445  0.0468
23779W        W44059   4.080  16.230   0.326 -0.1050  0.2277  0.1336
23780W        W44060   5.182  13.873   3.820  0.1709  0.1971 -0.2913
23781W        W44061  14.286   4.286   4.113 -0.3521  0.3615  0.1435
23782W        W44062  11.773   1.320   4.964 -0.1515  0.0104 -0.2377
23783W        W44063   5.745   5.310  15.827  0.2376 -0.6305 -0.0037
23784W        W44064  11.472   0.982   4.128 -0.1946 -0.1855 -0.1276
23785W        W44065   7.271  16.249  12.713  0.2619 -0.0014  0.0624
23786W        W44066  12.704   8.152   0.483 -0.0338  0.1585  0.2998
23787W        W44067  13.570   8.884  15.576  0.0556 -0.2776 -0.0334
23788W        W44068   1.295   1.191   4.017 -0.1190 -0.1951  0.1772
23789W        W44069   7.560   7.083   1.371 -0.0415 -0.1521 -0.0765
23790W        W44070   6.098   8.132   3.559  0.3268 -0.2715 -0.1823
23791W        W44071   4.428   0.204  13.535  0.2641 -0.2737  0.1908
23792W        W44072  15.702   6.892   3.792 -0.0330  0.0364  0.0748
23793W        W44073  16.325  14.333  16.663 -0.0186 -0.2039  0.4160
23794W        W44074  13.774   4.161  16.632  0.1504 -0.4072  0.0439
23795W        W44075  13.820  14.120   4.834 -0.1914 -0.1658 -0.2115
23796W        W44076   4.607   4.998   3.039 -0.0052 -0.1485  0.0982
23797W        W44077  10.362   1.181  16.560  0.1171 -0.2808  0.0934
23798W        W44078   7.535   0.945  14.887 -0.1242  0.0763 -0.0917
23799W        W44079  17.051   7.479  16.080 -0.0795 -0.0125  0.0258
23800W        W44080   2.866  14.172   1.381  0.2031 -0.2706 -0.2052
23801W        W44081   4.702   6.076  14.047 -0.0012  0.1071  0.3208
23802W        W44082   1.880  14.602  13.200 -0.0146 -0.1156 -0.3151
23803W        W44083  15.953  14.161  13.780  0.1118 -0.2131  0.0146
23804W        W44084  16.081  16.045  14.597  0.0525  0.0750 -0.0140
23805W        W44085   3.573  13.865   4.783  0.1252 -0.0128 -0.0454
23806W        W44086  17.462  12.722   2.670  0.1023 -0.0854 -0.1755
23807W        W44087  17.322  10.297  16.533  0.1418  0.0622  0.3614
23808W        W44088   0.812  17.525   0.700 -0.1083 -0.0058 -0.4231
23809W        W44089  11.419  12.873  13.378  0.0427 -0.3685 -0.0865
23810W        W44090   8.148  11.547  12.782 -0.1538  0.2023  0.4116
23811W        W44091   7.291  14.437  16.587 -0.0059  0.0371  0.1170
23812W        W44092   2.791   1.294  13.675  0.0106  0.0715 -0.2722
23813W        W44093  13.962   7.498  14.053  0.2001  0.0948 -0.2553
23814W        W44094  13.620  16.797   0.963  0.0471  0.0727 -0.3209
23815W        W44095  11.965   7.627  12.849 -0.0424 -0.0240  0.3160
23816W        W44096   6.311   7.256  14.272 -0.0475 -0.1902  0.0171
23817W        W44097  12.466   9.138   0.439 -0.0839  0.1235  0.2177
23818W        W44098   4.465   6.354   3.450 -0.1808 -0.2653  0.2739
23819W        W44099   6.660   3.984   3.125  0.3683 -0.0989 -0.2249
23820W        W44100  15.386   6.198   0.866  0.0924  0.0242 -0.2376
23821W        W44101   7.603  11.830  16.501  0.0376 -0.0346  0.0441
23822W        W44102  17.051   5.252  13.936  0.0464 -0.1135  0.1097
23823W        W44103  14.390   2.701   1.000  0.0820 -0.0652 -0.1069
23824W        W44104   8.802  11.381   4.784 -0.0034 -0.2121  0.0450
23825W        W44105  13.405  17.471   2.600 -0.0476 -0.2145  0.0469
23826W        W44106  10.696  13.453  15.986 -0.1292  0.0254 -0.1924
23827W        W44107   1.245   3.197   4.752 -0.1118 -0.2817 -0.1866
23828W        W44108  10.376  17.684   1.554  0.0190  0.0903 -0.2387
23829W        W44109   8.112  15.819  13.623  0.6037 -0.1554  0.1528
23830W        W44110  14.964  12.678   4.589  0.1247  0.3756  0.3033
23831W        W44111   7.861   1.153  15.222  0.1046 -0.0224  0.1494
23832W        W44112   5.409   5.086   0.728  0.1143 -0.3474 -0.2150
23833W        W44113   8.556  11.667   3.111 -0.1311  0.3428  0.0823
23834W        W44114  12.960  17.224  16.170  0.0917 -0.2308  0.1416
23835W        W44115  10.124   9.378  16.774  0.1606 -0.0879  0.0732
23836W        W44116   7.443  13.315   2.023 -0.0757  0.2050 -0.0830
23837W        W44117  15.638  17.071  12.349  0.1131 -0.1744  0.1788
23838W        W44118   0.532   7.080  16.374  0.1511 -0.4856  0.0153
23839W        W44119  10.313   1.333   5.112 -0.0599 -0.0084 -0.0889
23840W        W44120   1.758  11.614  15.066  0.0534  0.1155  0.0966
23841W        W44121  15.669   5.590   0.530  0.0156  0.1058  0.2258
23842W        W44122   4.098   9.409  16.763  0.0437 -0.2083  0.1946
23843W        W44123   2.377   6.314   0.268 -0.2466  0.0669 -0.0550
23844W        W44124  17.445  17.592   2.668 -0.1388  0.1177 -0.1349
23845W        W44125  12.816   5.384   1.279 -0.0718  0.0114 -0.0048
23846W        W44126   8.937   7.785  16.562 -0.1848  0.0959 -0.3548
23847W        W44127  10.562   5.786   3.041  0.1144 -0.0433  0.0630
23848W        W44128   2.748  11.112   4.765 -0.0866 -0.0457 -0.2581
23849W        W44129  13.085  16.936  14.965 -0.0020  0.0008 -0.1655
23850W        W44130  11.994   0.229  11.844 -0.1113  0.0971 -0.3641
23851W        W44131  12.925  13.493  14.931 -0.2284 -0.2690  0.3760
23852W        W44132   0.110   0.364   2.073  0.0726  0.1713 -0.1965
23853W        W44133   7.308  15.092   2.999 -0.1920  0.0489 -0.2101
23854W        W44134  12.962  15.819  13.629  0.1205 -0.3006 -0.4193
23855W        W44135   1.304   0.574  12.432 -0.0848  0.3276  0.0265
23856W        W44136  13.283   2.896  13.929  0.0124 -0.0049  0.1417
23857W        W44137   1.388  12.424   0.251  0.1791 -0.0822  0.0928
23858W        W44138   8.589  10.876   2.504 -0.0980  0.3559  0.1040
23859W        W44139  17.184   4.691  14.626 -0.2625  0.4820  0.2287
23860W        W44140  13.864  10.498  14.756  0.1025 -0.0884  0.2005
23861W        W44141   9.318   4.714   1.919 -0.0116 -0.2650  0.0706
23862W        W44142  11.193   1.191   2.591  0.1192 -0.1314  0.0709
23863W        W44143   9.657  16.049   4.303 -0.0976  0.2772 -0.3685
23864W        W44144   9.997  10.569   3.516 -0.2077 -0.1298  0.1102
23865W        W44145  11.767  13.454   4.703  0.1422  0.0822 -0.1569
23866W        W44146   1.858   2.944   0.805  0.0374  0.0832  0.0804
23867W        W44147  10.180  13.042  12.900  0.0329  0.0045  0.1151
23868W        W44148   6.797  11.016  13.821 -0.1300  0.0502 -0.0262
23869W        W44149  12.152  15.796   4.111 -0.0402  0.0418 -0.2955
23870W        W44150  15.759   4.406   3.335  0.2954 -0.0348  0.3462
23871W        W44151  10.483   5.133  10.748 -0.1453  0.0288  0.1944
23872W        W44152   3.893  14.916   1.501  0.0825 -0.1629  0.1839
23873W        W44153  12.319   1.026  15.496  0.1841  0.1433 -0.1141
23874W        W44154   8.837   6.649  12.789 -0.0690 -0.1499 -0.2986
23875W        W44155   9.069   9.269  14.829 -0.0642  0.0724  0.0197
23876W        W44156   7.543  12.681   4.199 -0.2080 -0.0556  0.4173
23877W        W44157   4.464  13.028   2.088 -0.0335  0.2856  0.0644
23878W        W44158   4.486  13.048   2.964 -0.1003 -0.0966  0.1346
23879W        W44159   9.995   8.929   0.073  0.1204  0.0616 -0.1094
23880W        W44160   8.096   6.999   1.449 -0.1714 -0.1955  0.1143
23881W        W44161   1.808   7.628  12.538 -0.1214  0.0913 -0.0566
23882W        W44162   2.500  12.106  14.808  0.3509  0.2516 -0.0314
23883W        W44163  10.831   5.038  13.361  0.2556  0.2535  0.1890
23884W        W44164   3.625   4.167   1.620  0.0723  0.0858  0.3077
23885W        W44165   8.266  15.566   4.277 -0.2562  0.0623 -0.0470
23886W        W44166   1.966   3.478  14.373 -0.1378 -0.1208  0.3059
23887W        W44167   4.038  10.805  16.868 -0.0988  0.0248  0.1233
23888W        W44168   5.855  10.712  12.636 -0.0430 -0.2219  0.3614
23889W        W44169  10.857   5.691  11.741  0.0683 -0.1789 -0.0482
23890W        W44170  11.425  12.196   1.065  0.0934  0.1256  0.1045
23891W        W44171  13.849  15.848  15.142  0.0338 -0.0440  0.1875
23892W        W44172  10.010   5.749   3.371  0.2023 -0.1784 -0.1672
23893W        W44173  13.846   1.364   2.623 -0.0348 -0.0820  0.2700
23894W        W44174  16.476  15.371   3.294  0.0486  0.0593  0.0480
23895W        W44175   3.124   0.852   2.434 -0.1500  0.2536 -0.0881
23896W        W44176   5.843   5.383   1.712 -0.2303 -0.0208  0.2092
23897W        W44177  13.193   9.406   0.656 -0.1361 -0.1015  0.1494
23898W        W44178  16.209   9.832   2.159  0.1334 -0.0016  0.1154
23899W        W44179  11.306   3.632  11.992  0.2725 -0.2411 -0.0852
23900W        W44180   8.245   2.425  14.807 -0.0440 -0.0526 -0.4025
23901W        W44181  11.165  12.845  15.258  0.1758  0.0426  0.1383
23902W        W44182   8.681   3.483  12.201  0.0019  0.4137  0.1135
23903W        W44183   5.561  14.767  15.640  0.0534  0.3392 -0.0394
23904W        W44184  16.716   1.646  14.340 -0.1556 -0.1601  0.2035
23905W        W44185  14.856  14.803  12.956 -0.1518 -0.2228  0.3014
23906W        W44186  11.608   0.098   1.224 -0.0282 -0.0719 -0.0625
23907W        W44187   4.761   0.854  13.139 -0.0132 -0.1516  0.0084
23908W        W44188   0.818  10.048  13.282  0.1760  0.1519  0.2589
23909W        W44189   6.352  15.459   2.380  0.0883  0.1419  0.3324
23910W        W44190  16.369  14.374   4.913  0.0711  0.1846  0.1069
23911W        W44191  16.392  16.872  14.624  0.2649 -0.2436  0.2250
23912W        W44192   9.476  10.914   3.902  0.2141 -0.1307 -0.3916
23913W        W44193   8.130   4.361  15.886  0.0345  0.0424  0.2508
23914W        W44194   2.470  10.156  14.785 -0.1146  0.0824 -0.3320
23915W        W44195  10.674   4.996   2.929  0.1283 -0.0590  0.3244
23916W        W44196  11.978   0.995   3.982 -0.0816 -0.0337 -0.0814
23917W        W44197   1.858   6.204   4.490 -0.0225 -0.0232 -0.1444
23918W        W44198   4.512   9.407  15.961 -0.0205  0.2080 -0.1152
23919W        W44199   7.379  12.604   0.934 -0.2437 -0.0468 -0.0385
23920W        W44200   3.035  13.600  12.833  0.0867 -0.0382  0.0087
23921W        W44201  17.716   1.225   4.117  0.1777 -0.0095  0.0479
23922W        W44202  17.207   1.295   3.680  0.0133  0.0014 -0.0854
23923W        W44203  11.492   1.447   0.168  0.1645  0.2612  0.0316
23924W        W44204   3.531   1.135  16.525  0.1595 -0.0671 -0.1642
23925W        W44205  14.570  13.764   4.012  0.0610  0.0228 -0.2495
23926W        W44206  10.451  12.791  14.254  0.0373  0.3098  0.0550
23927W        W44207  10.516  17.017   3.360  0.1568  0.2631  0.0471
23928W        W44208   8.944   8.944   2.615  0.2109  0.0959 -0.0861
23929W        W44209   8.721  12.695   4.365  0.0058 -0.0451  0.2224
23930W        W44210  11.943   2.760   2.355  0.1966  0.4090  0.2116
23931W        W44211  17.011   6.807  14.832 -0.1695  0.1290  0.2336
23932W        W44212  11.872   4.490  15.950 -0.0705  0.0222 -0.2127
23933W        W44213   5.789   1.224   1.035  0.0069 -0.0924  0.0046
23934W        W44214   3.982  14.246   3.305  0.0955 -0.1220 -0.1549
23935W        W44215   6.018   5.527   1.079  0.0954 -0.0894  0.0613
23936W        W44216  15.863  16.568  12.641  0.0086 -0.2388  0.0860
23937W        W44217   4.142  10.311  16.616 -0.0533 -0.0225  0.1069
23938W        W44218   2.187   0.633  16.497 -0.4365  0.0695  0.2483
23939W        W44219  16.564   1.423  13.903  0.1743  0.0618 -0.2082
23940W        W44220   3.057   1.281   4.659 -0.0501 -0.0588  0.0209
23941W        W44221   1.200   3.604  15.483  0.0607 -0.2309 -0.2854
23942W        W44222  11.708   4.100  14.945  0.2442  0.3567 -0.1221
23943W        W44223   9.575  12.453  15.923 -0.0321  0.0800  0.3002
23944W        W44224   3.483   7.114   1.470  0.0007 -0.1219  0.3417
23945W        W44225   5.082  15.528  16.583  0.0467 -0.2216  0.4686
23946W        W44226  14.437  10.308   2.436  0.1292  0.2536  0.2474
23947W        W44227   3.600  13.592   0.960  0.3340 -0.2216 -0.1573
23948W        W44228  11.120   9.591  13.815 -0.3036 -0.1361 -0.1557
23949W        W44229   6.303  11.346  14.109 -0.3137 -0.3407 -0.3109
23950W        W44230  15.963   9.689  14.107 -0.1161  0.3284  0.2220
23951W        W44231   6.885   6.504   3.970  0.3823  0.0832 -0.1654
23952W        W44232   8.297   7.526   4.670 -0.0367  0.0115  0.0832
23953W        W44233  15.497   7.732  16.290  0.0612 -0.4352 -0.0770
23954W        W44234  14.392  17.186   0.070 -0.0958  0.1635  0.1352
23955W        W44235   1.537   8.579  15.156 -0.0467  0.1521 -0.1412
23956W        W44236  14.464  16.724  12.907  0.1018 -0.0578 -0.1315
23957W        W44237  10.283  11.532   1.111  0.0306  0.2604 -0.5705
23958W        W44238   1.571   5.783  14.133 -0.1479  0.1566 -0.1788
23959W        W44239   6.905  16.007  12.925  0.0312 -0.1887 -0.0316
23960W        W44240   5.007   5.449  14.380 -0.3674 -0.2726  0.0900
23961W        W44241   5.562  14.790   0.921 -0.0735  0.0074 -0.2407
23962W        W44242   5.220   4.844  13.532 -0.0861 -0.1221 -0.0346
23963W        W44243   0.066   3.465   3.756 -0.1726 -0.0505  0.3592
23964W        W44244  10.484  13.660  16.663 -0.2073 -0.0998 -0.1706
23965W        W44245   9.798   3.654  14.015  0.0541 -0.1545  0.3207
23966W        W44246  17.221   8.059   0.203 -0.0185 -0.1428  0.3630
23967W        W44247   6.964   6.598   2.141  0.2413  0.1979 -0.1937
23968W        W44248  15.621   9.091   4.538 -0.1082  0.0324 -0.2261
23969W        W44249  17.243  17.316  14.658  0.1127  0.0141  0.1414
23970W        W44250   9.870  10.205   2.680  0.1370 -0.2011  0.1785
23971W        W44251  14.149  12.200  13.482  0.0216 -0.1352  0.1839
23972W        W44252   3.283   5.065   3.299  0.0863  0.0111  0.0080
23973W        W44253   4.912   3.600  16.485  0.2960 -0.0364  0.0302
23974W        W44254   6.471   3.208  12.707  0.1848 -0.2351 -0.1239
23975W        W44255   5.040   8.571   2.621  0.1549 -0.2255  0.1020
23976W        W44256   5.197   9.079   3.057 -0.1907 -0.3104 -0.0379
23977W        W44257  12.069  10.470   3.635  0.1200 -0.0518  0.0792
23978W        W44258   1.048   0.427   0.671 -0.0639 -0.0970  0.0794
23979W        W44259   4.759   1.954  15.693 -0.4045  0.3080  0.4577
23980W        W44260   7.393  16.688  14.022 -0.0368  0.1846  0.1782
23981W        W44261  10.537  14.548  13.672 -0.1262  0.0294  0.4141
23982W        W44262  17.666  16.373   1.538  0.1648 -0.2727 -0.0571
23983W        W44263  14.263   2.351  16.826  0.0162  0.1601 -0.0262
23984W        W44264   6.777   5.084  14.678 -0.0210  0.0533 -0.0913
23985W        W44265   0.124  16.509  12.792  0.0486  0.0459 -0.0899
23986W        W44266  10.518  10.827   3.307 -0.0301 -0.1089 -0.3602
23987W        W44267   4.909  12.160   2.399 -0.1501 -0.0940  0.2440
23988W        W44268   0.436  15.946   0.869  0.0759  0.1372 -0.1149
23989W        W44269  12.289   4.783   3.425  0.0008 -0.0618  0.1096
23990W        W44270  15.927   9.192  12.479 -0.2418 -0.1165 -0.1378
23991W        W44271   4.745   4.301  14.603  0.0381 -0.2356  0.2168
23992W        W44272   0.616  11.187   1.397 -0.0495  0.0488 -0.1446
23993W        W44273  15.750  15.119  13.206  0.0513 -0.1546  0.0587
23994W        W44274  10.699  15.248   4.426 -0.0967 -0.0825 -0.0740
23995W        W44275   3.431   2.992  12.170 -0.1141 -0.0357  0.3401
23996W        W44276  15.509   7.765   0.675  0.1515  0.1152 -0.1170
23997W        W44277   2.931   6.080  13.627  0.1453 -0.3185 -0.1965
23998W        W44278  11.408   6.685  14.121  0.0403 -0.0462  0.0148
23999W        W44279   1.430   1.608   2.219 -0.0189  0.2118 -0.3817
24000W        W44280  11.686  12.257   2.823  0.0259 -0.2213  0.2413
24001W        W44281  16.977   8.601   1.803 -0.0183  0.0882 -0.2224
24002W        W44282  14.621  16.985  13.354 -0.1095 -0.3292  0.2711
24003W        W44283  14.772   1.578   3.367 -0.0760  0.0344  0.0763
24004W        W44284  16.137  14.559   0.174  0.0126  0.0175 -0.3063
24005W        W44285  16.911  10.538  13.502 -0.1646 -0.3090  0.1399
24006W        W44286  10.510   5.356   2.103 -0.0057  0.1479  0.0810
24007W        W44287   0.399   1.037  12.739  0.1068  0.1125 -0.1453
24008W        W44288   8.497   5.768   3.352  0.0745 -0.2036  0.0775
24009W        W44289   6.651  12.960  13.022 -0.0173 -0.0914 -0.0814
24010W        W44290  12.366  12.022  13.523  0.0810 -0.0269  0.0855
24011W        W44291  13.996  11.772   2.775  0.1805  0.1424 -0.0194
24012W        W44292   1.984  10.718  12.157  0.1978  0.3094  0.0212
24013W        W44293  16.642   3.887   1.251  0.2382  0.0268 -0.0784
24014W        W44294  16.196  17.521   0.456  0.0787 -0.0503  0.0475
24015W        W44295   1.178  11.597  12.953  0.1139  0.0614 -0.0448
24016W        W44296  14.422   8.575  13.197 -0.2487  0.1295  0.2471
24017W        W44297   6.449   1.719  13.078  0.0335  0.0492 -0.2167
24018W        W44298  14.983  14.729  16.450  0.3866  0.2463  0.0513
24019W        W44299  14.341   8.525   4.459  0.0143  0.1665 -0.0961
24020W        W44300   3.942   7.823  12.646  0.3409 -0.2124  0.0241
24021W        W44301   6.234   3.851   1.168  0.0725  0.0120  0.0766
24022W        W44302   5.619   0.822  12.894  0.2560  0.0877  0.2242
24023W        W44303  17.598   2.629  15.844 -0.1133  0.1707 -0.3773
24024W        W44304   0.754   5.227  13.530 -0.0229 -0.0806 -0.2119
24025W        W44305   1.628   0.789  16.749  0.1262 -0.1182  0.1527
24026W        W44306  13.134   1.670   5.520 -0.0942 -0.1469 -0.3030
24027W        W44307   2.170  15.467   4.897 -0.0217  0.2476 -0.1186
24028W        W44308  11.681   3.243  12.886  0.2595  0.0254  0.2229
24029W        W44309  16.005  14.823  15.559 -0.2778  0.3168 -0.1654
24030W        W44310   6.879  10.365   3.704 -0.3407  0.0324  0.1263
24031W        W44311   7.608   4.172  11.888 -0.0590 -0.0900  0.3027
24032W        W44312   7.658   1.211   4.099 -0.2863 -0.2338  0.0534
24033W        W44313   6.665  13.334  16.748  0.0990 -0.2408  0.0793
24034W        W44314   9.839   2.194   0.468  0.0269 -0.1902  0.0213
24035W        W44315  14.114   7.060   2.033 -0.0927  0.2527  0.1742
24036W        W44316  15.314  12.830  13.259  0.0968  0.2073  0.1006
24037W        W44317  16.391   6.986   4.206  0.1687  0.1151  0.3301
24038W        W44318   0.362   4.264   3.280 -0.1333 -0.1102 -0.0362
24039W        W44319  12.627   4.431  16.152 -0.0931  0.1101 -0.0039
24040W        W44320  16.966   7.470  12.988  0.2571 -0.2943  0.0910
24041W        W44321   6.390  11.415   3.626 -0.1335 -0.1523  0.0907
24042W        W44322  17.491  14.163   1.323  0.2469 -0.1894 -0.3124
24043W        W44323   4.943  14.876  13.644  0.0626 -0.1831  0.2681
24044W        W44324   3.114  17.687  15.775 -0.0299  0.0266 -0.2421
24045W        W44325   0.458   9.692   4.455  0.1835 -0.0199 -0.5248
24046W        W44326  11.240  14.885   0.292 -0.3759  0.1325  0.0586
24047W        W44327   3.989   9.290   2.360 -0.0808 -0.1792  0.3202
24048W        W44328   0.430  14.454  14.374 -0.3222 -0.0074 -0.2611
24049W        W44329  13.416  13.293   0.686  0.0311  0.0269  0.2245
24050W        W44330   2.461   8.146   3.600 -0.2412 -0.0288  0.0037
24051W        W44331  13.064   0.497   3.157  0.2630  0.1377  0.1194
24052W        W44332   1.887   7.446   2.085  0.0913 -0.0877 -0.0440
24053W        W44333  14.722   3.478   3.789 -0.0778 -0.0092 -0.0759
24054W        W44334   7.527   0.181  13.222 -0.1497  0.0327 -0.0074
24055W        W44335   4.016  12.213  12.248  0.3608  0.2648  0.2049
24056W        W44336   6.729   5.278   1.967 -0.0604 -0.1490 -0.1808
24057W        W44337   4.315   2.929   0.691 -0.0088  0.0467  0.0484
24058W        W44338  12.017  11.133   1.479  0.3338  0.1420 -0.1130
24059W        W44339   4.322  12.602  12.070 -0.0657 -0.0177 -0.0872
24060W        W44340  15.649   5.284   1.911 -0.1731  0.1378  0.1820
24061W        W44341   4.094   1.448  13.959  0.0563 -0.0471  0.2054
24062W        W44342   1.362  16.328  12.166 -0.0577  0.0684 -0.0541
24063W        W44343   8.483  16.107  14.663  0.2364  0.1115 -0.1884
24064W        W44344   5.442  12.015   2.593  0.2433 -0.0537  0.0277
24065W        W44345   4.875   5.565   2.917 -0.0559 -0.3146 -0.0540
24066W        W44346   5.359  15.879  15.608 -0.1519  0.1342 -0.1267
24067W        W44347   3.135  12.097   4.471  0.0496 -0.1118 -0.3742
24068W        W44348   3.163   5.915  14.957  0.0391 -0.0622  0.2466
24069W        W44349  14.948   8.959   4.241 -0.0803  0.0341 -0.2100
24070W        W44350   2.490   0.620  14.376  0.1852  0.0131 -0.0861
24071W        W44351  17.089   0.967  12.667 -0.2516 -0.2475 -0.0611
24072W        W44352  15.307   2.844   2.504 -0.0558  0.0944  0.0724
24073W        W44353  12.245  16.596   3.757 -0.0414  0.2730 -0.0423
24074W        W44354  10.085   1.955   5.007 -0.1851 -0.0053  0.0028
24075W        W44355   8.607   1.616  14.643 -0.2664 -0.1644 -0.2060
24076W        W44356   8.546   0.928  13.353 -0.1739  0.1093 -0.2385
24077W        W44357  12.778  12.076  13.294 -0.2050 -0.2299  0.0680
24078W        W44358  14.194   4.085   2.099 -0.0228 -0.0038 -0.0154
24079W        W44359   4.654  12.826  13.636  0.1793 -0.0193 -0.2873
24080W        W44360  12.472  15.396  16.047  0.0111  0.1165  0.3370
24081W        W44361   4.308  11.244   3.025 -0.1812  0.2502 -0.0295
24082W        W44362  17.105   3.883   4.078 -0.1444 -0.3426  0.3014
24083W        W44363  16.751   8.657  13.329  0.0253  0.0394  0.0644
24084W        W44364   3.930   5.400   1.619  0.4375  0.1443 -0.0931
24085W        W44365  10.317  14.924   3.673 -0.0507 -0.2365  0.0175
24086W        W44366  10.867  16.029  15.832 -0.0128 -0.1160 -0.1219
24087W        W44367   4.715  13.683   4.026 -0.2978 -0.1122  0.1627
24088W        W44368  10.236  16.756   0.780 -0.1446 -0.2661 -0.3670
24089W        W44369  15.679  13.891   1.882  0.0577 -0.0633 -0.2543
24090W        W44370  10.693  16.673  16.807  0.1265  0.2124  0.1638
24091W        W44371  13.639   3.357   2.473  0.0140 -0.0560  0.3088
24092W        W44372   7.421   7.627  13.526 -0.0585  0.2570 -0.0059
24093W        W44373  10.233   6.407   0.335  0.2911 -0.0900 -0.0596
24094W        W44374   5.946   6.088  15.789  0.1470 -0.1370 -0.3174
24095W        W44375   8.593  12.885  14.421 -0.0725 -0.0055 -0.0180
24096W        W44376   6.987   6.160  15.893 -0.3324  0.3544 -0.2702
24097W        W44377  11.615   6.697   4.116 -0.0724  0.0572  0.0470
24098W        W44378   9.868   9.817  12.753 -0.1914 -0.3043 -0.0999
24099W        W44379   1.197  16.232   1.258 -0.2676  0.2930 -0.0690
24100W        W44380  12.973   1.272  14.220  0.0066 -0.1990 -0.2074
24101W        W44381   5.870   9.584  12.385 -0.1568 -0.1560 -0.2709
24102W        W44382  17.742   3.533   3.307  0.2253  0.2008  0.0060
24103W        W44383   4.777   1.935  15.126  0.1134 -0.5811  0.1822
24104W        W44384  17.687   8.754  15.771  0.0883  0.0277 -0.1062
24105W        W44385  16.542  16.312  16.403 -0.2609  0.1398 -0.1563
24106W        W44386   1.344  11.035   5.857  0.0803 -0.2592 -0.0342
24107W        W44387  13.695   0.603  14.524  0.3286  0.2150  0.0575
24108W        W44388  11.667  15.642  12.342 -0.4044 -0.1575 -0.0793
24109W        W44389   9.747   3.586   3.864 -0.1964 -0.1307 -0.0958
24110W        W44390  13.187  17.306  12.314 -0.0252 -0.0588  0.1993
24111W        W44391   7.950   5.530  14.655  0.0847 -0.0761 -0.2333
24112W        W44392  16.454   3.336  15.917 -0.1812  0.2955 -0.2155
24113W        W44393  15.246   4.554  16.335  0.2682  0.1298  0.0859
24114W        W44394  10.725   5.040  14.724  0.0572 -0.2406  0.2068
24115W        W44395  14.734   1.436   1.314  0.0033 -0.1214 -0.1571
24116W        W44396   7.887   0.124   2.434  0.2628  0.1543 -0.2640
24117W        W44397   9.193  12.121  15.931  0.3429 -0.1068 -0.1088
24118W        W44398  12.240  11.481   0.624  0.3092  0.1044 -0.1852
24119W        W44399  15.554  13.470  16.588 -0.2320  0.2114  0.3475
24120W        W44400   8.620   1.287  16.366  0.1971  0.0693 -0.1571
24121W        W44401  15.867  14.090  16.252 -0.1676  0.0372 -0.3182
24122W        W44402   0.275  11.618   1.981 -0.1846  0.2153 -0.2255
24123W        W44403  14.555  13.770   0.027  0.0794 -0.1093  0.0938
24124W        W44404  13.250   6.597   2.190 -0.1771 -0.2856 -0.2820
24125W        W44405  14.581  10.891   5.669 -0.0791  0.3194  0.2737
24126W        W44406   3.915   1.808  13.049 -0.0781 -0.0921  0.0824
24127W        W44407  15.634   9.491  15.176 -0.0724 -0.0700  0.1278
24128W        W44408  15.317  12.355   5.419 -0.2199 -0.1449  0.0594
24129W        W44409   6.284   5.832   3.594 -0.0694 -0.0376 -0.0203
24130W        W44410  12.032  16.774  16.014  0.0845  0.2367  0.1909
24131W        W44411  14.020   8.477  13.582 -0.2458 -0.1509  0.0768
24132W        W44412   2.017   9.428   1.268  0.0720 -0.1642  0.3140
24133W        W44413  15.423   3.593   0.668 -0.0555  0.0807 -0.2123
24134W        W44414   7.836   0.188   0.874  0.0615 -0.0114  0.1595
24135W        W44415   0.909   5.429   3.248  0.1044 -0.1567 -0.3628
24136W        W44416  11.965  14.329  13.680  0.3889 -0.1364  0.1458
24137W        W44417  10.823   9.981   0.227  0.0759 -0.0747 -0.3288
24138W        W44418  11.613  13.199   0.484 -0.0087  0.2604 -0.6633
24139W        W44419   6.570  14.661   3.934 -0.1555  0.0595  0.0263
24140W        W44420   8.844   3.880   1.983 -0.0291 -0.3237 -0.0819
24141W        W44421   4.058   0.170  14.795 -0.2994 -0.1865  0.0179
24142W        W44422  14.092   2.539  13.628 -0.1720  0.5227 -0.0308
24143W        W44423  15.716  17.688   2.504  0.1668 -0.2781  0.1511
24144W        W44424  13.088   9.425  14.823 -0.4636 -0.0639  0.3177
24145W        W44425  16.223   9.325  14.354 -0.1202  0.2277 -0.1182
24146W        W44426   2.376   2.849  16.571  0.1365 -0.3641  0.2836
24147W        W44427  14.247  16.018  13.144 -0.1479  0.0033 -0.0273
24148W        W44428   5.879   7.395  13.282 -0.0111 -0.3285 -0.0744
24149W        W44429  17.114  13.429  13.608 -0.0255  0.2069 -0.3781
24150W        W44430   8.118  17.465  15.048 -0.1425 -0.2916  0.0340
24151W        W44431   4.498   2.498   4.602 -0.2718  0.2261 -0.3051
24152W        W44432   8.829  16.120   1.197  0.0480 -0.0820  0.1073
24153W        W44433  14.898  15.979  14.354  0.2232 -0.2334 -0.0006
24154W        W44434  11.075   2.203   0.537  0.0598  0.0005 -0.0033
24155W        W44435  14.475   3.715   0.620  0.2636  0.0216  0.2032
24156W        W44436  10.388   1.503  14.284  0.0727  0.2311 -0.0245
24157W        W44437   0.304  15.800  13.437 -0.0226  0.1104 -0.5557
24158W        W44438   7.945  13.876  13.956 -0.2208 -0.0712 -0.4130
24159W        W44439   4.399  15.080  13.135 -0.0256 -0.1676  0.1217
24160W        W44440  14.090  17.346   1.913 -0.0386  0.1856  0.4259
24161W        W44441   4.694  10.998  15.678  0.1148 -0.2393 -0.1904
24162W        W44442  15.920  17.620   3.960  0.2436 -0.2132 -0.1131
24163W        W44443  11.404   2.911   0.126 -0.1783  0.0275 -0.2109
24164W        W44444  14.729  13.394   3.399 -0.0916 -0.0772  0.0135
24165W        W44445  10.058  10.663  12.873 -0.1025  0.1936  0.0943
24166W        W44446   1.532   1.084  12.248 -0.1720  0.2012 -0.0628
24167W        W44447   5.973  14.764   0.622 -0.1166  0.0784 -0.1955
24168W        W44448  11.409   6.205   2.094  0.2748  0.0961  0.1931
24169W        W44449   3.632   6.017  15.854  0.1082  0.1575 -0.3327
24170W        W44450  11.970   6.839   3.728  0.2588 -0.1872  0.2483
24171W        W44451  13.403  14.763   0.802  0.2077 -0.1175  0.0319
24172W        W44452   2.277  15.652   0.070  0.1365 -0.0764 -0.0088
24173W        W44453   7.788   5.088  12.276  0.1143  0.0065 -0.1265
24174W        W44454  10.209  11.963  13.670  0.2072 -0.0164 -0.1259
24175W        W44455  17.665   5.738  12.772 -0.0264  0.0148  0.2852
24176W        W44456   1.025   7.510   2.036  0.1967  0.1639 -0.1185
24177W        W44457   0.877   5.031  12.653 -0.1140  0.0448 -0.0679
24178W        W44458  14.084   9.606   3.181  0.0904 -0.0761 -0.2076
24179W        W44459   8.372  11.401   0.529 -0.2689 -0.4331 -0.0612
24180W        W44460   3.998  17.049  15.660  0.1263  0.2252  0.0259
24181W        W44461   4.608   2.613  12.182  0.1470  0.0639 -0.2780
24182W        W44462   1.114   2.944   3.097  0.0735  0.0839  0.0478
24183W        W44463  12.416   7.128  13.878  0.1653  0.1383 -0.1004
24184W        W44464  15.582  10.574   1.228 -0.0400 -0.2428  0.0075
24185W        W44465   2.361   8.733  12.210  0.0807 -0.0728 -0.3508
24186W        W44466   5.999   8.176   4.611 -0.2665  0.0391  0.2755
24187W        W44467   9.786   0.219  15.003  0.1976 -0.2025  0.0501
24188W        W44468   7.239   0.922   4.436  0.0249 -0.0061 -0.1520
24189W        W44469   2.567  11.559   2.708 -0.0406 -0.0856  0.1779
24190W        W44470   7.468   9.115   2.709 -0.0435  0.1040 -0.1319
24191W        W44471  17.525  11.159   2.687  0.0406  0.2177  0.0087
24192W        W44472  10.932  15.101  16.593 -0.2321 -0.0022 -0.2283
24193W        W44473   9.304  10.600  13.250  0.0579  0.1185  0.0013
24194W        W44474  14.848  10.066  12.788  0.2504  0.0411  0.0572
24195W        W44475   3.309   1.204   2.090  0.0977  0.0737 -0.0349
24196W        W44476   0.958  17.525   4.311 -0.4774  0.1186  0.0557
24197W        W44477  17.047  16.418  15.192 -0.0930  0.0542  0.1318
24198W        W44478   8.424   0.565  14.951 -0.1517 -0.3515  0.2039
24199W        W44479  15.145   5.173  14.749  0.0317  0.0387 -0.0135
24200W        W44480  15.434   3.390  13.231  0.2796  0.2704 -0.1454
24201W        W44481   0.868   9.640  16.324  0.2859  0.0710 -0.1815
24202W        W44482   5.496  13.128  16.340 -0.1089  0.0189 -0.0166
24203W        W44483   3.275   7.471  12.265 -0.2613  0.2467 -0.3385
24204W        W44484   4.931   0.791  13.958  0.0132  0.2836  0.1504
24205W        W44485   4.049   2.257  13.365  0.6563  0.1128  0.0852
24206W        W44486  10.333   1.969   2.072  0.0641 -0.0497 -0.0709
24207W        W44487  12.117  14.803   0.036  0.2247 -0.0141  0.0084
24208W        W44488  17.528   1.578   3.835 -0.3547 -0.0342  0.3980
24209W        W44489   4.288  17.193   1.973  0.0872  0.0230  0.2051
24210W        W44490  14.261  16.601  12.403 -0.0439 -0.1666 -0.2108
24211W        W44491   8.879   0.196  14.068  0.1132 -0.0407 -0.0083
24212W        W44492  15.795  11.920   2.344 -0.0075  0.1954 -0.1724
24213W        W44493   0.841  14.355   2.080  0.1698 -0.1173  0.2344
24214W        W44494  13.307   5.049  15.253  0.1932 -0.1819 -0.0234
24215W        W44495   0.684  13.568  15.446 -0.0260 -0.2267  0.1724
24216W        W44496  15.837   3.753   2.193  0.2568 -0.0655  0.1102
24217W        W44497   1.612   4.086  16.696 -0.0888 -0.0546 -0.1612
24218W        W44498  10.164   2.962   1.709 -0.0311  0.2080  0.0443
24219W        W44499   8.069   4.065   3.730  0.1242  0.0428  0.1799
24220W        W44500  16.291   1.873  16.565  0.0673 -0.2653  0.0068
24221W        W44501  17.464  13.763  14.407  0.0908 -0.2615 -0.2001
24222W        W44502  12.775  11.605   3.917  0.1450  0.0845 -0.0470
24223W        W44503   3.523   1.517  13.238  0.1726 -0.0340  0.0976
24224W        W44504   2.142   3.585  12.076 -0.1515 -0.0174 -0.0825
24225W        W44505  12.140   1.190  14.645  0.1650 -0.0538  0.0097
24226W        W44506   0.304   4.430   0.918 -0.0659 -0.2070 -0.2043
24227W        W44507   5.260  11.070  13.080  0.2864 -0.2741 -0.0965
24228W        W44508  13.080  12.993  13.534 -0.2685  0.1299 -0.0499
24229W        W44509   7.462  15.368   0.815 -0.0855 -0.2263  0.1481
24230W        W44510  12.911   3.814  13.983  0.0670  0.1516 -0.0467
24231W        W44511   2.151   1.453   0.656  0.3711 -0.1357  0.2384
24232W        W44512  12.766   7.013  12.751  0.1098  0.1038 -0.1016
24233W        W44513   7.155   7.048   0.999 -0.0299  0.1465  0.0283
24234W        W44514  11.882  10.622  13.609 -0.0214  0.2616  0.0312
24235W        W44515  17.132  10.730   3.870  0.4216 -0.1273  0.0688
24236W        W44516  16.161   9.772   2.981  0.0129 -0.1923 -0.4061
24237W        W44517   2.521   6.752   4.042  0.0894  0.2850  0.1994
24238W        W44518   5.004   6.450   3.448  0.1425 -0.0430  0.0153
24239W        W44519  15.787  10.208   2.161  0.0202 -0.1385 -0.1949
24240W        W44520   2.079   1.852   1.139  0.0429 -0.0410  0.3616
24241W        W44521  11.804  17.726   0.226  0.2381 -0.0901  0.0171
24242W        W44522   2.708   9.136  15.280  0.2825 -0.1322 -0.0363
24243W        W44523  15.662  15.719   0.761 -0.0016 -0.1837  0.1347
24244W        W44524  12.207  11.858   3.586 -0.2353  0.2248  0.0608
24245W        W44525  17.706   6.342   0.135 -0.1248 -0.1186  0.2202
24246W        W44526  12.938   6.337  15.572  0.3041  0.2964 -0.1945
24247W        W44527   2.550   9.753  16.199 -0.1090  0.1431 -0.0670
24248W        W44528   4.122  17.661   1.137 -0.2055  0.2848  0.1309
24249W        W44529   3.933   4.656   4.446  0.0203 -0.0490 -0.0443
24250W        W44530   8.747  16.357  16.377 -0.1601 -0.3024  0.1384
24251W        W44531   7.381   3.792  16.077  0.0514 -0.1397 -0.0641
24252W        W44532   6.580   5.805  16.694  0.2282  0.0176  0.0245
24253W        W44533   9.766   7.680  15.143 -0.0151 -0.2838 -0.0490
24254W        W44534   4.932  12.212  16.687  0.0561  0.2347 -0.1471
24255W        W44535   0.780  16.499   4.896 -0.4199 -0.0960 -0.2067
24256W        W44536  10.382   8.753   4.563 -0.0372 -0.2426 -0.0200
24257W        W44537   8.021   5.352  15.935 -0.0308 -0.0518 -0.4664
24258W        W44538  11.911  12.266   3.764  0.2728 -0.1732 -0.1629
24259W        W44539   9.806   2.389  13.476  0.0146  0.1878 -0.2771
24260W        W44540  12.022  10.302  15.823 -0.0590 -0.0660  0.2415
24261W        W44541  13.787  12.865   3.560 -0.0401 -0.0731 -0.1110
24262W        W44542  15.078  12.416  12.802  0.2488 -0.0778 -0.1337
24263W        W44543   3.394   5.486  15.141  0.0393  0.3413  0.0237
24264W        W44544  12.599  16.107   2.217 -0.1171  0.0901  0.0464
24265W        W44545  12.554  10.555   3.738 -0.0016 -0.0427  0.2705
24266W        W44546  10.463   2.481  15.951  0.0061  0.1539 -0.1061
24267W        W44547   6.658  15.698  16.662 -0.2367  0.0661  0.0521
24268W        W44548   3.470  15.761  13.626 -0.0330  0.0197  0.0801
24269W        W44549  17.030  16.898   1.622  0.1076  0.2257 -0.2297
24270W        W44550   4.752   9.932  12.441 -0.3369 -0.0721  0.0083
24271W        W44551  10.147  11.038  14.663 -0.1543 -0.1680  0.2892
24272W        W44552   3.349   5.126  12.003  0.0696 -0.4743  0.0545
24273W        W44553   1.883   7.640  15.761  0.1634 -0.2771 -0.0494
24274W        W44554   8.589  13.383  15.670  0.0446 -0.1653  0.0525
24275W        W44555   0.102  12.279  12.636  0.1957  0.0803  0.0721
24276W        W44556  10.706   5.087   3.466  0.0356  0.1444  0.1752
24277W        W44557  11.396  15.961  15.874 -0.0798 -0.0150  0.1008
24278W        W44558   7.652  12.136   2.699  0.3036  0.0057 -0.2280
24279W        W44559   4.241   1.116   4.186  0.3021  0.0536  0.0400
24280W        W44560  16.440  15.043  15.459 -0.1132  0.0130  0.1952
24281W        W44561  16.686  15.376   6.066  0.1123  0.0243 -0.0528
24282W        W44562  11.904  10.160   4.841 -0.2480  0.2925  0.1192
24283W        W44563   3.738  11.402  15.288  0.1089  0.1372 -0.1069
24284W        W44564  12.263   0.028  15.128  0.0600  0.1254  0.1243
24285W        W44565   0.432   4.161   0.524  0.0879 -0.0425 -0.3698
24286W        W44566  12.700  11.648   1.805 -0.0438  0.1021 -0.0452
24287W        W44567  15.180  14.674  15.581  0.0702 -0.0091 -0.2392
24288W        W44568   5.536   4.901   4.040  0.2031  0.1784  0.1248
24289W        W44569   5.894  14.034   2.232  0.0992  0.1028  0.0334
24290W        W44570   0.647  11.578  14.770  0.0256  0.1191 -0.0412
24291W        W44571  14.675   6.292   4.240 -0.1778  0.1111  0.1910
24292W        W44572   1.642  14.033  13.220 -0.1419 -0.1740 -0.2243
24293W        W44573   0.296  10.486   4.003 -0.0145 -0.0202 -0.2063
24294W        W44574   1.552   5.478   1.771 -0.0454  0.0470 -0.1319
24295W        W44575   0.258   7.954   0.552 -0.1813 -0.1253 -0.1866
24296W        W44576   4.018  13.478   2.637  0.0366 -0.5299  0.0398
24297W        W44577  17.480  16.610  15.248 -0.0411  0.1523  0.0146
24298W        W44578   1.050   8.664  12.465 -0.1129  0.0583 -0.0921
24299W        W44579  17.078  15.102  13.017  0.3094 -0.1325 -0.0918
24300W        W44580   5.777   8.452  14.736 -0.0221 -0.1908  0.1080
24301W        W44581   0.703  12.743   4.369  0.0703 -0.0210  0.4103
24302W        W44582   2.174   6.105   2.883  0.0486 -0.1584 -0.0209
24303W        W44583   0.597   4.762   4.432  0.1029 -0.0742 -0.1152
24304W        W44584  13.301   8.419  14.037 -0.1749 -0.0591  0.1768
24305W        W44585   4.345  12.196   2.380  0.1538 -0.0330  0.0237
24306W        W44586  12.567  14.648  15.360  0.2358  0.0093  0.0189
24307W        W44587   2.056   1.522  16.845  0.0956  0.0386  0.3050
24308W        W44588   7.176  10.840  14.264 -0.3715 -0.0653 -0.1684
24309W        W44589   0.952  12.804  12.724 -0.0473 -0.2172  0.1650
24310W        W44590  15.756  11.983   5.410 -0.1698  0.2373  0.3121
24311W        W44591   8.663   5.335   4.202 -0.0323  0.1270  0.1975
24312W        W44592   9.694  14.856  14.262  0.0174 -0.2462  0.2063
24313W        W44593   3.205  10.163   1.349  0.0062  0.0556  0.3817
24314W        W44594  15.689   6.497   2.906  0.0846 -0.1641  0.3635
24315W        W44595   5.592   4.022  16.030  0.1689  0.0794  0.1158
24316W        W44596  15.863  14.236   3.098 -0.2749  0.1045 -0.2512
24317W        W44597   8.216  10.340  13.707 -0.4318 -0.1365 -0.1053
24318W        W44598  12.958   1.596  15.256 -0.0349 -0.2789 -0.2272
24319W        W44599   6.260   4.676   3.047 -0.0539 -0.1988  0.0832
24320W        W44600  10.052  16.170   1.123  0.0438  0.2133  0.3493
24321W        W44601   9.559  14.761   1.081 -0.1561  0.2182  0.3273
24322W        W44602   3.177  17.228   1.272  0.2199 -0.1202 -0.1814
24323W        W44603   7.605  12.832  12.572  0.0335  0.0449 -0.2207
24324W        W44604   7.666  14.122   4.527 -0.1226  0.0229 -0.0007
24325W        W44605   4.645  17.083  16.821 -0.0541 -0.0658  0.1180
24326W        W44606   9.366   1.059   4.064 -0.0661  0.0868 -0.3876
24327W        W44607   1.017   1.721   3.584 -0.1403 -0.0222 -0.1371
24328W        W44608  15.638  10.621   0.182 -0.4699  0.0341  0.0194
24329W        W44609   4.411  15.021  12.251  0.1632 -0.1763 -0.2839
24330W        W44610   7.669   0.955   3.575 -0.1228  0.0657  0.2402
24331W        W44611   2.311   6.845  14.972  0.0549 -0.3497  0.1884
24332W        W44612  13.555   6.352  12.080 -0.0914  0.2360  0.1020
24333W        W44613   3.700   0.144   2.266 -0.1582 -0.0704 -0.1623
24334W        W44614   6.808  10.566  14.597 -0.0483  0.1794 -0.0304
24335W        W44615  16.312   0.853   0.311  0.0053 -0.2252 -0.0409
24336W        W44616   1.198  13.971   2.145 -0.0320 -0.7158 -0.0099
24337W        W44617   9.568  12.035   3.306 -0.1698  0.0938  0.0922
24338W        W44618   8.394   9.244   4.715 -0.2218 -0.0769 -0.2121
24339W        W44619  12.170  14.055   5.237 -0.3476  0.1557  0.1011
24340W        W44620   6.974   9.960   3.267  0.0322 -0.0834  0.2170
24341W        W44621   2.004  10.897   3.054 -0.0589  0.1009  0.0314
24342W        W44622   9.725   7.985   3.413 -0.1803  0.1510 -0.2385
24343W        W44623   2.135   9.804  14.446 -0.2649 -0.0945 -0.1214
24344W        W44624   2.417   4.663  13.874 -0.2983 -0.0588 -0.1522
24345W        W44625  12.154   5.753  15.234  0.2190 -0.1513 -0.0548
24346W        W44626   6.271  15.969  16.782  0.1593 -0.0110 -0.3719
24347W        W44627   7.450   1.126   0.890 -0.1502 -0.1887  0.1653
24348W        W44628  10.612  13.004  15.262 -0.0157  0.1166 -0.1955
24349W        W44629  13.720   4.688  16.228  0.1867 -0.0833 -0.2547
24350W        W44630  11.460   9.521  14.534 -0.1830 -0.1388 -0.0017
24351W        W44631  17.479  13.481   1.908  0.1155 -0.0996 -0.0392
24352W        W44632  13.910  13.833  13.396  0.1428 -0.0066 -0.0667
24353W        W44633   9.118   5.301   4.381  0.0761  0.1175 -0.0081
24354W        W44634   2.304   8.137  16.367 -0.1327  0.1152  0.1687
24355W        W44635   7.896   9.472  11.975 -0.2587 -0.0879 -0.0501
24356W        W44636   5.292  17.004  12.120 -0.1191  0.1226  0.0402
24357W        W44637   4.341  14.834   2.770  0.2407 -0.1784 -0.3279
24358W        W44638   9.062   6.260  13.543  0.1478 -0.2827  0.0300
24359W        W44639  15.150  11.703   2.981  0.0744  0.0063 -0.0720
24360W        W44640   7.891   4.637   0.392  0.0870 -0.0361  0.1864
24361W        W44641   4.233   8.537  11.489  0.0668  0.3170  0.0119
24362W        W44642  15.723  14.314  12.386  0.0082 -0.0056  0.0243
24363W        W44643   9.040   4.754   4.301  0.1863 -0.0857  0.0336
24364W        W44644   3.353  10.607   1.655 -0.2374 -0.0658 -0.0644
24365W        W44645  11.164   9.918   2.801 -0.2638  0.0327  0.2415
24366W        W44646  13.986   2.904   0.339  0.2252 -0.0735 -0.2561
24367W        W44647  13.937  17.250   1.040  0.0223  0.0585  0.0636
24368W        W44648  10.990  10.365   1.168 -0.0324 -0.3317  0.0718
24369W        W44649   4.720   5.227   1.881  0.1384  0.0190 -0.1011
24370W        W44650  13.008   2.673   5.107  0.0852 -0.2333 -0.0347
24371W        W44651  15.470   0.235  16.278 -0.1533 -0.0679 -0.0093
24372W        W44652   9.237   7.572   0.901  0.1168  0.1803  0.0076
24373W        W44653  15.586   4.694  16.663  0.1925 -0.1366  0.0627
24374W        W44654   9.484  12.094  16.414 -0.1493  0.0147 -0.0328
24375W        W44655   1.550   1.485   2.826 -0.2423  0.2802 -0.1148
24376W        W44656   0.678   3.070   1.456 -0.2016 -0.0803 -0.0864
24377W        W44657   2.925   4.859  13.775 -0.0240 -0.0246  0.0744
24378W        W44658  11.629   3.172   3.451 -0.0679 -0.0985 -0.1038
24379W        W44659   7.358   1.592   3.814  0.0967 -0.1155  0.0729
24380W        W44660  12.148  16.405   0.102  0.1216  0.2584 -0.0663
24381W        W44661   7.184   5.588  15.757  0.0713  0.0325 -0.1365
24382W        W44662   1.315  13.599   3.418 -0.0230 -0.3219 -0.0677
24383W        W44663  11.079   1.062   0.167 -0.1472  0.0260  0.0697
24384W        W44664   5.715   2.393  15.506 -0.1410  0.1083 -0.0036
24385W        W44665  17.153   6.436  16.338 -0.0816  0.3787 -0.0710
24386W        W44666  15.775   4.715  14.762 -0.0700  0.0919 -0.2251
24387W        W44667   3.509   0.770   2.111 -0.0259  0.1272  0.1262
24388W        W44668   8.445  10.361  16.419  0.0250 -0.1335 -0.0400
24389W        W44669  16.479   5.192  15.795  0.1151  0.0771 -0.2124
24390W        W44670   3.651  12.603  13.617 -0.1329 -0.0313 -0.1000
24391W        W44671  16.212   9.981   4.767  0.0046  0.0809 -0.0087
24392W        W44672   5.787   6.245   2.359  0.0258  0.0373 -0.0179
24393W        W44673  10.694   4.219  15.049  0.4944 -0.0123  0.0482
24394W        W44674   5.879   8.031   1.492 -0.3000  0.1007  0.0649
24395W        W44675  14.428   9.673  16.287  0.0955 -0.0061  0.1170
24396W        W44676  10.289   4.380  12.658 -0.1354 -0.1850  0.0198
24397W        W44677   6.496   9.076   0.154  0.0512 -0.0294 -0.0798
24398W        W44678  11.891  10.981   3.362  0.2379 -0.3970  0.1691
24399W        W44679   3.143   6.285  13.133 -0.0466  0.0873 -0.0176
24400W        W44680   0.387   1.085  16.437  0.1034 -0.0977  0.2038
24401W        W44681  12.316  15.183  12.990  0.1089 -0.1078  0.4529
24402W        W44682  12.386   4.660   2.797  0.0263 -0.2238 -0.2525
24403W        W44683  11.905  13.440   4.255 -0.1851  0.4291 -0.0936
24404W        W44684   0.498  10.565   4.559  0.0332 -0.5453 -0.0575
24405W        W44685   6.418  15.157   4.179 -0.0392  0.0682  0.0325
24406W        W44686   9.669   6.188   2.668  0.2286  0.1670 -0.2663
24407W        W44687  15.192   8.824   2.129 -0.1719  0.0221 -0.1122
24408W        W44688   0.577   3.419  14.708  0.0237  0.0290 -0.3275
24409W        W44689  10.421  16.060  15.074  0.2297  0.3597  0.1256
24410W        W44690  16.947  15.462  16.739 -0.0204  0.1337  0.0638
24411W        W44691   0.932   7.123   3.563  0.0071  0.0455 -0.0205
24412W        W44692  13.489   2.553   4.941 -0.2807 -0.3290 -0.3126
24413W        W44693  14.989   0.143   2.020  0.1308  0.1007  0.3830
24414W        W44694   1.594   7.809  16.166 -0.1709  0.1727 -0.1565
24415W        W44695  11.813  16.574   0.491  0.0773 -0.0847  0.1918
24416W        W44696  14.619  17.174  15.570  0.0421 -0.2858  0.0613
24417W        W44697  15.216   1.893   4.572  0.0776  0.0334  0.4415
24418W        W44698   6.717  10.422   4.191 -0.0748 -0.2308  0.1432
24419W        W44699   5.158   5.940   0.382 -0.1466  0.1471 -0.1054
24420W        W44700   1.370   4.257   4.927  0.1543 -0.0650  0.1065
24421W        W44701  16.103   3.518  16.338  0.0687  0.0900  0.3134
24422W        W44702  12.071   9.213  15.772 -0.1291  0.0886  0.1918
24423W        W44703  13.380   1.249   0.596 -0.1753  0.1812 -0.1471
24424W        W44704  13.112   1.008   1.837  0.3462  0.0580 -0.2193
24425W        W44705  16.865   6.194  13.659 -0.1340  0.4826  0.3107
24426W        W44706  13.715   3.568  12.235  0.0822 -0.1648  0.0549
24427W        W44707  12.416   2.462  13.916  0.0694 -0.1367  0.4688
24428W        W44708   1.852  13.220   1.943 -0.3956 -0.0661 -0.0448
24429W        W44709   2.149  16.463   4.071  0.1382 -0.2160  0.2446
24430W        W44710   1.436  11.248  13.313 -0.1774 -0.1638  0.0885
24431W        W44711  17.153   1.763  13.131 -0.0450  0.0540  0.1941
24432W        W44712   0.267   1.234  14.610 -0.0024 -0.1129 -0.3406
24433W        W44713   7.858  13.321  12.654  0.1854 -0.1546  0.0941
24434W        W44714  12.557   2.015   0.441 -0.1506  0.0364  0.0104
24435W        W44715  11.936   1.657  13.626  0.0182 -0.2870 -0.0134
24436W        W44716   4.153   5.293   1.029  0.0801  0.2506 -0.0313
24437W        W44717  10.545  10.467  12.255  0.0041 -0.0129  0.1227
24438W        W44718  17.194  11.860   2.492 -0.0911  0.2401  0.0781
24439W        W44719  14.963  13.861   3.771  0.2261  0.1734  0.2797
24440W        W44720   3.530  15.130   4.423  0.4143  0.1193 -0.1222
24441W        W44721   6.854   9.252   3.394  0.0093 -0.3235 -0.1727
24442W        W44722  11.543  12.031   0.633 -0.0353  0.1730  0.0202
24443W        W44723  14.534   3.007   0.580 -0.0485 -0.0679  0.2424
24444W        W44724   4.732   9.786   0.308 -0.1923 -0.1154  0.0437
24445W        W44725   4.778   8.417  14.530  0.0030 -0.0984 -0.1400
24446W        W44726   5.832  17.285  13.866  0.0684  0.0789 -0.3780
24447W        W44727   1.785   9.098  12.941  0.3462 -0.2301  0.1605
24448W        W44728  13.140  16.672   4.278  0.0468 -0.0634 -0.0394
24449W        W44729   8.369   3.267   2.567  0.2761  0.3509  0.0621
24450W        W44730   7.717   7.269   4.404 -0.1259 -0.1143 -0.1806
24451W        W44731   5.511   7.098   0.721 -0.0847 -0.1054 -0.0354
24452W        W44732   4.842  10.494  14.852 -0.0387 -0.0779  0.0385
24453W        W44733   3.540  10.483  12.736  0.0261  0.0598 -0.0758
24454W        W44734   9.526  14.038   1.039 -0.2347 -0.0563  0.1268
24455W        W44735  13.941  15.339   4.416 -0.1151  0.0534  0.0777
24456W        W44736   8.594  13.007  14.888  0.0572 -0.0912 -0.1907
24457W        W44737   1.199  17.681   3.247 -0.2726 -0.2922  0.1461
24458W        W44738   1.059   3.995   0.479  0.1553 -0.1498  0.2304
24459W        W44739   8.960  14.137  15.960  0.0415 -0.3097 -0.3222
24460W        W44740   9.302  10.577   1.828 -0.0716 -0.1346 -0.1606
24461W        W44741   0.334   8.282   2.769  0.0888  0.1433 -0.1496
24462W        W44742  12.821   8.296  16.300 -0.0053 -0.3007 -0.0485
24463W        W44743  10.547  11.448  13.045 -0.1448  0.0596  0.3901
24464W        W44744  17.431  10.025  15.989  0.3872  0.0776 -0.0502
24465W        W44745  17.585   4.956  14.969 -0.0809  0.1638 -0.3348
24466W        W44746  11.134  10.392  14.260 -0.0909 -0.0184 -0.0879
24467W        W44747   7.795  13.643   1.123 -0.1803 -0.1693  0.0990
24468W        W44748   3.266  12.105  14.820  0.0965 -0.1336 -0.0797
24469W        W44749   1.295  11.344  16.087 -0.1366  0.1469 -0.0058
24470W        W44750   3.058   1.327  16.416 -0.0416  0.0077 -0.1181
24471W        W44751   3.519  15.745   1.131 -0.0805 -0.1578 -0.0664
24472W        W44752   1.415  10.764   2.397 -0.0549  0.2884  0.0164
24473W        W44753   6.345   5.964  16.173  0.2643  0.0457  0.1399
24474W        W44754  10.273  10.352  16.406  0.0217 -0.2039  0.0606
24475W        W44755   3.091   8.967  15.556  0.2739  0.1419  0.1451
24476W        W44756  10.399  16.546   1.749 -0.1122 -0.2323  0.2160
24477W        W44757   6.203   3.008   2.245 -0.2686  0.2058 -0.6284
24478W        W44758   0.854  11.493   3.970 -0.0863 -0.2018  0.2723
24479W        W44759   0.112   0.930   4.889  0.1181 -0.0362 -0.1136
24480W        W44760   6.821  17.698  12.274 -0.2498 -0.2331  0.2480
24481W        W44761  17.633   2.730   1.607 -0.0055 -0.0814 -0.1933
24482W        W44762  14.170   9.230  16.333  0.2398 -0.0019 -0.0549
24483W        W44763   1.542   3.740  14.425 -0.1478 -0.1063  0.0318
24484W        W44764  15.206  17.683  13.335 -0.0015  0.2226 -0.0202
24485W        W44765   1.994   8.989   3.863 -0.2295 -0.1962  0.2943
24486W        W44766   2.204  12.446   2.756 -0.2614  0.1257  0.0562
24487W        W44767   5.881  11.303  12.314  0.1252  0.0002 -0.1207
24488W        W44768   3.357   2.519  15.845 -0.0313  0.0564  0.2471
24489W        W44769  13.067   6.554  11.786 -0.1579  0.0269 -0.0768
24490W        W44770   5.832  17.559   1.372  0.1498 -0.0077  0.0914
24491W        W44771  14.022   3.139  15.080 -0.0108 -0.0245 -0.1076
24492W        W44772   5.319   0.783  11.953 -0.1586 -0.0059 -0.0456
24493W        W44773   3.982  15.398   0.277 -0.3261  0.1827 -0.0246
24494W        W44774   7.442   7.853   3.711 -0.2089 -0.0856  0.3621
24495W        W44775   3.507   6.193  13.538  0.1882  0.0718  0.3593
24496W        W44776   6.766  17.161   1.844 -0.1548 -0.0351  0.0316
24497W        W44777   0.133   6.428  15.990  0.0281  0.0419 -0.1317
24498W        W44778  13.847  12.512   0.188  0.0360  0.1641 -0.2311
24499W        W44779   3.858   3.905   2.482  0.1601 -0.1279  0.0480
24500W        W44780   7.313   6.122   4.621 -0.1008  0.0044 -0.0436
24501W        W44781  12.010   9.251   2.598 -0.0103  0.2992 -0.0051
24502W        W44782   6.725  12.534   0.586 -0.0698 -0.2679 -0.2987
24503W        W44783   4.832  15.822   1.590  0.2479  0.0219 -0.0341
24504W        W44784  11.114  15.955  13.077  0.0551 -0.1110 -0.0591
24505W        W44785   0.152  17.275  13.004  0.1782  0.4213  0.1281
24506W        W44786  14.074  14.430  16.236  0.0212 -0.1300 -0.0338
24507W        W44787   3.866   7.592   2.110  0.0860 -0.0803  0.2495
24508W        W44788  13.712   8.415   2.237 -0.0741 -0.0778 -0.0573
24509W        W44789  10.407  14.317   0.531  0.1369 -0.1215 -0.4375
24510W        W44790   8.249   0.751   3.639 -0.0664 -0.2064  0.3329
24511W        W44791  13.917   1.204  13.243 -0.3531 -0.1104  0.2579
24512W        W44792  16.576  13.864  15.545 -0.0552 -0.0721  0.3026
24513W        W44793   9.041   0.769   1.047 -0.0714 -0.0288  0.0175
24514W        W44794  10.701   5.692   4.281 -0.0035 -0.1469 -0.1694
24515W        W44795   5.422   8.207  13.276 -0.1284 -0.1670  0.1462
24516W        W44796   8.980   5.703  16.668 -0.1867 -0.0255  0.2412
24517W        W44797  17.720  16.901  16.859  0.1649 -0.1635  0.2173
24518W        W44798   6.299   0.826  12.254  0.1593 -0.1032 -0.3216
24519W        W44799   9.163  15.675  14.474 -0.1143  0.0745  0.0247
24520W        W44800   6.875   2.288  14.806  0.3491 -0.0935  0.1599
24521W        W44801  16.181  15.613   0.630 -0.0441 -0.1615  0.0375
24522W        W44802   0.178   0.023   0.152 -0.0909 -0.0089  0.0800
24523W        W44803  11.535  15.724   0.815 -0.1752  0.1466  0.5019
24524W        W44804   0.342   6.085   4.174 -0.0290 -0.0931 -0.1856
24525W        W44805  16.607  15.677  16.442 -0.0966  0.0708  0.1214
24526W        W44806  12.122   1.097  12.800 -0.4510 -0.0691 -0.0360
24527W        W44807  15.318  10.281   4.381 -0.0126 -0.1932  0.2793
24528W        W44808   7.203   9.146  13.569 -0.2461 -0.1442  0.0336
24529W        W44809  16.063  10.658  14.051  0.2415 -0.3897 -0.0034
24530W        W44810   5.887   0.775   2.485 -0.2028 -0.1281  0.0490
24531W        W44811  13.805   5.230   3.567  0.2607 -0.0855 -0.3246
24532W        W44812  12.185   1.319   0.682 -0.0345 -0.0813 -0.5461
24533W        W44813   8.330   5.302   4.608  0.1305 -0.2441 -0.1043
24534W        W44814   9.929   0.284   4.005 -0.0760  0.2019  0.5245
24535W        W44815   1.960  11.207  13.042 -0.5459 -0.0253  0.0269
24536W        W44816   0.919   8.200  12.464 -0.0753 -0.1652 -0.0022
24537W        W44817  11.803  12.525  13.675 -0.0367 -0.0735  0.1251
24538W        W44818   9.587   5.606   2.312 -0.0580  0.1004 -0.0741
24539W        W44819  16.597  12.881   0.276 -0.0326 -0.0149 -0.1956
24540W        W44820   6.837  15.646   4.616 -0.0543 -0.0329  0.0813
24541W        W44821   2.230  13.207  16.439  0.2036  0.0610  0.0727
24542W        W44822   1.806   7.182  15.588  0.1725 -0.1394 -0.2029
24543W        W44823   4.771   4.671  14.944 -0.0336  0.3850  0.0900
24544W        W44824  11.563   6.802  12.458 -0.1017 -0.0494  0.0196
24545W        W44825   0.151   7.651  14.239 -0.1652  0.0972 -0.0558
24546W        W44826  11.862  13.005  15.860  0.0784 -0.2874 -0.2285
24547W        W44827  17.516   1.734  12.274 -0.0831 -0.2936  0.0640
24548W        W44828   0.629   7.827   2.678  0.2266 -0.0275  0.0161
24549W        W44829  15.849   9.647   0.356  0.0878 -0.2185  0.0920
24550W        W44830   2.916  10.658  14.582 -0.2294 -0.0232 -0.1376
24551W        W44831  15.459   7.303   2.393 -0.1388  0.0611 -0.0324
24552W        W44832   6.975  11.037   2.926  0.3728 -0.0270  0.2009
24553W        W44833  13.075   0.853   0.315 -0.3746  0.3191  0.0261
24554W        W44834  12.476   6.611  12.985  0.0443 -0.0866 -0.0706
24555W        W44835  10.409  11.290   4.440  0.1480  0.0635  0.4223
24556W        W44836  16.230   1.672   1.504  0.1462 -0.0342 -0.0705
24557W        W44837   2.454  13.867  13.480 -0.1640  0.3642  0.2441
24558W        W44838  10.995   2.839   0.485  0.1233 -0.1025 -0.0017
24559W        W44839   6.506   1.327  15.533  0.1880 -0.0534  0.0055
24560W        W44840  16.662  12.944   1.629 -0.2602  0.2958  0.0847
24561W        W44841   8.515  12.956   2.131  0.1158  0.0883  0.1671
24562W        W44842  15.210  11.418  16.465 -0.1973 -0.2563 -0.0772
24563W        W44843   6.626  12.248  15.677  0.1539 -0.2767  0.2114
24564W        W44844   5.695   1.851  13.738 -0.0450  0.1011  0.0390
24565W        W44845   7.258  13.030  15.004 -0.0159 -0.3988 -0.1920
24566W        W44846  17.663  16.770   4.797  0.0032  0.1057  0.0520
24567W        W44847   1.907   2.636  13.493  0.1556  0.0695  0.0502
24568W        W44848  15.883  17.201   0.646 -0.4710  0.1494  0.1090
24569W        W44849   4.824  14.983   3.957 -0.1110  0.2684  0.0646
24570W        W44850  16.135  15.509   2.152  0.1175 -0.1443  0.1577
24571W        W44851   6.378   1.717   2.821 -0.1615  0.1339 -0.1431
24572W        W44852   1.079  11.031  13.618  0.0407  0.0491 -0.1297
24573W        W44853   9.765  13.018  12.059 -0.0542 -0.0750  0.1217
24574W        W44854   5.518   9.696   0.749 -0.0910  0.0032  0.0151
24575W        W44855  15.371   3.701   2.458 -0.2353 -0.1202 -0.0553
24576W        W44856   8.025   4.652   4.046 -0.1971 -0.1766  0.0326
24577W        W44857  15.174  15.368  15.908  0.0555  0.0463 -0.0452
24578W        W44858  11.370  16.469  14.672  0.0811 -0.1472  0.2014
24579W        W44859  14.805  10.789   4.600 -0.0304 -0.2480  0.0752
24580W        W44860   9.039  15.667   1.737  0.3945 -0.1357  0.0188
24581W        W44861  12.608   8.392  15.358  0.2144 -0.0040  0.3012
24582W        W44862  10.583   6.293  11.513  0.0839  0.0846  0.3177
24583W        W44863   1.531   6.053  15.525  0.0461  0.3297  0.3282
24584W        W44864  15.509  11.684   3.408 -0.0578  0.2114  0.2318
24585W        W44865  14.270  11.590  15.258 -0.0977 -0.1382  0.2297
24586W        W44866   1.170   9.664   2.005  0.2777  0.0757  0.2240
24587W        W44867   1.011   2.693   2.622 -0.1548 -0.0731  0.1318
24588W        W44868  15.142   2.612   5.260  0.3438 -0.2183 -0.0347
24589W        W44869  16.952  11.186   1.223 -0.0816 -0.0198 -0.0613
24590W        W44870  16.648   8.428   2.916  0.0562 -0.0318 -0.0334
24591W        W44871   5.091   9.482   0.548  0.3798  0.1275  0.0818
24592W        W44872  11.940   5.469  16.664 -0.0299  0.1088  0.2728
24593W        W44873  16.359   9.170   1.338  0.0578 -0.0011  0.1113
24594W        W44874   9.546   3.644  13.586  0.0381 -0.3433 -0.0617
24595W        W44875   2.880  16.793  16.736 -0.0117 -0.0751  0.2049
24596W        W44876  15.783   8.700   4.845 -0.0018 -0.0156 -0.2274
24597W        W44877  10.321  10.560   1.638 -0.0541 -0.1385 -0.0907
24598W        W44878   2.760   4.276   2.833 -0.0886  0.0575 -0.0605
24599W        W44879  10.005   7.278  13.441  0.0312 -0.1473 -0.0617
24600W        W44880  10.204   7.936   3.671 -0.2299 -0.0953 -0.0804
24601W        W44881  16.414   8.823   2.750  0.0379 -0.0201  0.1485
24602W        W44882  12.931  17.264  13.802  0.1113 -0.1757  0.0310
24603W        W44883   5.964   4.019   3.640 -0.0942  0.3067 -0.0062
24604W        W44884  10.233  12.545   1.207 -0.1922 -0.2662 -0.2312
24605W        W44885   2.852  12.838   3.246  0.2759  0.2470 -0.3481
24606W        W44886   8.989   8.572   0.413 -0.1280  0.0904 -0.1635
24607W        W44887  12.334   4.010  13.944 -0.1732  0.2164 -0.1461
24608W        W44888   1.283   0.048  16.362 -0.1305 -0.0019 -0.2011
24609W        W44889   9.285   0.913  12.893 -0.0562  0.0086  0.1419
24610W        W44890  10.175  11.184   1.497  0.4905 -0.0621 -0.1221
24611W        W44891   3.199  14.265  14.449 -0.0536  0.0590 -0.1012
24612W        W44892   7.042   4.800  13.552  0.0800  0.0541  0.2734
24613W        W44893  15.618  16.717  16.791  0.0714 -0.0721 -0.0661
24614W        W44894  10.734  15.449  12.443 -0.1221  0.1994  0.4100
24615W        W44895  13.308   5.316   2.167 -0.2711 -0.0304 -0.0572
24616W        W44896   7.349   8.047   0.693  0.0767 -0.0322 -0.2816
24617W        W44897   8.966  10.894   4.833  0.0749  0.0172  0.1147
24618W        W44898   1.661   3.416   2.041  0.0556 -0.0536  0.0160
24619W        W44899  11.409  14.192  16.599  0.0881  0.1131  0.0939
24620W        W44900  10.774  12.380  12.955  0.2388 -0.0119  0.3356
24621W        W44901   1.322   6.581  14.740  0.0945 -0.0044 -0.0062
24622W        W44902   0.203  16.314   4.115 -0.1489  0.1052  0.0760
24623W        W44903   4.496   6.249  14.474  0.1931 -0.0754  0.3179
24624W        W44904  17.667   7.976   2.098  0.0827 -0.2461  0.1527
24625W        W44905  17.628   9.653   0.345 -0.2590  0.0402  0.0047
24626W        W44906   9.055   8.768  15.019  0.3016  0.1319 -0.0147
24627W        W44907   7.260   6.699   4.342  0.1816  0.1120  0.3606
24628W        W44908   4.673   6.868   2.632  0.1646  0.0381 -0.0005
24629W        W44909   8.392   6.834  13.282 -0.0465  0.1563 -0.0205
24630W        W44910   3.873   5.364   2.913 -0.0207  0.1361 -0.0068
24631W        W44911  14.986  10.948   6.479  0.1693 -0.0116  0.0022
24632W        W44912   2.065   5.999   4.964  0.0813 -0.1331 -0.0478
24633W        W44913   5.746   0.770  16.731 -0.0426  0.0758  0.0996
24634W        W44914   9.424   0.314   2.892 -0.2599  0.0376 -0.0437
24635W        W44915  11.809  14.668   0.392  0.0479  0.1225 -0.0821
24636W        W44916   8.679   6.730  14.320 -0.0412  0.1505  0.2704
24637W        W44917  10.281  12.797   1.697  0.0218  0.2842  0.1075
24638W        W44918   3.689  13.049  14.029 -0.0920  0.1478  0.0782
24639W        W44919   9.141  14.144  14.620 -0.0072  0.1947 -0.0088
24640W        W44920  15.993   4.436  16.753  0.0095  0.0012  0.1120
24641W        W44921  10.208   0.887   3.532 -0.0481 -0.0999  0.2387
24642W        W44922  12.094   5.334  16.207  0.0791  0.1848 -0.4582
24643W        W44923   0.599   6.657   3.454 -0.2931  0.2483 -0.1111
24644W        W44924   2.915  17.290   4.754  0.1334  0.2950  0.0303
24645W        W44925  16.094   5.021   3.916 -0.1395  0.2009  0.0635
24646W        W44926   4.824   5.477  13.429  0.0764 -0.0640  0.4699
24647W        W44927   9.747   9.332   3.538 -0.1182  0.2558 -0.0311
24648W        W44928   5.203  11.854  14.596 -0.1224  0.1445 -0.0100
24649W        W44929   7.391  11.438  16.648  0.0655 -0.0318 -0.2990
24650W        W44930   6.366   9.299   1.937  0.2473 -0.1305  0.2607
24651W        W44931   4.052  11.062  16.318 -0.2423 -0.2071  0.0907
24652W        W44932  14.966   9.884   4.580  0.1203  0.3541  0.0947
24653W        W44933  11.187   1.012  15.645  0.0387  0.3548 -0.0277
24654W        W44934   1.796  14.656   3.419 -0.0621 -0.0529 -0.2018
24655W        W44935  10.128  11.816  15.057  0.1594 -0.0742  0.0821
24656W        W44936  10.023  10.417  13.907 -0.0034 -0.0227 -0.0219
24657W        W44937   4.703  10.563  12.206  0.0766 -0.1723 -0.1350
24658W        W44938   1.068   3.181  16.346  0.0560  0.1917 -0.3412
24659W        W44939  11.455  13.102   3.459 -0.0449  0.0518 -0.0772
24660W        W44940  15.999  14.137   2.603 -0.0877 -0.0763 -0.1609
24661W        W44941  15.595  14.055   4.958  0.0659 -0.0281  0.1344
24662W        W44942   4.695  15.107   0.819 -0.0877  0.3366 -0.1673
24663W        W44943   7.762  17.682   1.539 -0.1215  0.0963 -0.0272
24664W        W44944   8.022   8.315   2.543 -0.1802 -0.2783 -0.1154
24665W        W44945  13.086   1.561   0.901 -0.3428 -0.0513  0.0583
24666W        W44946  10.129   6.182  12.704 -0.1795  0.0566  0.0844
24667W        W44947   8.342  13.291  12.875  0.2322 -0.0735 -0.0794
24668W        W44948   2.519   6.323   1.796  0.1989 -0.0104 -0.1692
24669W        W44949   8.966  15.149   1.651  0.0356  0.2547 -0.2659
24670W        W44950   8.751   3.507  15.870 -0.0223  0.1744 -0.2599
24671W        W44951   2.425   8.025   3.073  0.1195  0.3120  0.3887
24672W        W44952   6.214  13.331  14.787 -0.0234 -0.3695  0.0366
24673W        W44953  14.102  11.510  13.126 -0.0982 -0.2432  0.0366
24674W        W44954   2.734   0.111  11.294  0.0405  0.2243 -0.1929
24675W        W44955  17.271  16.538  14.332 -0.0676 -0.0101  0.1844
24676W        W44956  16.077   1.412   4.533 -0.0032  0.0829 -0.0330
24677W        W44957  14.327  16.822   4.174 -0.1293  0.1915  0.1762
24678W        W44958   2.458  12.309   1.301  0.0904 -0.3337  0.4173
24679W        W44959   9.580   6.599   0.998  0.2541  0.1942 -0.1565
24680W        W44960   5.888   5.692   3.300  0.1697  0.0326  0.2194
24681W        W44961   4.041   3.693  13.258 -0.3613  0.0772 -0.3108
24682W        W44962   1.672   7.752   3.537  0.0998  0.0275  0.0115
24683W        W44963   1.481   9.691  15.481 -0.0254  0.0344 -0.1511
24684W        W44964   5.917  12.391   1.966  0.0822  0.1266 -0.3014
24685W        W44965   4.428  13.742   4.452 -0.2404 -0.1969 -0.1427
24686W        W44966  12.515   8.591   3.232  0.2317 -0.3427  0.1804
24687W        W44967  12.024   8.749   3.293  0.1268  0.3070  0.0869
24688W        W44968   2.807   6.690   1.074 -0.0719 -0.0915  0.0361
24689W        W44969  17.382  14.723   0.110 -0.6814  0.1585  0.0658
24690W        W44970  11.361   4.330   2.505 -0.0531 -0.0503  0.0075
24691W        W44971  14.433  10.240   4.539 -0.2090  0.2413 -0.1758
24692W        W44972  12.526   2.485  15.635 -0.0700 -0.0268 -0.1738
24693W        W44973   2.392   9.983  15.233  0.3920  0.1692  0.3152
24694W        W44974   3.032   0.591  12.305 -0.1931  0.1399 -0.2033
24695W        W44975  13.887   0.323   3.543  0.2347  0.2357 -0.2496
24696W        W44976  13.183   5.820  12.174  0.1531 -0.1485  0.2374
24697W        W44977   3.066  16.515  13.613 -0.0143  0.0540  0.2019
24698W        W44978   6.815   6.913  12.038  0.0852  0.2850  0.0492
24699W        W44979  16.431   0.340  15.535 -0.1016  0.1086 -0.0708
24700W        W44980   7.863   8.529  15.340  0.0371  0.2107 -0.2220
24701W        W44981   9.310   7.387  13.386  0.0935  0.3022 -0.0967
24702W        W44982  11.090   5.912   3.163 -0.3925 -0.0706  0.2222
24703W        W44983  10.345   7.810  16.071  0.2428 -0.2646  0.0114
24704W        W44984   7.752   6.546   0.573 -0.0209 -0.0185 -0.0176
24705W        W44985  12.949   6.629   5.499  0.0557  0.0810  0.1366
24706W        W44986  17.436   2.183   2.403  0.0138  0.0653 -0.3030
24707W        W44987  17.089  13.796  15.804 -0.1431  0.1275  0.1564
24708W        W44988  12.667   8.894   1.172  0.1435  0.1755  0.0930
24709W        W44989   2.520  16.110   1.938 -0.2797  0.1939  0.0391
24710W        W44990   0.678   5.460  12.386  0.1917  0.3593 -0.0032
24711W        W44991   8.428   2.414   3.283 -0.1544  0.1323 -0.1341
24712W        W44992  11.042   4.297   2.133 -0.0230  0.1336 -0.5685
24713W        W44993   0.106  17.154   1.247  0.2632 -0.3623  0.0592
24714W        W44994  12.267   5.789   2.761  0.0376  0.1040 -0.0253
24715W        W44995  14.248   5.418   2.485 -0.1595 -0.0939  0.2649
24716W        W44996  14.158   0.946   4.298  0.0950  0.2400  0.4295
24717W        W44997   6.922  14.582   2.132 -0.3635 -0.2315  0.0284
24718W        W44998  17.689  16.229  14.064  0.0212 -0.2102 -0.2994
24719W        W44999  10.486   2.809   3.030 -0.0051 -0.3929  0.1059
24720W        W45000  16.583   0.434   0.062  0.1614  0.0092  0.1102
24721W        W45001   4.213   0.011   4.087 -0.0671 -0.1432  0.2330
24722W        W45002   2.961   0.354   0.919 -0.0767 -0.0131 -0.1917
24723W        W45003  12.609  10.912  12.604 -0.5480 -0.0753  0.0870
24724W        W45004   4.826  16.186   4.146 -0.2845 -0.0369 -0.1111
24725W        W45005   3.184  15.002  15.937 -0.0701 -0.3357 -0.0983
24726W        W45006  12.474  10.630   2.738 -0.0098 -0.0101 -0.2257
24727W        W45007  10.301  12.261  15.309 -0.0603 -0.0705  0.0277
24728W        W45008   8.136  10.536  14.653 -0.1951 -0.0554 -0.0486
24729W        W45009  13.498  10.913   0.062  0.0330 -0.0754 -0.0625
24730W        W45010  11.073  12.435   0.352  0.1711  0.2064 -0.0770
24731W        W45011   7.838   5.215   0.874  0.0838  0.1522 -0.0383
24732W        W45012  14.479   3.572   3.372  0.0693 -0.0559 -0.0410
24733W        W45013  10.038  15.339  13.554 -0.2481 -0.1771 -0.0779
24734W        W45014   4.243   3.088   2.781  0.4230  0.2138 -0.1576
24735W        W45015   8.203   1.213   1.470 -0.1754 -0.3852  0.1638
24736W        W45016  15.524   5.398  15.429  0.0403  0.1234 -0.0194
24737W        W45017  17.292   4.647  16.802 -0.2435  0.0627  0.0317
24738W        W45018   8.788  10.565   0.294 -0.1120 -0.1186  0.1383
24739W        W45019  13.672  10.852  15.631  0.2191  0.1150 -0.2083
24740W        W45020  14.058   3.971   0.422 -0.1119  0.2604  0.1000
24741W        W45021   0.346   0.666   2.346 -0.3060  0.1834  0.0184
24742W        W45022   7.345   3.750   3.043  0.0791 -0.1868  0.0646
24743W        W45023   3.647  17.687  12.506 -0.0747  0.1822  0.2811
24744W        W45024   6.497   0.743   3.094  0.2847  0.0503  0.1519
24745W        W45025   5.487  16.283   2.077 -0.0032 -0.1521  0.1361
24746W        W45026  17.729   6.961  12.594  0.2134  0.1010  0.2078
24747W        W45027  16.043   3.278   2.088 -0.0854 -0.0108  0.0308
24748W        W45028  12.294   8.508   4.457  0.0614  0.2087 -0.1730
24749W        W45029   2.234   9.841  12.676  0.1060 -0.1575 -0.0971
24750W        W45030  16.982   2.956  16.675  0.1780 -0.0872  0.2338
24751W        W45031   9.399   3.476   0.541 -0.2376  0.3064 -0.3404
24752W        W45032  14.477  11.508  13.958  0.0475  0.0379 -0.2100
24753W        W45033  16.736   7.200  16.344  0.1911 -0.0797 -0.1589
24754W        W45034   9.536   7.989  12.317  0.2441 -0.0098 -0.1179
24755W        W45035  15.736   7.821  14.791  0.1052  0.1032 -0.0783
24756W        W45036  16.322   7.906  13.470  0.1603 -0.0617  0.1106
24757W        W45037  11.857  14.913  13.086 -0.1626 -0.0025  0.3709
24758W        W45038  12.771  14.203  14.032 -0.3060  0.0190 -0.0570
24759W        W45039  12.645  11.077   3.844  0.0950  0.1125 -0.1105
24760W        W45040   7.218   9.613   3.535  0.0866 -0.1260  0.0156
24761W        W45041  14.513   3.492   4.382 -0.0796 -0.1671 -0.0983
24762W        W45042  12.829   6.068   0.123  0.0984 -0.1127 -0.0391
24763W        W45043   5.582  12.080   3.246 -0.1241  0.0768 -0.2025
24764W        W45044   6.135   8.144   0.024  0.1006  0.2722 -0.0300
24765W        W45045   0.352   5.269  12.040  0.0383  0.0217  0.0390
24766W        W45046   8.486  16.424  15.881 -0.2692 -0.2439  0.0593
24767W        W45047  11.783   5.797   1.311 -0.1176  0.1893 -0.1560
24768W        W45048   0.686   0.101   4.527  0.0043  0.0831 -0.0928
24769W        W45049  11.565  13.674   0.468  0.0615 -0.2962  0.3710
24770W        W45050  12.378   9.207   3.921  0.1273 -0.2852 -0.0344
24771W        W45051  10.360  12.254   4.530  0.4150 -0.1119  0.1658
24772W        W45052   1.407   7.396  15.822 -0.1344  0.1289 -0.1505
24773W        W45053   3.811   2.564   1.905 -0.1423 -0.0869 -0.0442
24774W        W45054   6.917  12.240  12.889  0.3246  0.0779  0.1321
24775W        W45055   7.857   5.544   1.929  0.0874  0.2628  0.1339
24776W        W45056   9.107  13.961  15.509  0.1332  0.2779  0.2497
24777W        W45057  13.423  13.961   1.077  0.1394  0.1351 -0.0131
24778W        W45058   5.570  17.402  16.520  0.0530  0.0719  0.3252
24779W        W45059  13.259   3.161   0.226 -0.0443  0.1402  0.0494
24780W        W45060   6.370   2.541  13.558 -0.0066 -0.2991  0.0924
24781W        W45061   6.593   4.367   2.764  0.0682  0.1284 -0.3416
24782W        W45062   8.864   3.235  13.820  0.0926  0.0295  0.1480
24783W        W45063   5.494  11.825  15.010 -0.0134  0.2217 -0.0203
24784W        W45064   1.431   8.105   3.320  0.0192 -0.0910 -0.2186
24785W        W45065  17.058   1.905  16.347 -0.2660 -0.2163  0.2808
24786W        W45066   2.353  16.847   1.465 -0.1690  0.3097  0.0383
24787W        W45067   4.980   9.176  15.791  0.0855 -0.0980  0.1090
24788W        W45068   7.775   7.999   1.684  0.1421  0.1133 -0.1175
24789W        W45069   2.807  10.983  16.030 -0.2980 -0.1936  0.2547
24790W        W45070  15.957   2.906   4.264 -0.2723  0.1067 -0.3805
24791W        W45071  14.208   9.938  15.829  0.2395  0.2001 -0.1049
24792W        W45072   0.477   5.581  13.192  0.0877  0.0362  0.0671
24793W        W45073   5.459   2.442  14.593 -0.2903 -0.0111  0.3756
24794W        W45074   3.176   9.365  15.253  0.0469  0.1208  0.0157
24795W        W45075  14.317   8.819   0.719 -0.1149  0.1165 -0.1457
24796W        W45076   1.091  15.479  16.116  0.0694 -0.1986 -0.1523
24797W        W45077  12.082   0.687   2.477 -0.2327  0.0951  0.0491
24798W        W45078  13.008   7.159  15.763  0.0638  0.3225  0.2977
24799W        W45079   8.140   5.521   5.023  0.0459  0.1836  0.0282
24800W        W45080  12.688  14.814   2.074 -0.5949  0.1581 -0.2073
24801W        W45081   5.088   0.399  16.148 -0.0374  0.1343 -0.1448
24802W        W45082  11.202  16.424  15.993  0.1977 -0.2578  0.2756
24803W        W45083   0.117   4.908   2.614 -0.0640 -0.3210 -0.0305
24804W        W45084   8.098  11.166   1.486  0.0318  0.0516  0.3032
24805W        W45085   4.427   2.994   3.242  0.0771 -0.1149 -0.1776
24806W        W45086   6.007  17.124  16.536 -0.1347  0.1283 -0.1040
24807W        W45087   9.874  14.127   3.564 -0.0918  0.0313 -0.0647
24808W        W45088  15.915  12.847  16.368 -0.1727 -0.2382 -0.5016
24809W        W45089   8.323   3.996  13.757  0.0117 -0.0860  0.0533
24810W        W45090   8.357  11.586  15.916 -0.2943 -0.2200 -0.1712
24811W        W45091  15.418  13.437   2.700 -0.1028  0.0418  0.1754
24812W        W45092   7.698   1.160   1.587 -0.2513  0.2528 -0.0139
24813W        W45093   1.613   1.739   4.581  0.0243  0.0174 -0.2395
24814W        W45094  15.706  11.986   0.625 -0.1148 -0.0143 -0.0214
24815W        W45095  11.024  11.470   0.589 -0.0388  0.1340  0.1423
24816W        W45096  17.057   5.531   3.453  0.0610 -0.0328  0.1084
24817W        W45097   8.292   9.763  16.079 -0.2120  0.4002 -0.0437
24818W        W45098  15.835   4.006   3.652  0.0486  0.1667  0.0397
24819W        W45099   2.460  17.139   4.585  0.1466 -0.1695  0.1216
24820W        W45100  16.300   4.511   1.010 -0.0601  0.0330 -0.1430
24821W        W45101  15.359   3.409   1.544 -0.2413  0.1855 -0.1379
24822W        W45102  13.916  13.502   5.019  0.0196  0.3085  0.1417
24823W        W45103   6.140   0.058   1.904 -0.0944 -0.1623  0.1384
24824W        W45104  11.118  17.611   1.978 -0.1323 -0.2796  0.0719
24825W        W45105  11.071  13.108   1.344 -0.3104 -0.0338  0.0715
24826W        W45106   1.789  14.413  13.655 -0.3112 -0.2564  0.0943
24827W        W45107   7.831   6.399  15.672 -0.0521 -0.0332  0.0002
24828W        W45108  13.656   0.934  12.401 -0.2376  0.0879 -0.2664
24829W        W45109   9.576  16.840   4.632  0.1310 -0.1034 -0.0993
24830W        W45110   6.572  16.495  13.717 -0.0776 -0.1848  0.0018
24831W        W45111   6.493   6.635  13.953 -0.0193  0.3487 -0.0144
24832W        W45112  15.172  10.706   1.519  0.0322  0.3422 -0.0475
24833W        W45113   9.931   8.879   3.181 -0.4313  0.3911 -0.3050
24834W        W45114   5.088  14.684  15.487  0.0316 -0.0439 -0.1016
24835W        W45115  13.900  17.307   2.585  0.0684 -0.0828  0.0824
24836W        W45116   1.129  15.262   1.856 -0.1613  0.1031 -0.2165
24837W        W45117   7.560   7.259  12.730 -0.0333 -0.1364  0.0833
24838W        W45118  10.426   2.425   4.857 -0.1696  0.1106  0.1136
24839W        W45119  15.076   0.097   5.159 -0.1801 -0.1591 -0.1903
24840W        W45120  12.264   0.629   0.736 -0.3035  0.1039  0.1434
24841W        W45121  11.286   8.566  13.676 -0.2295 -0.3564 -0.1455
24842W        W45122  14.164  13.036   4.784  0.1790  0.1327 -0.2185
24843W        W45123   1.683   6.095  12.773 -0.2039  0.1264  0.2930
24844W        W45124  17.478  12.248   2.424  0.1502  0.0310 -0.1639
24845W        W45125   6.235   9.679   2.214  0.0860 -0.0936 -0.0274
24846W        W45126   6.679  15.163  14.082 -0.1543  0.0943 -0.0182
24847W        W45127  11.298   0.691  14.647  0.0058  0.1328  0.1174
24848W        W45128   8.820   5.261  12.606  0.0940 -0.3065  0.0450
24849W        W45129   3.000  10.249  14.291 -0.2795 -0.1690 -0.2433
24850W        W45130  16.705   2.409   1.021 -0.0219 -0.1042 -0.0142
24851W        W45131   1.724   3.962   3.190 -0.0059 -0.0759 -0.0524
24852W        W45132   6.949  12.321   1.018  0.0826  0.2582 -0.1624
24853W        W45133   7.900  12.134  11.990 -0.0825  0.1288 -0.1926
24854W        W45134  15.219  14.238  13.253 -0.1257  0.0898 -0.0159
24855W        W45135  11.191  14.380   2.613 -0.0287  0.0266  0.1111
24856W        W45136  12.612   6.748  12.049 -0.1824 -0.0732  0.0555
24857W        W45137   7.242  10.284  14.648  0.2538  0.0685  0.0667
24858W        W45138   8.421   3.470  14.765  0.0205 -0.1334 -0.0508
24859W        W45139  10.780   0.694  14.816  0.4884 -0.4293 -0.2267
24860W        W45140   3.434  11.588   3.238 -0.1742  0.2107  0.2609
24861W        W45141   8.000  10.657   3.416  0.0990  0.0345 -0.0550
24862W        W45142   3.797  12.906   3.537  0.0105  0.0659  0.0945
24863W        W45143   9.369   8.955   2.395  0.0195 -0.1401 -0.0267
24864W        W45144   9.722  13.559  12.650  0.0576 -0.1426  0.0616
24865W        W45145  16.045  12.632   4.854 -0.0743  0.1151 -0.2271
24866W        W45146   3.647  13.999  16.293 -0.1726 -0.2439 -0.0704
24867W        W45147  14.467  12.915   0.259  0.0760 -0.0063  0.1523
24868W        W45148  12.029   7.415  13.798 -0.3878  0.1234  0.2229
24869W        W45149   5.096  14.168   0.409  0.0769  0.0435 -0.0399
24870W        W45150   2.894  16.898   2.997  0.1809  0.0358  0.1853
24871W        W45151  14.621   8.190   4.893 -0.1958 -0.1223 -0.0070
24872W        W45152   3.630  15.305   2.712 -0.0183 -0.1656 -0.3227
24873W        W45153   1.350   0.898   3.013  0.0753  0.0513 -0.0391
24874W        W45154   7.138  10.643  12.424  0.2992  0.0136 -0.1133
24875W        W45155  11.746  10.673   0.160  0.0388 -0.4573 -0.0146
24876W        W45156   5.882   0.183  16.187  0.0669 -0.1822 -0.1438
24877W        W45157   1.468  16.451   2.324  0.0268  0.3196 -0.0248
24878W        W45158   7.051  13.427   0.212 -0.2015  0.0851  0.1089
24879W        W45159   6.834  10.309  16.033  0.0173  0.0414 -0.0656
24880W        W45160  15.970   1.744  12.431 -0.0188  0.0433  0.0270
24881W        W45161  14.185   4.932  13.026  0.0105 -0.2996  0.0356
24882W        W45162   1.583   3.235   4.336 -0.2169  0.1141  0.0082
24883W        W45163  13.145   1.438   2.076  0.2270  0.0926  0.2382
24884W        W45164  14.077   6.469   3.450  0.0589  0.0011  0.0742
24885W        W45165   0.695  15.748  16.286  0.1259  0.2558  0.0277
24886W        W45166   4.084   7.301   1.601  0.1350  0.1353 -0.3981
24887W        W45167   7.437  17.711   1.179 -0.0081 -0.0264 -0.2390
24888W        W45168  13.728   3.202   1.500 -0.1385  0.1182 -0.1937
24889W        W45169   7.840  16.971   3.888 -0.2045  0.0061  0.1087
24890W        W45170  16.080   6.678   4.517 -0.0341  0.0717  0.2771
24891W        W45171   8.450  16.713   2.088 -0.1309 -0.2406 -0.0027
24892W        W45172  15.355  13.534   1.640 -0.1146  0.1600  0.0205
24893W        W45173  10.687   2.092   4.605 -0.2699 -0.2504  0.1162
24894W        W45174  10.766   2.079  16.107  0.0707  0.1220  0.0560
24895W        W45175  10.046   4.427   2.930 -0.1381 -0.2145 -0.0992
24896W        W45176   1.058  10.975   4.074 -0.3896 -0.0252  0.1908
24897W        W45177   9.855  15.004  16.278  0.1248  0.1770  0.5456
24898W        W45178  17.531   4.863   1.298  0.2193 -0.1968 -0.0343
24899W        W45179  12.755  11.550  16.773 -0.0058  0.1791 -0.1612
24900W        W45180  15.402  13.733   3.975 -0.2738  0.0722  0.0311
24901W        W45181   2.036  13.155  13.348  0.1720  0.2615  0.0380
24902W        W45182  10.159  14.045   4.864  0.0530  0.2497 -0.2878
24903W        W45183  14.847  11.104   2.798 -0.1827 -0.0399 -0.2840
24904W        W45184  12.861   6.514  16.864  0.2586 -0.1803  0.1055
24905W        W45185  13.130   4.276   3.267  0.2219  0.1738 -0.3521
24906W        W45186  16.811  16.544  14.703  0.0399 -0.0861 -0.0651
24907W        W45187   4.667   4.155   0.455  0.1218 -0.2303 -0.2296
24908W        W45188   5.289  12.805   4.902 -0.0815 -0.1200  0.0004
24909W        W45189  13.889   1.761   1.123 -0.0698  0.0693 -0.2044
24910W        W45190  10.932  12.344   2.136  0.0465  0.1343  0.2937
24911W        W45191   0.328  12.064   0.066 -0.2535 -0.0268 -0.0543
24912W        W45192  11.819  12.490   4.204  0.3875  0.2438  0.1977
24913W        W45193  17.573  12.690  12.425 -0.0306 -0.1125  0.1651
24914W        W45194   9.953   2.589   4.934 -0.2068  0.0032  0.0663
24915W        W45195   6.231   5.150   1.526  0.0021 -0.1746 -0.0089
24916W        W45196  16.528   7.307   2.196 -0.0441  0.0526 -0.0973
24917W        W45197   3.950   3.801  14.189  0.1977  0.0708 -0.2793
24918W        W45198   1.387   2.821  14.387  0.0220  0.0819  0.0387
24919W        W45199   1.298  10.377   0.400  0.1768 -0.0040  0.0372
24920W        W45200   9.148  16.839  13.198  0.3060 -0.0523 -0.1607
24921W        W45201   2.476   7.617  13.423 -0.2657 -0.1211 -0.0337
24922W        W45202   6.145  16.206  13.797  0.0057 -0.0832 -0.2084
24923W        W45203   9.822  16.560   3.038 -0.0853  0.1175 -0.0536
24924W        W45204  14.112   1.603  16.000  0.1945  0.4399  0.1280
24925W        W45205   2.003  16.144   0.724 -0.0867  0.1081 -0.1255
24926W        W45206   8.399   7.782   0.183 -0.0069  0.0768  0.1630
24927W        W45207   9.144  11.978  15.129  0.0201  0.0034  0.0766
24928W        W45208  10.445  17.505  15.320 -0.1031  0.1563 -0.1037
24929W        W45209  13.710  17.523   4.353 -0.1642  0.0818  0.2022
24930W        W45210  10.785   4.746  14.302 -0.0342 -0.1503 -0.1724
24931W        W45211   0.768  15.818   3.601 -0.2274  0.1417 -0.0983
24932W        W45212   8.877   1.580   0.538  0.0182  0.1668  0.2085
24933W        W45213   4.466  13.093  12.431  0.1340 -0.2431 -0.1991
24934W        W45214   3.584   7.255   0.561  0.1183 -0.1888 -0.0229
24935W        W45215  14.995  12.843  12.477  0.3333  0.0167  0.1055
24936W        W45216   2.865   8.829   0.809  0.1505 -0.0763 -0.0126
24937W        W45217  13.860  14.846  13.069 -0.4080 -0.0615  0.1624
24938W        W45218   2.379   6.426   1.337  0.2474  0.0882 -0.2373
24939W        W45219  14.533   3.783  14.883  0.0643  0.1033 -0.2389
24940W        W45220  10.164  13.064   3.664 -0.1804  0.1370 -0.1063
24941W        W45221   2.697  10.396  13.876  0.1661  0.2022 -0.0987
24942W        W45222  16.659  12.381   0.933 -0.0267 -0.2713 -0.1680
24943W        W45223   6.121  16.788  12.753 -0.2243 -0.1667 -0.2459
24944W        W45224   3.409  10.398   3.307  0.2409  0.2307  0.2931
24945W        W45225  17.737  11.816  12.162  0.1095 -0.1078  0.3819
24946W        W45226   8.811   2.903  12.925  0.1716 -0.0228  0.2065
24947W        W45227  12.604  11.120   2.040 -0.1926 -0.1189  0.1939
24948W        W45228  17.310  15.686  16.499  0.1115  0.0224 -0.0054
24949W        W45229   7.409  12.726  14.281  0.1574  0.0875  0.1658
24950W        W45230   0.040   9.638  16.115 -0.1293 -0.0854 -0.0210
24951W        W45231   0.237  10.600   3.495 -0.1453  0.0097  0.2007
24952W        W45232   9.451  16.212  14.601  0.1396  0.0691  0.0043
24953W        W45233  17.709   2.814  13.789 -0.0445 -0.0262 -0.0890
24954W        W45234   3.510   9.678   1.464  0.1347  0.1636  0.1184
24955W        W45235  16.567   2.409  12.588  0.0060  0.0024 -0.2268
24956W        W45236   8.287   0.389  16.403  0.0504  0.0859  0.0176
24957W        W45237   7.228  15.410  16.532  0.0474  0.1203  0.3199
24958W        W45238   1.997  15.160   4.140 -0.1900 -0.1702  0.1790
24959W        W45239  16.535   7.397  12.075 -0.0262 -0.0828 -0.1062
24960W        W45240   5.412   5.450   4.093 -0.1783 -0.0396  0.2257
24961W        W45241   9.543  12.280   3.721 -0.1055  0.1643 -0.3310
24962W        W45242  17.682  16.760  13.990  0.2716  0.0148  0.0402
24963W        W45243   7.073   6.138   3.658 -0.1638  0.2019 -0.0344
24964W        W45244  12.643   6.625   4.272 -0.1296 -0.1506 -0.0352
24965W        W45245   3.074   2.326  13.545  0.1455 -0.1509 -0.0782
24966W        W45246   4.724   5.674  14.836 -0.1161  0.1302 -0.0162
24967W        W45247   2.478   5.783   2.001 -0.2666 -0.0182 -0.1169
24968W        W45248  16.702   8.928   2.396 -0.0785  0.1323  0.1908
24969W        W45249   9.295  11.693  15.495  0.0770 -0.0070  0.0885
24970W        W45250   9.497   1.217  13.226  0.1872 -0.2430  0.0769
24971W        W45251   9.517   7.304  13.816 -0.2274  0.1141 -0.0642
24972W        W45252  14.152   8.839   4.099 -0.4181 -0.1394 -0.0740
24973W        W45253   0.021   1.359  15.670 -0.0840 -0.0116 -0.1806
24974W        W45254  12.698  12.644  13.315 -0.1637 -0.2846  0.1669
24975W        W45255   1.912   5.214  15.799  0.3417 -0.0682 -0.0258
24976W        W45256   5.092   8.792  12.647 -0.1383  0.2717  0.0527
24977W        W45257  11.928   5.691  14.419 -0.2249 -0.0481  0.0941
24978W        W45258   0.380  13.757   3.399 -0.0281 -0.2322 -0.0196
24979W        W45259   3.776   8.786   0.459 -0.2069 -0.1002  0.1362
24980W        W45260   6.019  15.491  15.089 -0.0895 -0.3541 -0.2608
24981W        W45261   2.295   2.483  13.323 -0.4418 -0.0914 -0.0365
24982W        W45262  11.297   3.313  14.392 -0.2310 -0.2003 -0.2234
24983W        W45263  13.190   5.812   2.413  0.3894 -0.1865  0.1545
24984W        W45264  11.722  15.352   4.920  0.3514  0.0405 -0.3111
24985W        W45265   9.461   4.360   3.816  0.0442 -0.0901 -0.0610
24986W        W45266   5.193  14.144   1.569  0.1445  0.0634  0.0407
24987W        W45267   5.033  10.696  13.853  0.3180 -0.1274 -0.5205
24988W        W45268   7.442   0.844  16.498  0.1518 -0.0432 -0.2883
24989W        W45269  17.060   1.381   1.226 -0.2045  0.1111  0.2395
24990W        W45270   8.891  16.590   3.987  0.1916  0.0818  0.1533
24991W        W45271  15.074  12.511   3.681  0.1198 -0.0576  0.0394
24992W        W45272  17.216  14.887   0.587  0.1109  0.0350 -0.1316
24993W        W45273   4.348  16.222   0.741 -0.2999  0.0763 -0.0763
24994W        W45274   8.592  16.310   0.818 -0.0283  0.0319 -0.0861
24995W        W45275   4.570   5.900   0.592 -0.0731 -0.0320  0.0262
24996W        W45276   4.157   8.716  12.575 -0.4250 -0.0007 -0.0516
24997W        W45277  17.228   8.462   0.491 -0.0245  0.1120 -0.0025
24998W        W45278   6.420   0.543  12.736 -0.0883  0.0350  0.1946
24999W        W45279  10.092   9.554   4.896 -0.2427  0.2910 -0.4166
25000W        W45280   7.386   8.820   1.903  0.3542 -0.0976 -0.0370
25001W        W45281  12.375   6.929   0.746 -0.1134  0.0270  0.1009
25002W        W45282  14.263   4.613  16.094 -0.2770  0.0909  0.1707
25003W        W45283   7.536   0.679  13.528 -0.0230 -0.2397  0.3059
25004W        W45284  15.173  15.278  13.754  0.0281 -0.0158  0.1634
25005W        W45285   3.222   2.504  12.114 -0.3534 -0.1771 -0.0392
25006W        W45286   2.728  13.040  12.355  0.0428  0.0811 -0.0138
25007W        W45287   2.617  12.726   4.219 -0.1328 -0.2169 -0.0308
25008W        W45288   5.639   6.582   0.369  0.0118  0.3567  0.0352
25009W        W45289   5.580  16.997  14.808 -0.1524 -0.2994  0.0122
25010W        W45290   7.741   2.884  13.817  0.0986  0.0136  0.3686
25011W        W45291   0.178  15.465   1.427 -0.0636  0.1427  0.2657
25012W        W45292  17.148  12.485   5.035 -0.0607 -0.2899 -0.1571
25013W        W45293   9.110   5.164   1.155  0.0861  0.2688  0.2109
25014W        W45294   7.356   4.752   3.131 -0.0148  0.0992  0.1146
25015W        W45295   0.358   3.079  15.285  0.1531 -0.2997  0.3135
25016W        W45296   6.052   5.206  14.614  0.1577  0.2237 -0.0938
25017W        W45297  12.404  14.485  16.614  0.0245 -0.0843  0.0432
25018W        W45298   2.026   3.992  14.366  0.0527 -0.0141  0.5626
25019W        W45299   2.890  13.911   4.869 -0.2122  0.1160 -0.0046
25020W        W45300  12.886  10.870  12.139 -0.1705  0.0949  0.0123
25021W        W45301   3.144  17.494  12.781 -0.1697  0.0774 -0.1853
25022W        W45302  14.721   0.681  12.800  0.0675  0.0867 -0.2005
25023W        W45303  13.978   7.836   3.830  0.2532 -0.0703  0.0940
25024W        W45304   3.553   2.075   3.533  0.4032  0.1639  0.5448
25025W        W45305  17.582  13.455   1.008  0.1245 -0.3356  0.0814
25026W        W45306  10.440   9.750   3.974 -0.1741  0.0152 -0.4991
25027W        W45307   5.362   1.824   1.313 -0.1779  0.1091 -0.0867
25028W        W45308   9.823  12.708   3.390 -0.0663 -0.1831  0.0885
25029W        W45309  12.128   0.512  15.419  0.0008  0.1154 -0.2829
25030W        W45310  14.850  11.423  12.494 -0.0855  0.3239 -0.1816
25031W        W45311   3.044   0.307   1.742  0.4566  0.1031  0.0394
25032W        W45312  15.002   7.039  15.830  0.1821  0.0739  0.2341
25033W        W45313   2.054  14.988   5.218 -0.1764  0.4931 -0.0485
25034W        W45314  12.615  15.826   3.863  0.2161 -0.1212  0.1002
25035W        W45315  16.612   3.494  13.836 -0.1846  0.1641  0.2210
25036W        W45316  15.445   7.873  13.760  0.0401 -0.1236 -0.2594
25037W        W45317   7.115   0.644  13.874 -0.1855 -0.4531 -0.3417
25038W        W45318  14.286  10.760  13.622 -0.0667  0.0873 -0.0887
25039W        W45319  12.439   9.500   0.034 -0.1196 -0.2044 -0.1342
25040W        W45320   3.073   3.430   0.206 -0.1226  0.0732 -0.1601
25041W        W45321  14.072   8.979  15.859 -0.0322  0.1677  0.1435
25042W        W45322   7.974   7.739   3.808  0.1063  0.2071  0.0594
25043W        W45323  12.129   7.797   3.936  0.0230  0.0297  0.0499
25044W        W45324   5.373   7.342  13.221  0.0945 -0.0048  0.0944
25045W        W45325   8.409  12.460  15.630  0.1539 -0.2470 -0.0751
25046W        W45326  12.508   9.366  14.988  0.0373  0.0857 -0.0481
25047W        W45327   8.514   2.481   1.177  0.5308  0.2702 -0.1459
25048W        W45328  10.341   6.134   3.499  0.2035  0.1935 -0.1021
25049W        W45329   0.269  15.168  12.298 -0.1221 -0.0474 -0.1991
25050W        W45330  14.715   3.869   4.121 -0.1233  0.0574  0.2005
25051W        W45331   9.381   0.158   3.836  0.1478 -0.2392 -0.1127
25052W        W45332  12.070  11.877   1.523  0.0484  0.2199  0.1758
25053W        W45333   1.713  13.367  13.712 -0.4311  0.0465  0.0770
25054W        W45334  17.555  15.158   4.686  0.1743 -0.1959  0.2930
25055W        W45335   5.845  15.639   2.624  0.0920 -0.1416  0.0744
25056W        W45336  16.196   0.862   3.039 -0.0443 -0.0057  0.0848
25057W        W45337  12.954   2.075   2.989 -0.3163 -0.0948  0.1308
25058W        W45338   6.718  12.654  16.532  0.0174 -0.0259  0.1309
25059W        W45339   3.577   1.662  14.169  0.1570 -0.2542 -0.2632
25060W        W45340  14.304   5.211  14.297  0.1720 -0.1501  0.2430
25061W        W45341   2.036  12.482  12.273  0.1447  0.1256 -0.1324
25062W        W45342  13.045   0.998   2.935 -0.2806 -0.3309 -0.2653
25063W        W45343   2.508   5.148   1.281 -0.1019  0.1845  0.0021
25064W        W45344  10.862   2.436   0.924  0.0504 -0.2404 -0.2303
25065W        W45345   5.367   1.738   5.215 -0.1656 -0.2216  0.1042
25066W        W45346  16.679  16.322  12.632  0.2747 -0.0083 -0.0884
25067W        W45347   2.016   5.267   1.527 -0.0342  0.0023  0.1203
25068W        W45348  10.179   5.490  15.710  0.0156 -0.3973 -0.1970
25069W        W45349   0.701  10.805  15.083  0.0293  0.0269  0.0806
25070W        W45350  10.841  10.450   0.451 -0.2735 -0.0976 -0.2188
25071W        W45351   3.746   6.691  12.348 -0.1443  0.1720 -0.1627
25072W        W45352   2.645   6.651  14.443  0.0211  0.0168 -0.0226
25073W        W45353  13.504   2.878  14.337  0.1707 -0.2154  0.2521
25074W        W45354   5.233  11.803  12.293  0.5293 -0.4043  0.0511
25075W        W45355  14.844  16.466  16.671 -0.0486 -0.1913  0.0154
25076W        W45356  16.178   2.069   2.508  0.4482 -0.0851 -0.1521
25077W        W45357   4.191   6.344  15.736 -0.0689  0.3967 -0.1283
25078W        W45358   1.665   4.354   2.177  0.2054 -0.3371 -0.0314
25079W        W45359   7.492  17.047  16.073  0.1369 -0.1490 -0.2397
25080W        W45360  17.302   2.743   1.239  0.0169  0.2265 -0.2901
25081W        W45361  11.402   8.014  13.379  0.1959 -0.1876  0.2249
25082W        W45362  15.776  10.276  15.686  0.1158  0.1975 -0.0174
25083W        W45363   9.313   3.270   2.642 -0.2421  0.0124  0.1399
25084W        W45364   1.915  12.706  13.027 -0.2021  0.3866  0.0713
25085W        W45365   9.167   1.706  12.463  0.1959 -0.0678  0.0149
25086W        W45366   1.715   5.555  12.659 -0.0129 -0.1670  0.1155
25087W        W45367   2.331  16.180   1.399  0.0020 -0.2927  0.1975
25088W        W45368  14.552  10.329  13.550 -0.0883  0.1348 -0.0425
25089W        W45369   4.770   6.039   1.922 -0.0482  0.2920 -0.0715
25090W        W45370  11.190   8.505  16.445  0.1689  0.0651  0.1593
25091W        W45371  13.606   9.632  12.865 -0.3657  0.2218  0.0640
25092W        W45372  15.133  16.916  13.259 -0.0914  0.6635 -0.0237
25093W        W45373   3.222   5.026   1.944  0.0639 -0.3887  0.0990
25094W        W45374   1.556   7.255   4.317  0.2667  0.0298 -0.2464
25095W        W45375   2.027  11.924   1.354 -0.1825 -0.1674 -0.1188
25096W        W45376  14.404   0.843   5.038 -0.3414  0.1804  0.0591
25097W        W45377   6.350   5.960   1.141 -0.0196  0.2342 -0.0879
25098W        W45378  14.703   8.438   0.740 -0.2964  0.0536  0.1726
25099W        W45379   8.277   2.860   4.359  0.0048  0.3332 -0.1372
25100W        W45380   8.225   2.423   2.071 -0.0483 -0.0149 -0.2000
25101W        W45381   7.133   4.725  15.120 -0.1023 -0.0623  0.0393
25102W        W45382   0.067   8.312   1.728 -0.0318  0.1311 -0.0202
25103W        W45383  16.909  13.670   1.300  0.3103 -0.3634 -0.0202
25104W        W45384   4.808   3.421  15.755 -0.3138 -0.2258  0.2227
25105W        W45385  16.927  15.887   4.957 -0.2020 -0.0862 -0.3840
25106W        W45386   1.114  15.642   5.081  0.2368 -0.3985 -0.3032
25107W        W45387  17.001  12.188  16.000 -0.0605  0.0403 -0.1745
25108W        W45388   4.812   6.859   3.689  0.1130 -0.3186 -0.4874
25109W        W45389   7.870   9.029  15.929  0.1808  0.0935 -0.1579
25110W        W45390   5.416   7.276  14.441 -0.2892 -0.5064 -0.0625
25111W        W45391   8.313   0.970   0.525 -0.1467  0.0784  0.1199
25112W        W45392   4.686  14.829   1.762  0.1643 -0.2366  0.1173
25113W        W45393  17.682   9.248   4.221 -0.1984 -0.0985 -0.3302
25114W        W45394  11.061   6.536   2.888 -0.2452  0.0721 -0.0665
25115W        W45395   7.365   1.612  14.180 -0.2230 -0.1128  0.1443
25116W        W45396  11.260  15.208   2.892  0.3326 -0.1269 -0.0594
25117W        W45397   7.016  14.001  12.511 -0.2346 -0.1609  0.0387
25118W        W45398   2.810  15.525   3.184  0.1308 -0.1815  0.2882
25119W        W45399   7.229   5.371   2.015  0.0245  0.2895 -0.2004
25120W        W45400   3.283   4.196   1.182  0.1081 -0.1407 -0.4038
25121W        W45401  15.561  17.159   0.192 -0.1875 -0.1715 -0.0268
25122W        W45402  16.269   8.382  13.986  0.0209 -0.0689  0.1023
25123W        W45403  14.504   3.360  15.197  0.0631  0.2331 -0.2803
25124W        W45404  15.230  12.235   5.942 -0.2115  0.1478  0.0723
25125W        W45405  13.758   1.988  13.835  0.6864 -0.2085 -0.1724
25126W        W45406  13.277  11.427   2.355 -0.0278 -0.0100  0.2560
25127W        W45407  17.105  13.436   2.413  0.0211  0.1121  0.0254
25128W        W45408   9.825  13.640  15.674  0.2378  0.0835 -0.2151
25129W        W45409   2.208   2.717   0.149 -0.4405 -0.1451  0.2709
25130W        W45410   5.747  15.263   2.293  0.3661 -0.1455  0.1753
25131W        W45411   0.309   2.707   0.542  0.2873 -0.0690 -0.2972
25132W        W45412  12.794  13.230   4.461  0.0999  0.0620 -0.2178
25133W        W45413   5.152   8.225   1.784  0.0630  0.0076 -0.1796
25134W        W45414   1.776   9.419   2.217  0.1330 -0.0557 -0.0002
25135W        W45415  14.647   4.963   1.031  0.0089  0.0101 -0.4001
25136W        W45416   8.180  17.109   3.527 -0.0553 -0.1394  0.0357
25137W        W45417  15.705   3.115   3.879  0.1114 -0.0055  0.0006
25138W        W45418  17.340  11.489  12.218  0.1111  0.0841  0.0945
25139W        W45419   5.372  17.375  15.739 -0.0531 -0.0540 -0.0680
25140W        W45420  10.363  10.819  13.668 -0.1725  0.0215 -0.0589
25141W        W45421  14.344   3.869   3.805 -0.4837 -0.1886  0.2984
25142W        W45422   9.378  13.529   1.157  0.0979  0.0293 -0.0485
25143W        W45423   3.413   2.960  15.515 -0.1133 -0.2122  0.1097
25144W        W45424   7.869   9.437  15.626 -0.1484  0.0606  0.0798
25145W        W45425   7.521  13.173  13.412 -0.1274  0.1408 -0.1059
25146W        W45426   6.411  17.528  15.414  0.1204 -0.1791  0.3608
25147W        W45427  11.425   4.749  16.182 -0.1593 -0.0689  0.1278
25148W        W45428   2.975   0.842   4.992  0.0293 -0.1564 -0.0356
25149W        W45429  17.413   9.921  13.712  0.3431 -0.0954 -0.0222
25150W        W45430   4.332   8.960  15.085  0.1849  0.0923 -0.0207
25151W        W45431  16.603  17.345   5.090  0.0687  0.2122 -0.0249
25152W        W45432  13.758  15.102   3.997 -0.1536 -0.4153 -0.1127
25153W        W45433   7.316  10.954   4.332  0.3241  0.2313  0.1180
25154W        W45434   8.150  11.392   2.378  0.2946 -0.2680  0.1689
25155W        W45435   1.494   5.922  14.642  0.2837  0.0226  0.0572
25156W        W45436   3.653   9.326   1.836 -0.1424  0.0965  0.3714
25157W        W45437   7.338  16.858   4.029 -0.1009 -0.0366 -0.0276
25158W        W45438  12.775  14.768   5.094  0.2403 -0.0641  0.0914
25159W        W45439   2.498  10.710  12.251  0.1621  0.1013  0.3870
25160W        W45440   3.924  11.432  16.799 -0.1982  0.1248 -0.0060
25161W        W45441   3.563  12.272  16.409  0.0176  0.0283 -0.2191
25162W        W45442   5.475  15.108  12.492 -0.0535 -0.0309 -0.3982
25163W        W45443  12.890   4.616   2.657 -0.1633 -0.1825 -0.1222
25164W        W45444   5.269   9.404   1.118 -0.1847  0.2817  0.1763
25165W        W45445  12.293   0.098  16.390 -0.0820  0.1936 -0.0945
25166W        W45446   2.387   6.375  14.771 -0.0511  0.0579  0.0392
25167W        W45447   4.679   8.949   2.884  0.2229 -0.2823 -0.2240
25168W        W45448  15.082  13.853  15.313  0.0781  0.0584  0.0542
25169W        W45449  10.984  11.372  14.176 -0.0479 -0.1667 -0.0255
25170W        W45450   9.272  16.990   0.548  0.3881 -0.0337 -0.0996
25171W        W45451  10.153   0.560  13.912  0.1125 -0.2744  0.0006
25172W        W45452  16.479   0.343  14.486  0.1495 -0.0680  0.1868
25173W        W45453   6.440   3.831   3.813 -0.0189  0.0682 -0.0343
25174W        W45454  10.065  12.055   4.125  0.0854  0.2685 -0.4255
25175W        W45455   9.301   6.645   1.469 -0.3029  0.1002  0.0545
25176W        W45456  13.583   7.533  13.241 -0.0678 -0.2246  0.0845
25177W        W45457   1.627   3.742   4.357 -0.0724 -0.0070 -0.0035
25178W        W45458  10.487  14.149  14.113  0.0250  0.1507  0.3066
25179W        W45459   9.730  15.686  13.302 -0.1256 -0.1130  0.0021
25180W        W45460  13.196   0.965   2.350 -0.0850  0.0414 -0.2438
25181W        W45461   3.200  12.586  11.315 -0.1572 -0.2067 -0.1477
25182W        W45462  14.921   1.095   1.793  0.1216  0.0538 -0.4544
25183W        W45463  12.306  15.067   1.185  0.0773 -0.2955  0.1553
25184W        W45464   1.590   8.840  13.486 -0.1064 -0.1449 -0.0919
25185W        W45465  15.890  15.342  14.239  0.3874  0.2355 -0.1480
25186W        W45466  10.892   1.784  12.282 -0.1460  0.0031  0.0480
25187W        W45467   8.208   8.480  15.714 -0.1954  0.1428  0.2098
25188W        W45468   4.413   1.759   1.373  0.1931 -0.1881  0.0570
25189W        W45469  12.047   3.739  16.710  0.0800  0.0278  0.1049
25190W        W45470  13.836  11.164  12.283 -0.0456 -0.3309  0.1693
25191W        W45471  13.828  12.805   2.199  0.1635 -0.0785  0.1690
25192W        W45472   7.236  13.894   4.277  0.2657  0.0715  0.1876
25193W        W45473   1.325  16.535   1.634 -0.0678  0.3038  0.1003
25194W        W45474  12.224  14.881  12.632  0.1505 -0.1163 -0.0014
25195W        W45475   4.388   8.428  15.023 -0.0942 -0.0735  0.4017
25196W        W45476  12.015   4.866   3.847  0.0686  0.0463  0.0098
25197W        W45477   1.711  13.235  14.217 -0.0918  0.1093 -0.2893
25198W        W45478  13.223   1.107  12.154 -0.0965  0.2369 -0.3100
25199W        W45479  14.025   5.139   4.159 -0.0507  0.1467 -0.0177
25200W        W45480   7.687   8.919   1.009  0.0087  0.0265 -0.3440
25201W        W45481  16.161   4.928  12.213  0.0126  0.1032 -0.1791
25202W        W45482   2.055  15.822   5.261  0.1215 -0.1239  0.2802
25203W        W45483  16.664   4.787   5.941 -0.0176  0.0247 -0.0653
25204W        W45484  16.088   0.055  12.952  0.1696  0.1414 -0.0407
25205W        W45485   7.791   5.990  15.382  0.0613 -0.0426 -0.2082
25206W        W45486  13.558   6.154  14.334 -0.2542 -0.0432  0.0889
25207W        W45487  10.548  13.859  13.173  0.0483 -0.2094  0.1786
25208W        W45488  17.620   4.123  12.096  0.0036 -0.0639  0.1002
25209W        W45489  15.298   8.738   4.706 -0.0767  0.0044  0.3611
25210W        W45490  11.807   4.603  16.404 -0.4085  0.0063  0.1187
25211W        W45491   2.110   0.956  12.219 -0.1761 -0.1219 -0.4672
25212W        W45492   9.800   4.489  12.954  0.1079  0.4038 -0.1060
25213W        W45493   0.475   8.734   0.114  0.2720 -0.0434 -0.0704
25214W        W45494  17.673   9.428  16.623 -0.0778 -0.0331  0.1911
25215W        W45495   5.525  15.384   1.676 -0.0460  0.0269  0.1204
25216W        W45496  16.219   7.644  12.448  0.0409 -0.1623  0.0683
25217W        W45497  10.152   0.343   3.491 -0.0827 -0.0721  0.0091
25218W        W45498  13.418   1.560   4.263  0.1491 -0.1542 -0.1126
25219W        W45499   2.347   6.217  13.699 -0.1525 -0.0246 -0.0392
25220W        W45500   2.595   5.472  13.143 -0.0535  0.1993  0.0271
25221W        W45501   7.011   4.800   0.530  0.3785 -0.2012 -0.2592
25222W        W45502   2.826  16.805   4.820  0.0997 -0.2332  0.0854
25223W        W45503   9.544   8.515  12.376  0.0900  0.1970  0.2411
25224W        W45504   7.479  11.586   1.446 -0.1991  0.0099  0.2614
25225W        W45505   4.767  14.217  14.858 -0.2016  0.3431 -0.1099
25226W        W45506  13.244   1.952   2.127  0.1126  0.0792  0.2098
25227W        W45507  15.903  11.417  14.283 -0.0123  0.1737  0.2085
25228W        W45508   5.314  12.411  16.385 -0.2241 -0.0064  0.1964
25229W        W45509  10.891   4.928   4.828  0.1489 -0.0417 -0.2792
25230W        W45510  15.585   4.960  13.352 -0.0059 -0.2358  0.2104
25231W        W45511  11.302   0.269  13.260  0.3156  0.0378 -0.1614
25232W        W45512   4.426   9.735   4.637  0.0390  0.0043 -0.0419
25233W        W45513   0.821   9.194  16.629 -0.0324 -0.2504 -0.1913
25234W        W45514   0.095   7.670  13.300  0.0580 -0.1842 -0.2008
25235W        W45515  14.658  12.405  13.706  0.0910  0.0844 -0.1067
25236W        W45516  11.245   0.103   2.731  0.3590  0.2390  0.1032
25237W        W45517   2.358   9.644   2.980 -0.0177  0.1968 -0.0340
25238W        W45518   9.066  10.209   3.443  0.0369  0.1737 -0.0223
25239W        W45519  12.684   2.745   4.263 -0.1400  0.5883  0.0597
25240W        W45520  14.713   6.394   1.049  0.0064  0.0250 -0.0767
25241W        W45521   1.210  16.230   3.602  0.0675  0.0669 -0.2103
25242W        W45522  12.124   6.421   1.948  0.2024 -0.1305 -0.1326
25243W        W45523  13.615   4.776   1.200  0.1694  0.1452  0.2222
25244W        W45524  13.623  16.296   2.634  0.1531 -0.0058  0.1255
25245W        W45525   6.484   3.546  12.390 -0.4349 -0.0739 -0.0617
25246W        W45526  11.609   4.220   5.042 -0.3353 -0.0931 -0.0166
25247W        W45527  15.451  11.016  12.050 -0.4501  0.0830  0.1524
25248W        W45528  16.359  11.496   3.447 -0.1570 -0.2772 -0.2334
25249W        W45529   2.463  17.387   1.652  0.1009  0.0500  0.0924
25250W        W45530   0.491   2.960  13.372  0.1376  0.1072  0.1671
25251W        W45531  14.021   2.137  14.898  0.2183 -0.0715  0.2216
25252W        W45532   8.195   5.563   1.083 -0.0074 -0.3202  0.0463
25253W        W45533  12.746   6.741   4.983  0.0070 -0.0183 -0.0244
25254W        W45534   8.558  12.296   2.870  0.3842  0.0586 -0.0086
25255W        W45535   8.294   0.974   2.286  0.1089 -0.2519  0.0637
25256W        W45536   1.666   5.707   2.226  0.2511 -0.1011 -0.2618
25257W        W45537   2.113   2.767  12.867  0.0254  0.2839  0.1897
25258W        W45538   7.118  16.757   2.566  0.2465 -0.2130 -0.1873
25259W        W45539   0.770  15.020  12.561 -0.2139 -0.3673  0.0530
25260W        W45540  13.677   6.613   4.751  0.0337  0.0606 -0.2465
25261W        W45541   5.496   6.312  15.875  0.2195  0.2265  0.1156
25262W        W45542   3.413   7.365  14.666  0.0977 -0.1505  0.0456
25263W        W45543   2.792  15.720  14.882  0.1504  0.1944  0.1093
25264W        W45544  14.687   9.358   2.433  0.3468 -0.1736 -0.1629
25265W        W45545  16.387   7.838   0.461  0.0197 -0.0691  0.0388
25266W        W45546   7.824   8.981   0.000 -0.1399  0.3022  0.0883
25267W        W45547  10.181  15.032  15.851 -0.0979 -0.2076  0.1388
25268W        W45548   6.068   4.291  15.922 -0.0840 -0.1629 -0.0453
25269W        W45549  13.173   0.374   3.674  0.2147  0.0345 -0.1999
25270W        W45550  12.517  10.738  14.511  0.2368  0.0243  0.0488
25271W        W45551   5.684   5.532  15.344  0.0969  0.2268 -0.0555
25272W        W45552   6.524   3.416   2.138  0.0151 -0.2285 -0.0617
25273W        W45553  17.033  15.276   0.344 -0.3721 -0.1129  0.1416
25274W        W45554   5.128  13.356  16.540 -0.1632 -0.0037 -0.3341
25275W        W45555   3.650   6.830  15.224  0.0354  0.1013  0.0078
25276W        W45556   8.714   4.535   3.345  0.0369  0.1871 -0.1377
25277W        W45557   8.811   8.522   1.418  0.1805  0.1211  0.2678
25278W        W45558  12.966  15.790   2.013 -0.1290 -0.0858 -0.0121
25279W        W45559   9.503   8.632   5.766 -0.2286  0.0809  0.1136
25280W        W45560  16.333   3.111   4.586 -0.1581  0.1081 -0.0721
25281W        W45561   7.295   9.916   1.059 -0.1645 -0.0821 -0.1866
25282W        W45562   7.600   8.823  16.357  0.0766 -0.0172  0.2356
25283W        W45563   6.933   9.652   0.801 -0.2797  0.1026  0.0401
25284W        W45564   0.070   6.865   2.887 -0.1678  0.0295 -0.0327
25285W        W45565  13.262   4.414   2.072 -0.0647  0.1785  0.1039
25286W        W45566   4.759  17.228  13.860  0.4031 -0.1206  0.1630
25287W        W45567   9.834   3.157  13.658  0.0249 -0.2485 -0.1747
25288W        W45568   7.487   1.427   2.491  0.0378 -0.2120  0.0341
25289W        W45569   0.463  10.970   2.248  0.0469 -0.2181  0.0396
25290W        W45570   8.339   9.360  15.406 -0.1046 -0.1416  0.2782
25291W        W45571   6.567  11.458   1.902 -0.0491 -0.1955 -0.3131
25292W        W45572   8.199  12.305   1.473  0.0010  0.0205 -0.1553
25293W        W45573   9.271   3.141   1.781  0.1514  0.2286  0.0387
25294W        W45574   4.825   7.374  16.665 -0.1713 -0.2181  0.0343
25295W        W45575   1.098  17.274  13.405  0.0576  0.0263  0.0975
25296W        W45576   6.456   6.732  16.695  0.0835 -0.1101  0.0922
25297W        W45577  17.275  14.750   4.927 -0.2395  0.2839 -0.0673
25298W        W45578  14.281  13.316   0.902 -0.1525  0.0106 -0.1269
25299W        W45579  14.894   1.082   3.418  0.0164  0.1325  0.2266
25300W        W45580   6.404   3.520  14.323  0.1575  0.0006 -0.0234
25301W        W45581  14.107  17.468   4.863  0.4165  0.1772 -0.0456
25302W        W45582  14.921  15.887   0.345 -0.0918  0.3374  0.0660
25303W        W45583  15.895   3.864   4.355 -0.2259  0.2135 -0.1352
25304W        W45584   6.602  11.794  13.746 -0.0960  0.1262 -0.1010
25305W        W45585  16.247  11.382  16.815  0.0338  0.3845 -0.0920
25306W        W45586  14.878  16.063  16.332 -0.0368  0.1186  0.0278
25307W        W45587  13.477  16.355   3.863  0.0133 -0.2212 -0.2571
25308W        W45588   8.196  11.938  13.373  0.1146 -0.5210 -0.2937
25309W        W45589   0.426   0.688   1.451  0.0799 -0.1549 -0.1749
25310W        W45590  17.582  10.488   3.754 -0.0498  0.1818  0.0981
25311W        W45591  16.921   6.275   1.057  0.0788  0.1199 -0.0234
25312W        W45592   6.824   4.583   3.929  0.1508  0.0619  0.0580
25313W        W45593   5.742   4.945   2.908  0.0399  0.0171  0.2621
25314W        W45594   3.778   4.113  13.401 -0.4782  0.0369  0.0513
25315W        W45595   6.048   5.176   0.310  0.3138  0.0341  0.1515
25316W        W45596   3.644   9.468   3.252  0.1115  0.1135 -0.1601
25317W        W45597  14.836   1.296  14.267 -0.1058 -0.1753  0.3275
25318W        W45598  10.715   9.624   2.972 -0.0898  0.0071  0.1499
25319W        W45599   7.180   8.986  14.701 -0.0398  0.0737  0.0592
25320W        W45600   0.250   5.293  14.136 -0.2304  0.0659 -0.1851
25321W        W45601   5.569  16.922  16.759  0.0342 -0.2723  0.0063
25322W        W45602   0.655   0.578  12.512  0.0645 -0.0365 -0.0068
25323W        W45603  15.686   2.599  15.539 -0.0073 -0.1427 -0.1445
25324W        W45604  16.554   3.984   0.417  0.1147 -0.2499 -0.0080
25325W        W45605  14.748  10.229  15.112 -0.2034 -0.0567 -0.1702
25326W        W45606  11.056   8.070  13.046 -0.0564 -0.0460  0.4639
25327W        W45607   3.662  11.295   2.446 -0.1200 -0.0450 -0.5650
25328W        W45608  10.376  12.939  13.729 -0.3587 -0.3938 -0.2680
25329W        W45609   0.029   3.687   4.624  0.0899 -0.1318  0.2000
25330W        W45610   7.927  15.746  14.062  0.0053 -0.0576  0.1634
25331W        W45611  14.092  12.283  16.696  0.2410  0.0234  0.1356
25332W        W45612   5.778   7.021   3.098  0.1540  0.0447  0.2788
25333W        W45613  11.930   9.175   2.098 -0.0602 -0.1800 -0.1125
25334W        W45614   2.841   3.849  14.799  0.0021 -0.3799  0.1416
25335W        W45615   8.845   1.178   4.760 -0.3553  0.2901  0.0854
25336W        W45616  13.931   4.471  13.232 -0.1246 -0.0441 -0.0937
25337W        W45617  14.048  10.356  13.326  0.2374 -0.1624 -0.0875
25338W        W45618   7.654   1.582  15.408 -0.0667 -0.0452 -0.3341
25339W        W45619  11.940   9.170   0.539 -0.0111  0.1157 -0.2585
25340W        W45620   8.036  16.961   1.322  0.2559  0.0183 -0.3767
25341W        W45621   5.649   9.727  14.974  0.0950 -0.2167 -0.3126
25342W        W45622   2.387   2.012  15.182 -0.3164 -0.1829  0.1692
25343W        W45623  16.067   8.838  14.556 -0.2277 -0.1280  0.2544
25344W        W45624   9.682   4.797  12.473  0.0658  0.1758  0.0365
25345W        W45625   8.286   8.478  16.587  0.4050 -0.1645  0.0514
25346W        W45626  10.438  13.366   0.508 -0.1080 -0.2685  0.1989
25347W        W45627   3.915  10.774   1.099 -0.0666  0.0849 -0.2944
25348W        W45628   6.514  12.287   1.939  0.3502 -0.3061  0.0618
25349W        W45629  16.029  12.000  16.756 -0.1949  0.2833  0.2513
25350W        W45630  11.371   2.566  16.555 -0.1763  0.0023  0.1969
25351W        W45631   7.950  10.630   1.138 -0.0870  0.2904 -0.3049
25352W        W45632   9.373   0.700   1.470  0.2518 -0.2863 -0.3553
25353W        W45633  12.030  15.829  15.267 -0.0678  0.0924 -0.1564
25354W        W45634   6.277  13.328   4.618  0.3438 -0.0705  0.1214
25355W        W45635   7.037  13.409   3.682  0.0390  0.2493 -0.2930
25356W        W45636   5.102  15.433  15.545 -0.1117  0.0671  0.3220
25357W        W45637   5.897   2.276  14.578 -0.1325 -0.0725  0.1369
25358W        W45638  10.141   2.024   2.820  0.1838 -0.1443 -0.0588
25359W        W45639   1.533   7.302   0.144  0.0381 -0.0173  0.2684
25360W        W45640   5.694  12.631   3.814 -0.1205  0.1030  0.0039
25361W        W45641   3.316  11.297   1.094 -0.0903  0.1892  0.0259
25362W        W45642  14.684   5.351   3.351 -0.0170  0.0249 -0.1038
25363W        W45643  16.448   2.612   0.539 -0.0394  0.0262  0.1349
25364W        W45644   7.055   1.430   4.573 -0.2438  0.1172  0.2510
25365W        W45645  12.567  16.742   0.986  0.0495  0.1196 -0.0351
25366W        W45646  17.510  11.899  12.636 -0.2375 -0.0388  0.1521
25367W        W45647  17.669  17.134  14.822  0.1072  0.1667  0.1395
25368W        W45648   2.970   5.595   1.448 -0.3205  0.0353 -0.0691
25369W        W45649  11.680   0.767  13.044 -0.0065  0.0875  0.0338
25370W        W45650  13.450   2.883   2.357  0.0324 -0.0466 -0.2292
25371W        W45651   2.683   1.318  14.865  0.0011 -0.2648  0.1597
25372W        W45652   4.015   5.339   3.410  0.0260 -0.0718  0.0271
25373W        W45653  15.547   4.139   2.950  0.0161 -0.2127 -0.0224
25374W        W45654   1.709   0.734   1.703 -0.0446  0.0296  0.1093
25375W        W45655   4.220   0.336   0.923 -0.2467  0.2211  0.1391
25376W        W45656  11.531   6.631   2.936  0.0346  0.0709 -0.0384
25377W        W45657  16.046   4.192   4.769  0.1132  0.2615 -0.0677
25378W        W45658   1.741   6.700   0.853  0.0215 -0.0370  0.0396
25379W        W45659  16.658  14.449   2.548  0.3519 -0.2183 -0.1881
25380W        W45660   0.682   1.634  13.804  0.0443 -0.0643  0.2959
25381W        W45661  16.433   8.500  14.738  0.0004 -0.0995  0.4067
25382W        W45662   1.528  13.405   1.595  0.0369 -0.0450 -0.1073
25383W        W45663   2.071   9.738  12.187  0.0030 -0.2663 -0.0977
25384W        W45664   1.891  10.335  16.583 -0.0952  0.0698  0.2560
25385W        W45665   3.211  16.032  12.101 -0.2874 -0.3327  0.1249
25386W        W45666  12.548  15.139   3.143 -0.2747  0.0503  0.0112
25387W        W45667   8.915  13.912  14.203  0.1195  0.2802 -0.1271
25388W        W45668  16.314  15.279   1.471  0.1321 -0.0695  0.0078
25389W        W45669   1.519   0.361   4.395  0.3954 -0.0760 -0.1587
25390W        W45670   4.160  16.876  13.593 -0.2194 -0.0554 -0.0397
25391W        W45671  12.771   0.421   0.360  0.2399  0.1946  0.0819
25392W        W45672   5.867  11.025   0.799  0.1836 -0.1721 -0.1166
25393W        W45673   1.071  17.252  16.676  0.1332  0.0705 -0.0338
25394W        W45674   8.714  14.367  14.284 -0.0510  0.0845 -0.0878
25395W        W45675  11.040   2.927  16.472 -0.1516 -0.6110 -0.0304
25396W        W45676   6.244  12.880  13.394 -0.0187  0.0207 -0.0264
25397W        W45677   4.498  11.279  13.339 -0.1234  0.0719  0.2131
25398W        W45678   3.112   1.880   2.118 -0.1130  0.1686  0.0546
25399W        W45679  17.048   7.952  16.172  0.0702  0.1427  0.0119
25400W        W45680   6.925   5.759   1.736  0.3598  0.1927 -0.1889
25401W        W45681   8.702   0.103  16.452  0.0717  0.2361 -0.3644
25402W        W45682  10.907   1.143   3.603  0.0407  0.1071 -0.2125
25403W        W45683  16.846   7.459   1.253  0.1187  0.3110  0.1314
25404W        W45684   6.749   8.014  14.415  0.2386  0.1554  0.2241
25405W        W45685   3.871   8.981   3.460 -0.1260 -0.0707 -0.1195
25406W        W45686  16.182   4.673  12.625 -0.1712  0.4303 -0.0056
25407W        W45687  10.066  12.252   3.144  0.2188  0.0614 -0.2368
25408W        W45688   4.830   1.323  15.787 -0.1088 -0.1059  0.3602
25409W        W45689   5.539  10.506  15.954 -0.1979  0.2726 -0.1993
25410W        W45690  13.517   6.662   2.611 -0.1922  0.1205  0.1568
25411W        W45691   6.393  17.443  16.205 -0.0001 -0.0302  0.0589
25412W        W45692  10.144   4.933  12.668 -0.0293 -0.0089 -0.0246
25413W        W45693   7.118  12.372   3.463  0.1573 -0.1204 -0.2976
25414W        W45694  14.369  10.330  15.422  0.0308  0.0412  0.4374
25415W        W45695   6.037   0.077   0.948 -0.2078  0.0037  0.1030
25416W        W45696   1.146  16.461  12.863 -0.0263  0.1701  0.0274
25417W        W45697  12.348   5.047   0.093 -0.2511  0.3195  0.0950
25418W        W45698   0.077   7.765  12.729 -0.0452 -0.1228  0.1792
25419W        W45699   4.666  16.989  13.399  0.0591 -0.2620 -0.2754
25420W        W45700   4.567   2.323   1.688  0.0991  0.0548 -0.2424
25421W        W45701   8.163   5.365  15.090  0.1328  0.4017 -0.0152
25422W        W45702   7.992  13.460   4.078  0.1122 -0.2170  0.1032
25423W        W45703  12.768  11.147   4.352  0.2677 -0.1521  0.0555
25424W        W45704  17.462  10.620   4.814 -0.0479 -0.0644 -0.0636
25425W        W45705   6.986  17.660   2.842  0.5769 -0.2864  0.0552
25426W        W45706   2.101   8.428   4.622  0.2268  0.2536 -0.0341
25427W        W45707   3.566   5.385  14.103  0.2453  0.1859  0.0264
25428W        W45708   1.064  14.826   6.018 -0.2347 -0.3069  0.2164
25429W        W45709   1.327   8.933  13.094  0.1676  0.1207  0.1711
25430W        W45710   6.569  10.057   2.371 -0.2486 -0.1812  0.0085
25431W        W45711   0.480   5.819  11.988 -0.1941 -0.0040 -0.1774
25432W        W45712   6.481  15.233   1.508 -0.1791  0.2177 -0.1570
25433W        W45713   2.009   1.707   3.475  0.1666  0.0263  0.3358
25434W        W45714   6.468  17.081   3.272 -0.1176 -0.0638 -0.2299
25435W        W45715  14.132   9.593   0.427  0.2124 -0.0944  0.0047
25436W        W45716  10.532   7.347   1.021 -0.2688 -0.0872  0.1329
25437W        W45717  14.197   6.603  13.873 -0.0484 -0.0369  0.1610
25438W        W45718  13.395   6.597  14.051  0.1423 -0.1664  0.2522
25439W        W45719  16.767   2.920  12.742  0.1911  0.0937  0.0495
25440W        W45720  11.346  10.676   1.852 -0.2353  0.1257  0.1334
25441W        W45721  15.351  14.682  13.082 -0.0738 -0.0899 -0.0662
25442W        W45722   4.869   6.255   4.252 -0.0001 -0.4359 -0.0844
25443W        W45723  10.429   2.456   2.239 -0.0225 -0.2283  0.1255
25444W        W45724  14.444   0.408   1.328 -0.1443  0.1258  0.1541
25445W        W45725   3.824  15.459  16.306  0.1387  0.1295 -0.1933
25446W        W45726   4.151   9.291  14.564  0.0410 -0.0970  0.0807
25447W        W45727   5.984   9.270  15.011  0.0727  0.3309 -0.0571
25448W        W45728   3.630  10.744  13.690  0.0747  0.1538  0.1187
25449W        W45729   7.455  17.705  16.449 -0.1668 -0.2221  0.0061
25450W        W45730   3.111   3.603  12.870  0.1322  0.1831  0.0759
25451W        W45731  16.047  12.810  13.000 -0.1736  0.6687 -0.0231
25452W        W45732  14.651  10.460  12.463  0.0211 -0.3994 -0.4138
25453W        W45733  12.641   2.051   2.619  0.0365  0.1299  0.3199
25454W        W45734   8.954  10.330  13.039  0.1980  0.1773  0.0187
25455W        W45735   2.502   9.185  13.378  0.1128 -0.0510 -0.1364
25456W        W45736  11.528  15.533   3.161 -0.0166 -0.0082  0.0437
25457W        W45737   5.235  12.678  15.964  0.1423 -0.0145 -0.0674
25458W        W45738  14.363   0.259  12.443  0.3923 -0.2129  0.3178
25459W        W45739  10.827   5.324   3.895  0.1516 -0.0800 -0.1491
25460W        W45740  15.493  10.023  14.465 -0.1564 -0.0088  0.1459
25461W        W45741  11.602  12.344   0.196  0.2420  0.4036 -0.0981
25462W        W45742   1.094  14.171   3.697 -0.0277  0.0971  0.0923
25463W        W45743   4.003   8.043   0.379 -0.1214  0.1434 -0.0342
25464W        W45744  16.078  10.382   0.047  0.1397  0.1064  0.1531
25465W        W45745   2.388  12.220  14.230 -0.0562  0.0954  0.0983
25466W        W45746   8.537  14.253  12.353 -0.1930 -0.0426 -0.1048
25467W        W45747  16.955   7.469   2.941 -0.3593 -0.1514  0.0803
25468W        W45748   7.367  14.972   4.330 -0.1230 -0.2450 -0.1128
25469W        W45749   1.661   2.695   1.640  0.0158 -0.0478  0.1112
25470W        W45750   0.328  15.767   3.914 -0.1821  0.2204  0.0691
25471W        W45751   7.758  12.862   1.737 -0.1623  0.0009 -0.0125
25472W        W45752   5.337  13.686  15.806 -0.0488  0.1995 -0.3045
25473W        W45753  13.788   4.044   0.870  0.0952 -0.2146  0.1064
25474W        W45754   2.182  12.811  14.246 -0.1437 -0.3915  0.1415
25475W        W45755  11.932   3.573   3.449  0.0029  0.1178 -0.3957
25476W        W45756   2.160   6.448  15.223  0.0850 -0.0820 -0.2201
25477W        W45757   5.382   2.091  13.354  0.2128  0.2264 -0.1373
25478W        W45758   6.748   2.951  13.591  0.1261  0.0897  0.0565
25479W        W45759  12.316   1.918   1.159 -0.0829 -0.1182  0.2858
25480W        W45760   5.061  16.440   3.039  0.0137  0.0171  0.1404
25481W        W45761  10.054   2.818   2.239  0.1952 -0.0540 -0.0105
25482W        W45762  11.788   4.879   5.440 -0.0775  0.2233 -0.1907
25483W        W45763   7.307   3.527   4.214 -0.0188  0.0449  0.1690
25484W        W45764  13.253  16.810  15.523  0.1835 -0.1588  0.1355
25485W        W45765   6.941   6.517  16.774  0.0647  0.1040 -0.0471
25486W        W45766   1.640   0.611  14.179  0.2946  0.2154  0.0004
25487W        W45767   2.442   2.685   1.392  0.1107 -0.3409  0.3047
25488W        W45768   3.552   4.938  15.570  0.1190 -0.2025 -0.1836
25489W        W45769   1.526  13.852   3.761 -0.0517 -0.1314  0.1891
25490W        W45770   0.718  11.201   0.531 -0.0535  0.2369  0.4913
25491W        W45771  13.656   2.810  15.467 -0.3287  0.1154  0.0596
25492W        W45772   5.114  11.358  14.512  0.1072  0.0080 -0.0888
25493W        W45773  13.286  17.232   1.744  0.1221 -0.2198 -0.1149
25494W        W45774  16.315   6.055   3.791 -0.2425  0.1076 -0.1859
25495W        W45775   1.703   8.301   4.238  0.0970 -0.1403 -0.2361
25496W        W45776   8.639  16.715   4.809  0.2672  0.0709  0.1785
25497W        W45777   1.857  16.930   0.671  0.0789  0.1162 -0.2567
25498W        W45778   6.969  11.706  13.122  0.1544 -0.1632 -0.0874
25499W        W45779   4.897   7.288  15.695  0.0370 -0.1200  0.2813
25500W        W45780   1.494  12.872  16.868 -0.2193  0.3065  0.0853
25501W        W45781   0.767  12.343   0.066 -0.1995 -0.1167 -0.1297
25502W        W45782  15.935   7.754  16.044  0.0344  0.1799  0.0851
25503W        W45783   8.830   1.650   3.062  0.0227  0.2305 -0.1547
25504W        W45784   7.441  14.686   1.916  0.0442  0.0519 -0.0066
25505W        W45785  12.272   6.242   3.783 -0.0973 -0.4897 -0.2291
25506W        W45786   3.040   6.134  15.853  0.0692 -0.3021 -0.1343
25507W        W45787   4.825  16.917   2.666  0.1614  0.1286 -0.0258
25508W        W45788  14.996   6.024  13.390 -0.1454  0.1899 -0.2045
25509W        W45789   3.061   1.804  15.519 -0.1926 -0.1546 -0.0229
25510W        W45790  15.362   7.816   2.685 -0.1234  0.3516 -0.0531
25511W        W45791  16.896  12.934  14.102  0.1751  0.1577 -0.0622
25512W        W45792   8.314   4.382   0.219  0.1013 -0.2545  0.3286
25513W        W45793   3.065   8.316  15.843  0.1255  0.0175  0.1573
25514W        W45794  13.782   9.080   3.842  0.2035  0.1871  0.0958
25515W        W45795   1.021   0.496   0.156 -0.1035  0.1496 -0.0591
25516W        W45796   1.071  12.185   3.595  0.0725 -0.0431 -0.0092
25517W        W45797  11.040  15.661   3.126  0.0344  0.2516  0.2466
25518W        W45798   1.618  10.373  12.053  0.0458  0.0490  0.0059
25519W        W45799   8.563   0.706   2.705  0.0447 -0.0946  0.0849
25520W        W45800   8.279  17.173   2.011 -0.1479  0.1587 -0.1228
25521W        W45801   0.288   1.049   1.108  0.0535  0.1585  0.2014
25522W        W45802   7.504   8.198  12.787  0.2372 -0.2040  0.0305
25523W        W45803  17.293   6.196  12.293  0.1783  0.1991 -0.2267
25524W        W45804  11.198   1.979   2.112 -0.3952  0.0062  0.2193
25525W        W45805   3.891  17.041   0.587  0.2209 -0.0858  0.2462
25526W        W45806  10.433   9.174  14.301  0.1682 -0.1083  0.1813
25527W        W45807  17.363   3.045   1.868 -0.2687  0.3324  0.3946
25528W        W45808   0.225   2.961  15.772  0.0922 -0.0809  0.0288
25529W        W45809   7.529  17.439  13.803 -0.2728  0.1324 -0.2498
25530W        W45810   0.865   9.707   0.476 -0.1739  0.2099  0.3320
25531W        W45811   6.976   8.846  12.687  0.0766  0.2863  0.1791
25532W        W45812  15.712   4.122   0.595 -0.2274  0.1256  0.1892
25533W        W45813  15.592   9.833   3.380 -0.0247  0.3959 -0.1033
25534W        W45814  15.622  17.123   1.911  0.2618  0.0851 -0.1645
25535W        W45815   7.663   4.626   1.756 -0.1681  0.0002  0.0141
25536W        W45816   7.159  13.322   4.868 -0.0685  0.5858  0.1219
25537W        W45817  14.150   3.402   0.303 -0.2430 -0.1226  0.0343
25538W        W45818   0.858  13.753   1.182 -0.0502  0.2152  0.1187
25539W        W45819   5.299   7.958  12.705  0.0179  0.2895 -0.0483
25540W        W45820   9.485   1.900   1.487 -0.0976 -0.2364  0.0646
25541W        W45821   7.951   6.522   3.027 -0.1689 -0.0001  0.0746
25542W        W45822  11.281   8.490   1.649  0.0530 -0.1568  0.0634
25543W        W45823  16.750   6.021   4.143 -0.0257  0.1167  0.1458
25544W        W45824  17.102  11.533  12.824 -0.1106 -0.1573 -0.0692
25545W        W45825   1.177  12.381  11.875  0.0599 -0.0852 -0.0759
25546W        W45826   3.258   3.011   1.446 -0.0953 -0.0152 -0.0061
25547W        W45827  10.547  12.236   3.995  0.0864  0.0806  0.1567
25548W        W45828   0.118  10.253  11.094 -0.3246  0.1633  0.3311
25549W        W45829  12.197   2.821   0.963 -0.0680 -0.0261 -0.1275
25550W        W45830   9.529   9.821   2.861 -0.0874  0.0908 -0.0116
25551W        W45831   0.737  11.298   2.825 -0.1784  0.4222  0.0541
25552W        W45832   0.315  14.436  13.172  0.1355  0.1611  0.0626
25553W        W45833  12.536   0.735  15.147 -0.4095  0.0635 -0.3781
25554W        W45834   7.995   2.779  14.275  0.0786  0.2277 -0.0322
25555W        W45835   5.372   4.806  15.851  0.0742  0.0508 -0.1249
25556W        W45836   2.306   6.548   3.225 -0.0346 -0.1092  0.3217
25557W        W45837   7.232   1.132   3.661  0.2505 -0.0716  0.0499
25558W        W45838   7.585   6.736   2.300 -0.3657  0.0672  0.4336
25559W        W45839  11.257   8.909  12.730 -0.0090 -0.0114 -0.0988
25560W        W45840  14.384  11.792   0.482  0.0728  0.1835 -0.1207
25561W        W45841  16.722   4.012  15.079 -0.0583 -0.1028 -0.1400
25562W        W45842  17.335  15.612  15.632  0.1933 -0.1620  0.2063
25563W        W45843  13.685  15.365  13.162 -0.1479  0.1373 -0.3457
25564W        W45844   5.738   4.725  12.321  0.2075 -0.0458  0.1692
25565W        W45845  14.377   4.586   3.195 -0.1964 -0.0693 -0.0818
25566W        W45846  15.684  13.103  13.148  0.2170 -0.1777  0.0956
25567W        W45847   2.921   5.222   1.000 -0.1991  0.0403  0.1181
25568W        W45848  16.361   7.069   2.799  0.0248  0.0004  0.1391
25569W        W45849   9.570  13.254  14.594 -0.0950  0.0136 -0.2672
25570W        W45850   3.022   3.195  15.629  0.2306  0.1026  0.4823
25571W        W45851  15.983  10.386   5.051 -0.2656  0.0329 -0.0004
25572W        W45852   3.908  11.437  13.224  0.0693 -0.3137  0.3279
25573W        W45853   2.014  11.259  15.294  0.0557  0.3403  0.0890
25574W        W45854   7.095   1.223   2.292  0.1213 -0.2273 -0.2365
25575W        W45855   3.335  13.700  16.552  0.2365 -0.2709 -0.1087
25576W        W45856  16.282  12.206   1.351  0.0438 -0.0362  0.1280
25577W        W45857  15.895   4.799   1.873 -0.1746  0.0695  0.0523
25578W        W45858   5.773   4.794   0.432 -0.0300  0.1153 -0.2293
25579W        W45859  10.806  11.359  15.109 -0.2367 -0.0994 -0.1185
25580W        W45860  11.719   2.696   1.912 -0.0322 -0.0168  0.0859
25581W        W45861  11.073  16.955   1.597 -0.1273 -0.0767  0.0442
25582W        W45862  13.115   5.604   3.987  0.0360 -0.1128 -0.0926
25583W        W45863  12.353  11.681   5.204  0.2087  0.1744  0.0900
25584W        W45864  16.195   6.922   1.758  0.3460  0.0792 -0.2130
25585W        W45865   4.973  13.703  16.225  0.0482  0.0170  0.1253
25586W        W45866   6.772  13.014  16.159 -0.1723  0.1497 -0.2287
25587W        W45867  15.949  12.512  14.309 -0.1376 -0.0920 -0.1388
25588W        W45868  12.514  15.649   4.961  0.0047  0.0102  0.0910
25589W        W45869  14.530   1.917   5.070  0.0628 -0.2487 -0.0682
25590W        W45870  11.201   8.675  12.248 -0.0197 -0.1350 -0.1021
25591W        W45871   7.062   6.280   2.565  0.0224 -0.2223  0.3790
25592W        W45872  14.791  15.061  16.132  0.2289 -0.2570  0.3360
25593W        W45873   1.318   6.244   4.010  0.1762 -0.4800 -0.0034
25594W        W45874   0.930  17.442  14.894 -0.2738 -0.2533  0.0685
25595W        W45875  15.007   9.986   3.960 -0.0698 -0.0949 -0.0858
25596W        W45876  17.588   1.906   0.417  0.1766 -0.1422 -0.2017
25597W        W45877  12.181   7.348   2.949 -0.1095  0.0259 -0.1606
25598W        W45878  13.839   4.712   3.419  0.0203 -0.0428 -0.4091
25599W        W45879  15.604  12.348   4.986 -0.1615 -0.1353 -0.0863
25600W        W45880   4.853   8.137  14.994  0.0348 -0.0155  0.4181
25601W        W45881   9.071  12.103   4.369 -0.0925 -0.4882 -0.2622
25602W        W45882  13.816   0.724  13.214  0.1757 -0.0598 -0.1418
25603W        W45883  13.723   9.101   4.382  0.0833  0.0282  0.0280
25604W        W45884  14.077  10.682   1.662 -0.0895 -0.1659  0.4050
25605W        W45885  15.794   0.382   4.239 -0.0035  0.0794 -0.0238
25606W        W45886   5.571   4.146   4.405  0.1776  0.2804 -0.1936
25607W        W45887   5.331  14.061   2.170 -0.2163  0.0710 -0.0511
25608W        W45888  14.606   7.613  12.433 -0.0777  0.0164  0.2015
25609W        W45889   3.990  12.936  12.327  0.0455 -0.3903  0.0467
25610W        W45890   1.431   2.416   2.869  0.2372  0.0457 -0.1221
25611W        W45891   2.963   4.660   4.428  0.1881 -0.2564  0.0269
25612W        W45892  16.107   8.583  15.516 -0.1647 -0.0272 -0.0149
25613W        W45893  10.580  13.711   4.196  0.0483  0.1515 -0.0657
25614W        W45894   2.352  15.017  15.784  0.2726 -0.3255  0.3103
25615W        W45895  13.524  14.422  16.267  0.1448  0.0711  0.2263
25616W        W45896   6.980   4.336  14.744  0.1123 -0.1047 -0.0282
25617W        W45897   5.327   3.525  14.312 -0.0200  0.0665  0.2314
25618W        W45898  16.321   2.858   1.001  0.1866 -0.0541 -0.2180
25619W        W45899   6.381  14.303  13.041  0.0097 -0.0183 -0.0285
25620W        W45900   7.453   4.352  14.922  0.2144  0.0812  0.2728
25621W        W45901   7.467   4.262  12.904  0.3949 -0.0176  0.4937
25622W        W45902   9.234   4.605  16.462 -0.1743 -0.1871 -0.0508
25623W        W45903   7.928  13.883   3.002  0.1509 -0.3708  0.0363
25624W        W45904  11.219  12.333   4.465  0.0363 -0.1899 -0.0175
25625W        W45905  11.428  16.667  12.429  0.3847  0.2689  0.2914
25626W        W45906  12.037  13.729  15.138 -0.0661 -0.0452 -0.0055
25627W        W45907  16.469  10.351  15.817  0.2070 -0.1125 -0.0657
25628W        W45908   0.757   6.241   3.826 -0.1074  0.4501 -0.1083
25629W        W45909   6.124   1.155  15.234 -0.1400 -0.2249 -0.0761
25630W        W45910   3.033   0.828   1.854  0.0145  0.1315 -0.1089
25631W        W45911   9.746  14.348  16.865  0.2082 -0.1220  0.1076
25632W        W45912   8.082  14.898  13.186  0.2280 -0.0181  0.1287
25633W        W45913   5.911   7.406   2.362  0.0450  0.2061  0.0261
25634W        W45914   4.440  14.403  13.857 -0.4544  0.0081  0.2335
25635W        W45915   9.765   4.231  12.280 -0.0709 -0.1396 -0.2274
25636W        W45916  11.655   8.791   2.902 -0.0352 -0.1878  0.2849
25637W        W45917   9.451  11.542   3.174 -0.1885  0.0344 -0.0982
25638W        W45918   7.223  11.108  15.305  0.0133  0.0605  0.0273
25639W        W45919   8.345   7.709  16.033  0.0436 -0.0454  0.2392
25640W        W45920  14.254   2.845  13.296  0.2375  0.1273 -0.0842
25641W        W45921  13.774  14.170   4.330  0.0051 -0.2596  0.0699
25642W        W45922   5.443  16.559   0.279  0.1462 -0.0308 -0.2035
25643W        W45923  11.849   4.675  14.329 -0.0165  0.0310  0.0608
25644W        W45924  15.740  11.591   5.034  0.2952  0.0955 -0.0853
25645W        W45925   8.736  11.399   3.508 -0.2521 -0.0088  0.0302
25646W        W45926   7.839  14.332  12.852  0.1953 -0.1081 -0.0917
25647W        W45927  10.628   3.875   0.077  0.0879  0.1499  0.0359
25648W        W45928   1.867  16.691   1.440  0.0993 -0.1140  0.1598
25649W        W45929   4.810  11.750   0.087  0.0910  0.1934 -0.0502
25650W        W45930  10.538   1.173   3.235  0.2298 -0.0497 -0.0229
25651W        W45931  13.597   6.465   3.608 -0.0361  0.4464  0.1979
25652W        W45932  12.286  11.865  15.282 -0.0542  0.0899 -0.0418
25653W        W45933  13.507  10.733   3.484  0.0801  0.1000  0.2143
25654W        W45934   9.452  10.969   1.527  0.0646  0.1130  0.3255
25655W        W45935  12.813   6.212   4.510  0.0732  0.0193  0.2076
25656W        W45936   7.920  12.978   0.380 -0.3768  0.3774  0.2504
25657W        W45937  11.084  10.087  16.511  0.0900  0.1089  0.0748
25658W        W45938   0.360   1.610  16.552 -0.1475  0.1953  0.0018
25659W        W45939   0.057   0.217  15.321 -0.3539  0.0176 -0.1219
25660W        W45940   3.797  17.335  14.176  0.1100 -0.0128 -0.1498
25661W        W45941   4.130  15.449   3.547 -0.1517 -0.2222  0.1333
25662W        W45942   2.044  12.995   3.516 -0.0140 -0.1274  0.0157
25663W        W45943  14.738   8.165   2.639 -0.0757 -0.0917  0.2983
25664W        W45944  10.842  15.400  15.249  0.1053  0.0738  0.2500
25665W        W45945   5.091   2.165   4.080  0.0156  0.1240  0.3191
25666W        W45946  11.320   1.209   4.590  0.0967  0.0401  0.1093
25667W        W45947   9.240  17.523   0.896  0.1414  0.3469  0.1684
25668W        W45948  16.814  14.241   3.985  0.1738 -0.1468  0.0014
25669W        W45949  15.306   8.203   3.911  0.4148  0.0972  0.0474
25670W        W45950  13.796   8.593   5.454  0.2063  0.2372  0.0444
25671W        W45951  16.062  12.144   4.990  0.1885  0.2361 -0.0174
25672W        W45952   9.881   5.090   0.209 -0.1577 -0.1904 -0.0746
25673W        W45953   9.087   2.244   1.432 -0.1247  0.2589 -0.0280
25674W        W45954  11.713   7.510   2.690 -0.1644  0.1218  0.0493
25675W        W45955   3.606  14.758   2.601  0.0610  0.2685  0.1306
25676W        W45956   2.285   5.651  13.595 -0.2685 -0.2393 -0.2508
25677W        W45957  10.378  10.829   0.581  0.0354  0.3102 -0.0515
25678W        W45958   9.275   6.780  16.450 -0.1066 -0.1783  0.0847
25679W        W45959  16.641   9.070   4.830  0.4501  0.2082 -0.0726
25680W        W45960  11.497   7.166  12.061 -0.0494  0.3054  0.0506
25681W        W45961   9.051  15.918  15.312 -0.0601  0.0320  0.1089
25682W        W45962   3.806   3.106   3.728  0.3345  0.2278  0.0763
25683W        W45963   5.434  12.749  16.685 -0.0341 -0.4295 -0.1169
25684W        W45964  10.304  12.495  13.882  0.0167 -0.2431  0.1218
25685W        W45965   3.276   9.243  14.394  0.1444 -0.2199 -0.1617
25686W        W45966  12.842  11.367   3.455 -0.0693  0.1436 -0.0201
25687W        W45967  14.487   0.024  14.064  0.6290 -0.2442  0.1831
25688W        W45968  16.090  17.438  11.273 -0.1312  0.1899  0.1091
25689W        W45969   4.424  14.743   4.533 -0.0977 -0.1170 -0.0444
25690W        W45970   9.856  11.433  14.808  0.2160  0.0240 -0.0075
25691W        W45971  11.089  16.448   0.751  0.0956  0.0445 -0.0125
25692W        W45972   5.044  11.506  14.996  0.0265 -0.0595  0.3028
25693W        W45973  13.355   0.484  12.280 -0.0179 -0.1281 -0.2137
25694W        W45974   4.100  16.159   4.767  0.0919 -0.3503 -0.3728
25695W        W45975  14.489   7.189   2.723  0.2241 -0.3871  0.1565
25696W        W45976   1.911   3.809   2.649 -0.0876  0.2450 -0.2187
25697W        W45977   2.676  13.527  16.205  0.0562 -0.0479 -0.2418
25698W        W45978   4.392   7.278   2.975  0.1401  0.2244 -0.1028
25699W        W45979   1.102  14.624  12.424 -0.1036  0.0507  0.1739
25700W        W45980   2.844   1.366   1.154  0.0102  0.0729  0.1644
25701W        W45981  16.393   7.954   4.847 -0.0113 -0.1852 -0.1022
25702W        W45982   5.463  16.914  13.000 -0.1520  0.1032 -0.3586
25703W        W45983   9.203   1.862  16.140  0.2758  0.0148  0.0709
25704W        W45984   1.198   4.096   4.467 -0.3138 -0.0489 -0.0394
25705W        W45985   3.544   3.646  13.191  0.2651  0.2756  0.0672
25706W        W45986  15.102  11.073   1.247 -0.1661 -0.1082  0.0008
25707W        W45987  12.653   6.215  11.995 -0.2434 -0.0630 -0.0074
25708W        W45988   3.125  16.076   1.943  0.0951 -0.0444 -0.1267
25709W        W45989   4.535   8.241   0.403  0.4305 -0.3306  0.1533
25710W        W45990  11.450  13.627   4.187 -0.0007 -0.1312  0.0640
25711W        W45991  15.735  13.383   1.944  0.1598 -0.0180 -0.2642
25712W        W45992  14.096  11.217  14.274  0.0118 -0.2058 -0.0958
25713W        W45993  15.680   1.749   0.471 -0.0843  0.0557 -0.0768
25714W        W45994   7.802  17.333   4.832  0.1647  0.3201  0.1988
25715W        W45995  13.706   6.094   3.917  0.0013 -0.0169  0.1087
25716W        W45996   7.788  11.717   4.456  0.0734  0.0920 -0.0062
25717W        W45997   2.513  13.046  16.803  0.0038 -0.2652 -0.2723
25718W        W45998   0.762  12.953  16.365 -0.1926 -0.2143 -0.0616
25719W        W45999  15.140   7.412  14.012 -0.0255  0.2724 -0.0597
25720W        W46000   5.844  16.573  13.095  0.0171 -0.2384  0.2652
25721W        W46001   3.611   5.234   1.087  0.1104  0.1502 -0.1540
25722W        W46002  14.871   0.201   0.196  0.0733 -0.1689 -0.0541
25723W        W46003   5.219  14.560  16.094 -0.2115 -0.0779  0.2738
25724W        W46004   8.310   3.107   3.924 -0.1053 -0.1033  0.3562
25725W        W46005  10.839  10.904  13.800 -0.1942  0.1581  0.0253
25726W        W46006   0.185   7.075   1.830  0.0229  0.0966 -0.2917
25727W        W46007  17.616  11.558   1.142  0.5001  0.1385  0.1005
25728W        W46008   8.303   4.485  14.688  0.1714 -0.0180 -0.1067
25729W        W46009  11.666  16.062  13.783 -0.1513  0.1240 -0.0750
25730W        W46010  11.612   1.898   1.522  0.2637 -0.0660 -0.0573
25731W        W46011  12.823   6.693  15.849 -0.1635  0.0804  0.0378
25732W        W46012   9.102   5.859  11.806  0.0392 -0.4562 -0.1674
25733W        W46013   9.896   1.678  14.854 -0.1262  0.3056  0.1932
25734W        W46014  13.786  12.340   2.056 -0.1760  0.0709 -0.1439
25735W        W46015  12.820  10.272   2.827  0.0471  0.2747  0.2087
25736W        W46016   8.508   0.115  15.137 -0.0651  0.2109 -0.1634
25737W        W46017   0.490  17.259   1.579  0.2990  0.0426  0.2021
25738W        W46018   8.350  11.750   1.484 -0.0844  0.1997  0.1836
25739W        W46019   8.929   7.583   3.659  0.3583  0.0366  0.1401
25740W        W46020  10.269   3.390   4.672 -0.0982 -0.0438 -0.0750
25741W        W46021  12.690   6.578  16.343 -0.1591  0.2413  0.3233
25742W        W46022   9.086  17.720  12.545 -0.1368 -0.0268  0.1344
25743W        W46023  14.733  12.514   0.479  0.1236  0.0147  0.0904
25744W        W46024   9.531  16.801   3.319  0.1126  0.0803  0.1606
25745W        W46025  17.257   1.187   0.006  0.2649  0.0797 -0.0663
25746W        W46026  14.699  10.771  13.385 -0.1079 -0.2271  0.1197
25747W        W46027  11.057   6.353  11.765 -0.0287  0.1515  0.0364
25748W        W46028  10.973   5.939  12.153  0.1476 -0.0027  0.0223
25749W        W46029   3.888  15.918   1.528 -0.1362 -0.0895 -0.1197
25750W        W46030   9.326  15.788  12.333  0.1646 -0.0403 -0.0435
25751W        W46031   5.575  16.069  12.402 -0.1171 -0.0097 -0.2371
25752W        W46032   9.224   9.052  16.559 -0.0788 -0.0499  0.1267
25753W        W46033   6.417   9.442   0.585 -0.0562  0.3326 -0.4054
25754W        W46034   9.272   2.036   4.821 -0.0821  0.1514  0.3135
25755W        W46035   5.007   1.316  12.631  0.1427 -0.1859  0.1348
25756W        W46036   5.931  14.813  12.334  0.1817 -0.0333  0.0159
25757W        W46037   1.650   5.566   4.027  0.2033 -0.1284  0.1756
25758W        W46038  13.753   7.042  16.396  0.3032 -0.2998 -0.0311
25759W        W46039   5.234   8.823  15.406  0.1528  0.0648 -0.1544
25760W        W46040   5.866  15.050  16.610 -0.0683 -0.1503  0.2411
25761W        W46041  17.190   6.294   4.088 -0.3411  0.0910 -0.1149
25762W        W46042   7.709  16.247  12.239  0.0946 -0.0213  0.0666
25763W        W46043  17.000   7.547  12.493  0.1818  0.1452  0.2764
25764W        W46044   3.778  12.900   0.778 -0.2182 -0.2249  0.1856
25765W        W46045   1.987   8.739   0.156 -0.1440  0.2298 -0.1805
25766W        W46046   2.699  16.010   0.170 -0.1776 -0.1249 -0.0398
25767W        W46047  13.453  10.504  15.997  0.2962 -0.0510  0.2330
25768W        W46048   3.414  10.194  15.980  0.1558  0.0532  0.0362
25769W        W46049   9.050  14.733   1.262 -0.1784 -0.0860 -0.0364
25770W        W46050   0.946   6.682   1.591 -0.1288 -0.1494 -0.1353
25771W        W46051   8.564  14.592  12.750  0.2188 -0.1914  0.0096
25772W        W46052  10.604   2.402   2.703  0.0899 -0.1265  0.1507
25773W        W46053  17.132   4.219   1.229 -0.1799  0.2015 -0.1005
25774W        W46054  10.563   1.548  12.597 -0.1013 -0.3324 -0.3406
25775W        W46055  13.705  17.020   1.974  0.0815 -0.0166  0.0422
25776W        W46056  10.580  17.701   2.019  0.3237  0.0042  0.0143
25777W        W46057  12.731  10.399  12.209 -0.3613  0.0476  0.1767
25778W        W46058  12.926   4.703  15.451 -0.3459  0.0683  0.2649
25779W        W46059  15.287   2.726  14.816 -0.2143  0.0230  0.0141
25780W        W46060   7.880  11.247   0.397  0.0067 -0.1293  0.1743
25781W        W46061   0.243   2.739  14.911  0.4069  0.0898 -0.1899
25782W        W46062   0.003   6.888   0.322  0.0901 -0.0919 -0.2223
25783W        W46063  13.136   4.449  12.356 -0.0560 -0.1267  0.3396
25784W        W46064   1.249   6.494  16.393  0.1265  0.0439  0.1284
25785W        W46065  17.388   1.936  14.985  0.2438  0.3420 -0.0374
25786W        W46066  17.126   7.789   1.443  0.0564 -0.1699 -0.0339
25787W        W46067  10.194   2.919  16.068  0.0038 -0.1888 -0.0182
25788W        W46068  12.193   0.675   4.543  0.0977 -0.0866 -0.1057
25789W        W46069   0.172  13.596  13.454  0.1775  0.1195 -0.3020
25790W        W46070  16.403  12.387   4.096 -0.2361 -0.1806 -0.0180
25791W        W46071   0.513   6.358  13.627 -0.0043 -0.1947  0.0515
25792W        W46072  15.614   9.761   2.197 -0.2498  0.0606 -0.3390
25793W        W46073   4.661   9.537  15.087 -0.3658 -0.2866  0.0010
25794W        W46074  14.084  15.437  15.411 -0.4191  0.2057 -0.0734
25795W        W46075   5.945   9.901  13.067 -0.1238  0.1345  0.3417
25796W        W46076   3.084  12.404   3.053 -0.1529 -0.1136 -0.3169
25797W        W46077   7.100   4.014   4.403  0.1114 -0.3189  0.1077
25798W        W46078   9.574  15.249  16.837 -0.0928  0.1570  0.1940
25799W        W46079  17.698   2.225   0.797 -0.0765  0.2886  0.0630
25800W        W46080  10.194   6.939  15.168 -0.0529  0.3765 -0.0632
25801W        W46081   5.861   2.738   2.615  0.1290  0.0836  0.2362
25802W        W46082  10.598   5.381  12.538  0.0014  0.1739  0.1235
25803W        W46083   8.224  14.037  15.222  0.0362  0.0042  0.0092
25804W        W46084   7.110   1.163   1.703 -0.0973  0.0318  0.3615
25805W        W46085  15.354  16.890   1.549  0.0400  0.0086  0.0217
25806W        W46086  14.876   3.221  14.034 -0.1020  0.0322  0.1231
25807W        W46087   7.519  13.443   3.875  0.0709  0.2822 -0.2806
25808W        W46088  11.883  16.955   4.885  0.2039 -0.2833  0.0198
25809W        W46089  14.063   1.819   4.888  0.0612 -0.0583  0.0942
25810W        W46090   5.993  16.727  14.932 -0.0352  0.0605 -0.1451
25811W        W46091  11.143   4.777   2.296  0.1911 -0.1282 -0.2145
25812W        W46092   3.350   9.823  15.618  0.2479  0.2121  0.1465
25813W        W46093   7.120  12.400  13.978  0.1143 -0.0285  0.0476
25814W        W46094  13.934   9.976  14.843  0.0839  0.1334  0.1253
25815W        W46095  15.045  11.854  16.678  0.1621  0.1867  0.0126
25816W        W46096   5.763  12.433  16.185  0.1186  0.0334 -0.1752
25817W        W46097   8.704  11.882  16.201 -0.1363 -0.0019  0.0281
25818W        W46098   1.361   1.424  13.048 -0.2132 -0.1199 -0.4857
25819W        W46099   1.193  14.363  16.530  0.2323 -0.0235  0.0864
25820W        W46100  16.421  11.127  13.393 -0.0865 -0.1682 -0.2448
25821W        W46101  17.318   0.065  14.796 -0.0462  0.0115 -0.1403
25822W        W46102  12.233  10.875   2.296  0.0276  0.0279  0.1163
25823W        W46103   4.466   6.557   3.894 -0.2632  0.0493 -0.0692
25824W        W46104   2.217  14.028  16.814 -0.1741  0.0164 -0.1281
25825W        W46105  16.176   5.595   1.217  0.0253  0.2960 -0.2346
25826W        W46106  13.602  15.494  15.473  0.2398  0.2008  0.1500
25827W        W46107  13.377   8.985   2.915 -0.2443  0.0265 -0.0081
25828W        W46108  15.466   5.373  15.967 -0.2270  0.0570  0.0386
25829W        W46109  10.111  17.722  16.253 -0.1693 -0.2998  0.2041
25830W        W46110  14.449   2.787  15.329  0.2829  0.2612 -0.0767
25831W        W46111  16.329  12.483  14.741 -0.1644 -0.3739  0.2022
25832W        W46112  10.046   9.126   1.747 -0.1069 -0.1916 -0.0639
25833W        W46113   3.799  12.185   1.516  0.3699 -0.2148  0.0894
25834W        W46114  13.927  17.484  16.249 -0.1582  0.2256  0.2047
25835W        W46115  10.097   2.811  13.421  0.1414 -0.1238 -0.1556
25836W        W46116   9.126   9.946  16.638 -0.0017  0.0143  0.1859
25837W        W46117   8.872   4.980   2.787 -0.0822 -0.0402 -0.1232
25838W        W46118   9.400  16.332   0.063 -0.1197  0.0393  0.0329
25839W        W46119  17.298   2.259   3.365  0.2926  0.0722 -0.1390
25840W        W46120  14.221   7.605  13.649  0.3058  0.1762 -0.0752
25841W        W46121   9.248  14.346   4.918  0.2698  0.0535  0.0360
25842W        W46122  16.978  10.488   4.585 -0.0913  0.2101 -0.2798
25843W        W46123  11.072  16.667  15.076  0.1649  0.0635  0.0791
25844W        W46124  12.990   6.253   0.608 -0.1231  0.0670 -0.0567
25845W        W46125   1.848  10.821  15.762 -0.0836 -0.0859  0.0773
25846W        W46126  15.435   8.836   3.105 -0.1840 -0.2529  0.0144
25847W        W46127   2.592   5.981   1.481  0.0667 -0.0939 -0.0054
25848W        W46128   4.764   8.319  15.820 -0.1807  0.1056  0.0236
25849W        W46129  13.119  15.563  15.249 -0.1219  0.0256 -0.1758
25850W        W46130   2.390  15.719   1.482 -0.3485 -0.1177 -0.1524
25851W        W46131   2.662   6.790   3.523 -0.1323  0.1096 -0.0655
25852W        W46132   9.101   7.478   3.126  0.0170  0.0358  0.0085
25853W        W46133   9.078  11.386  12.136 -0.1337  0.0712  0.1247
25854W        W46134  11.649  11.901   5.810 -0.1204 -0.1029  0.2221
25855W        W46135   6.088   4.357  12.071 -0.1025  0.1127  0.1370
25856W        W46136   5.530   1.121   2.705  0.1276  0.3055 -0.0370
25857W        W46137  15.207  10.344  13.921  0.0736 -0.2724  0.2507
25858W        W46138  13.149  11.996   2.175  0.2165 -0.0188 -0.0591
25859W        W46139  11.940   8.684   1.940  0.1793 -0.4260 -0.1623
25860W        W46140  11.811   8.769   2.401 -0.2026  0.1344 -0.0603
25861W        W46141   5.528  10.733   1.689 -0.0814 -0.1853  0.0104
25862W        W46142   3.093   0.873  16.723  0.1190 -0.0736  0.4126
25863W        W46143  11.536   3.206  15.692  0.3748 -0.1228  0.2426
25864W        W46144   3.782   9.053  11.906  0.1507 -0.0994 -0.3922
25865W        W46145   0.314   0.537  13.964  0.0614 -0.0035  0.2430
25866W        W46146  14.808  15.801   1.824  0.1085 -0.2221 -0.2257
25867W        W46147   7.406   7.818   1.975 -0.1387 -0.1694 -0.0706
25868W        W46148  13.836   5.696   0.747  0.1577 -0.4340  0.1014
25869W        W46149  13.117  17.418   3.043  0.2351  0.1101  0.1413
25870W        W46150  13.475   9.186   1.887 -0.1916  0.0164 -0.2408
25871W        W46151  16.466  14.562  15.614 -0.0993  0.0621  0.0883
25872W        W46152   1.588   0.984  13.294  0.2126 -0.1402  0.0641
25873W        W46153   4.353  11.812  12.353 -0.2258  0.1046  0.0052
25874W        W46154   3.333   1.221   5.186  0.0220  0.0686 -0.1762
25875W        W46155  14.731  14.276   2.814 -0.0308  0.1956  0.1057
25876W        W46156   3.218  12.894   2.668 -0.0388  0.4630  0.2864
25877W        W46157   2.952   6.893  13.966 -0.0197  0.0734  0.2509
25878W        W46158   4.522   1.570  14.258  0.2524  0.1964 -0.1322
25879W        W46159  14.320  14.699   0.671 -0.0450 -0.0574  0.2432
25880W        W46160   8.182  15.479  14.937 -0.0059  0.2483  0.1656
25881W        W46161   6.739   9.361  13.584 -0.0485 -0.0774  0.2585
25882W        W46162   6.628   7.471  13.753  0.3157 -0.0444  0.1815
25883W        W46163  17.461  14.408  13.985 -0.1396  0.0076  0.0098
25884W        W46164   8.660   7.257   4.439  0.0467  0.1043 -0.0369
25885W        W46165   9.768  13.725  16.218 -0.0528  0.1936 -0.1717
25886W        W46166  12.405   6.186  16.127 -0.0217 -0.2500 -0.3365
25887W        W46167  15.315   8.342   2.691 -0.1181  0.1581 -0.1672
25888W        W46168   2.012  14.967  14.816 -0.2133 -0.2862  0.2004
25889W        W46169  13.972  16.622   1.299  0.3156 -0.2052  0.0475
25890W        W46170  10.979   0.404  14.469  0.0003 -0.0395  0.3126
25891W        W46171   5.627   4.677   0.923  0.3204 -0.2179  0.2714
25892W        W46172  16.488   9.101  12.370  0.0901 -0.0488 -0.2927
25893W        W46173  16.265   8.544   4.797 -0.2317 -0.3614 -0.2559
25894W        W46174   2.909   9.565   0.246 -0.1903 -0.1106  0.1165
25895W        W46175   0.188  17.340   3.947  0.0560 -0.4050  0.1204
25896W        W46176  16.112   9.657  15.070  0.0554 -0.0838  0.1864
25897W        W46177   6.928  13.489  14.678  0.3974  0.0786  0.1066
25898W        W46178   9.452   5.875   3.976  0.1401  0.1327 -0.1822
25899W        W46179   1.610  13.676   1.196 -0.1093 -0.2103 -0.0645
25900W        W46180   4.199   2.203   2.306 -0.1798  0.0983 -0.2604
25901W        W46181  12.082  12.940  16.472  0.0444  0.3457  0.2649
25902W        W46182   8.885  15.955   4.283  0.1435  0.2801  0.0247
25903W        W46183  15.949   8.533   1.882 -0.2114 -0.4526  0.0363
25904W        W46184   4.665   2.695   3.786  0.0945  0.4218 -0.2458
25905W        W46185  15.076   1.780  13.615  0.0695 -0.0455 -0.0073
25906W        W46186   8.740  12.019  15.682  0.1161 -0.1537  0.0571
25907W        W46187  12.256   7.138   0.287  0.2143  0.0769  0.0260
25908W        W46188   7.521   8.581  14.559 -0.1585 -0.0731  0.0455
25909W        W46189   9.536  17.588   2.266  0.1548  0.0329 -0.0918
25910W        W46190  13.576   5.281   4.552 -0.1691 -0.2213 -0.2265
25911W        W46191  10.255  13.172  16.884 -0.0922  0.1415 -0.0452
25912W        W46192   8.652   5.595   0.849  0.0965 -0.1758 -0.3945
25913W        W46193   4.006  16.801   2.982  0.2833  0.1142  0.3970
25914W        W46194   5.971  10.401  14.062  0.2308  0.1959 -0.0928
25915W        W46195  16.680   9.619   0.078  0.1536 -0.2309  0.2442
25916W        W46196   8.614  14.607   2.340 -0.1529  0.2211  0.0506
25917W        W46197   2.956  16.220   0.617  0.0058 -0.2298 -0.1142
25918W        W46198  15.463   9.187   1.313  0.4476 -0.0469  0.0703
25919W        W46199  12.813   3.108   2.566  0.0427 -0.1477  0.0134
25920W        W46200  12.255  11.903  12.963 -0.0969 -0.2163 -0.1967
25921W        W46201  13.612   3.428   0.466  0.1775  0.0411  0.1150
25922W        W46202  15.652  10.513  16.563 -0.2485 -0.2149  0.1170
25923W        W46203   9.802  13.639   3.461 -0.1185 -0.0977  0.0078
25924W        W46204   3.749  13.053  16.470  0.0821  0.0027 -0.0916
25925W        W46205   5.338   4.610  15.332  0.1301  0.2938 -0.0446
25926W        W46206   3.610   1.327   2.994 -0.1885  0.2104  0.0883
25927W        W46207   8.422  12.847   2.929 -0.3066  0.0045  0.0150
25928W        W46208  14.154   0.352   3.089 -0.0005  0.1706 -0.1658
25929W        W46209  12.746   7.845  14.321 -0.1065 -0.0947 -0.0857
25930W        W46210   0.857  13.634   2.416  0.1599  0.1186 -0.2446
25931W        W46211   0.288   3.039   3.784 -0.1214  0.1569  0.2732
25932W        W46212   1.691   6.390   3.654  0.0843  0.0798  0.1774
25933W        W46213  16.104  13.447   0.034 -0.0812 -0.0033  0.2253
25934W        W46214  14.249   1.526  14.139  0.3470  0.4431  0.4076
25935W        W46215   8.686   4.125   0.570 -0.1111  0.0937 -0.1725
25936W        W46216   7.561  14.395   1.549 -0.2741  0.3760  0.1537
25937W        W46217   4.313  14.935   0.527  0.0645 -0.0212 -0.0509
25938W        W46218   4.724  12.700  15.105 -0.2507  0.2325 -0.2491
25939W        W46219   4.709  10.301   5.810  0.0368  0.1830  0.1193
25940W        W46220  15.482  11.840   1.867  0.2460 -0.1334 -0.1097
25941W        W46221   9.059  10.582  14.046 -0.1554  0.0458  0.4381
25942W        W46222   3.036  12.437   0.540 -0.1087 -0.5558  0.1200
25943W        W46223  10.857   7.724   1.188 -0.0035  0.0004  0.2231
25944W        W46224   1.140  11.652  16.474  0.0638 -0.2979  0.1604
25945W        W46225   1.513   1.573  12.179  0.0830  0.2545  0.1799
25946W        W46226  12.139  14.085  14.798  0.0582  0.0052 -0.1280
25947W        W46227   9.474   2.372   2.266  0.0504 -0.2434  0.1224
25948W        W46228   9.655   3.122   3.947 -0.1547  0.1523 -0.1838
25949W        W46229   5.690  15.925   3.555  0.2054  0.0859  0.0352
25950W        W46230   3.167   6.721   3.644  0.1884  0.0872  0.1478
25951W        W46231   6.182   2.494  14.220 -0.3457  0.2031  0.0677
25952W        W46232   3.334   9.616  14.763  0.1443 -0.4610 -0.0814
25953W        W46233  10.872   4.058   1.197 -0.4548 -0.3231 -0.1149
25954W        W46234   2.182   4.218   4.494 -0.2737 -0.1491  0.1528
25955W        W46235  13.851  10.147  16.639  0.2986 -0.1156 -0.0339
25956W        W46236   3.025  17.178  12.408  0.1467  0.5177  0.0910
25957W        W46237  13.629   4.826  13.026  0.1053 -0.0171  0.3165
25958W        W46238  13.109   7.363  12.347  0.0731  0.0863 -0.1542
25959W        W46239  10.922   0.584  15.717 -0.0244  0.0384  0.1028
25960W        W46240  14.345  16.698   1.771 -0.0753  0.1084  0.0744
25961W        W46241   1.770   2.023  16.788  0.0959 -0.1002  0.1150
25962W        W46242   5.895  16.251  16.850 -0.1426  0.1041 -0.0014
25963W        W46243  15.820  13.777  14.808  0.0057  0.0374 -0.0774
25964W        W46244  11.772  13.369   3.728  0.0038 -0.0578  0.4043
25965W        W46245   8.915   6.323   1.005 -0.0566 -0.0254  0.0371
25966W        W46246   3.285  17.611  16.843  0.0814  0.0293 -0.1676
25967W        W46247   3.229   7.453   2.221  0.0400 -0.0788  0.1881
25968W        W46248  17.648   6.104  14.826 -0.1348 -0.0167 -0.0907
25969W        W46249   9.771  15.622  15.692  0.1951  0.1585  0.0451
25970W        W46250  14.635   7.639  15.424  0.1095  0.0700  0.1976
25971W        W46251  16.023  15.131   4.309 -0.3936  0.1788  0.1675
25972W        W46252   6.507   0.163  16.705  0.2105 -0.2093  0.2699
25973W        W46253   2.103   6.057   1.625  0.1834  0.2993 -0.3268
25974W        W46254  16.614   8.044   3.272  0.2632 -0.2229 -0.0458
25975W        W46255  12.530   1.459  12.735  0.0892 -0.1633 -0.0574
25976W        W46256   9.559   5.465   1.781 -0.0126  0.0213 -0.1083
25977W        W46257   9.115  11.496  14.140 -0.1744 -0.3473 -0.1049
25978W        W46258   9.596   0.272   3.401  0.0183 -0.0696  0.1657
25979W        W46259   5.846   9.246   2.851 -0.1057  0.0251 -0.0850
25980W        W46260  10.433  12.641  13.174 -0.0381 -0.0208  0.1256
25981W        W46261   5.882   3.439  12.031 -0.0256 -0.0411  0.1674
25982W        W46262   5.356  15.083  15.262 -0.0329  0.0301 -0.1530
25983W        W46263   5.467   0.522  15.315 -0.0279 -0.1840 -0.1603
25984W        W46264  17.267   4.057   2.566  0.1439  0.1478 -0.1472
25985W        W46265   4.334   6.082   2.129 -0.0642 -0.1384  0.0193
25986W        W46266  13.432   7.320   3.311 -0.3443 -0.0103  0.0816
25987W        W46267   4.451   9.145  13.394  0.1633 -0.3143 -0.4113
25988W        W46268   5.790   8.287  16.535  0.0318  0.0813  0.1477
25989W        W46269   7.774   2.938  15.387  0.2047  0.1297  0.0337
25990W        W46270   0.620  11.214  16.067 -0.0542 -0.2495 -0.1965
25991W        W46271   4.242   2.180  12.865 -0.0023  0.2803 -0.1215
25992W        W46272  12.818  17.596   4.548 -0.1288  0.0773 -0.0286
25993W        W46273   7.018   1.854  13.820 -0.1517  0.4074 -0.2521
25994W        W46274   6.332  17.075  14.181  0.2396 -0.0269 -0.2072
25995W        W46275  11.533   5.226   2.422 -0.2286 -0.0158  0.3983
25996W        W46276   5.387  13.152   2.538  0.1059 -0.0196  0.4406
25997W        W46277   4.209   6.364   2.693  0.1450 -0.0722 -0.0764
25998W        W46278  13.486   0.375   1.248 -0.2134 -0.0820  0.1846
25999W        W46279   5.790  14.942  13.970  0.2461  0.0890 -0.2485
26000W        W46280  11.790   8.447   4.329  0.0139  0.2073 -0.1497
26001W        W46281   3.987  17.214  13.234  0.0888  0.1176  0.2333
26002W        W46282   5.593   7.967   1.918  0.4180  0.1715 -0.2388
26003W        W46283  15.006   6.418  14.908  0.0189 -0.0829 -0.1646
26004W        W46284  10.358   6.913   2.513  0.2894 -0.0083 -0.1247
26005W        W46285   9.293   1.588   3.961  0.0413  0.1001 -0.3280
26006W        W46286   1.957  15.151  15.486  0.2524 -0.0740  0.2395
26007W        W46287   0.367   8.900  16.373  0.0410  0.1205  0.0912
26008W        W46288  10.732  11.913  12.867 -0.1013  0.0923 -0.0925
26009W        W46289  16.207  13.664   4.394 -0.4160  0.1837 -0.1760
26010W        W46290  15.329   5.609   2.717 -0.1757 -0.1605 -0.0519
26011W        W46291   2.989   1.803   1.504  0.1329 -0.2113 -0.1276
26012W        W46292   6.841   2.734   0.876  0.0669  0.0535 -0.1474
26013W        W46293  11.412  15.210   1.032 -0.2114 -0.1951  0.0287
26014W        W46294  14.366  14.472  15.272 -0.3805 -0.0910  0.1289
26015W        W46295  11.742  12.158   2.309  0.1417  0.0140  0.1278
26016W        W46296   6.031  11.424   0.358 -0.2489 -0.0689 -0.1671
26017W        W46297   9.782   6.950  16.458  0.2540 -0.1810  0.1614
26018W        W46298  13.300   9.005  13.887  0.3318 -0.2686 -0.0040
26019W        W46299   9.716   0.605  12.733  0.0683 -0.1419  0.0733
26020W        W46300   1.236   4.098  16.330 -0.0541  0.0816  0.2926
26021W        W46301  12.714   0.878   4.414  0.1652 -0.0950  0.0155
26022W        W46302  13.872   1.640  12.441 -0.1151 -0.1921 -0.3470
26023W        W46303   0.035   8.778  16.806 -0.0149  0.0805  0.1230
26024W        W46304  14.677  10.011   5.089  0.1384 -0.0956  0.0734
26025W        W46305   4.447   1.283  16.756 -0.1319 -0.3581  0.2278
26026W        W46306   5.673  11.832   1.869  0.1241 -0.3297  0.0766
26027W        W46307   0.824   1.787   0.476 -0.0647  0.1730 -0.2762
26028W        W46308  13.806  11.268   5.361  0.0272  0.0116  0.2504
26029W        W46309   2.063  16.262  16.577 -0.0611  0.2092 -0.0749
26030W        W46310   1.162   9.150   5.841  0.1723 -0.2215  0.0312
26031W        W46311  11.696   4.016   3.301  0.1199  0.1594  0.1700
26032W        W46312   4.724  11.272   2.589  0.0406  0.0659 -0.3355
26033W        W46313   3.041   5.136   2.373  0.1832  0.1175  0.0192
26034W        W46314   3.184   4.097  14.319 -0.1926 -0.1696  0.0160
26035W        W46315  13.553   1.717   4.820  0.1601 -0.1379 -0.1676
26036W        W46316   8.934  15.925  13.701 -0.1009 -0.0039  0.3428
26037W        W46317   3.802  13.693  13.482  0.3391  0.1558 -0.0064
26038W        W46318   0.391   9.643  12.857  0.0571 -0.1586 -0.0986
26039W        W46319  14.290  13.535   3.154  0.0778 -0.1386  0.1787
26040W        W46320  11.728   9.602   3.405  0.1818  0.0421 -0.1140
26041W        W46321  11.952  10.083  13.217  0.2637 -0.0480  0.0871
26042W        W46322   2.581   4.135  13.107 -0.2158 -0.2418  0.0712
26043W        W46323   7.694  15.419  16.729  0.0136  0.1099 -0.0321
26044W        W46324  14.015   6.690  16.678 -0.2259 -0.1101  0.2844
26045W        W46325  15.668  14.679   0.052 -0.1327  0.0579  0.2081
26046W        W46326  17.190   3.667  12.960  0.2856  0.5543 -0.1240
26047W        W46327  15.508   8.287  11.156  0.1589 -0.0969 -0.0349
26048W        W46328   2.675  17.380   3.134  0.0480 -0.0392  0.1362
26049W        W46329   9.286  17.541   1.802  0.2072 -0.0552 -0.3719
26050W        W46330   6.592  13.229  11.992  0.1479  0.3290 -0.1628
26051W        W46331   9.685   4.414   1.634  0.1320 -0.0631 -0.0034
26052W        W46332   5.352   9.143  16.700 -0.4504 -0.2363  0.0125
26053W        W46333   8.229  11.925   4.255  0.0970 -0.0937  0.0367
26054W        W46334  10.611   3.612   0.496  0.2050 -0.1607  0.0884
26055W        W46335  12.025   0.300  16.724 -0.1017 -0.1482  0.0226
26056W        W46336   0.688  14.059   4.570  0.0148 -0.0423 -0.3065
26057W        W46337  10.330   1.692   1.637  0.1089  0.1030  0.0289
26058W        W46338   9.779  17.324  12.449  0.1146 -0.1303 -0.0811
26059W        W46339   6.215   4.926   4.601  0.2251  0.0194 -0.1086
26060W        W46340  17.650  11.284  16.769  0.2013 -0.0700  0.1842
26061W        W46341   5.434   1.688   4.246 -0.3276 -0.1214  0.0688
26062W        W46342   0.139   6.989   4.228 -0.1115 -0.2715  0.2812
26063W        W46343   6.412   3.325   3.642  0.1509  0.3039 -0.3475
26064W        W46344   3.981   2.688   2.481  0.0210 -0.1733  0.2220
26065W        W46345   9.708   0.691  12.080 -0.0574 -0.1354  0.3081
26066W        W46346   1.100  12.000   0.235  0.2828 -0.0354 -0.0957
26067W        W46347  11.267   1.576   1.724  0.0774  0.0269  0.3575
26068W        W46348  10.998   2.455   4.787 -0.0012 -0.0499  0.2069
26069W        W46349   5.418  14.755   3.580 -0.0362 -0.3128  0.1822
26070W        W46350  10.271  15.061  15.135  0.1746 -0.2201  0.0188
26071W        W46351  13.257   5.247   3.651  0.1939 -0.1055  0.1410
26072W        W46352   3.801  11.238  13.687 -0.1647  0.0533  0.4343
26073W        W46353  15.774   9.299  12.003  0.5608 -0.1092 -0.0170
26074W        W46354  11.559  16.804  16.319  0.0265  0.1145 -0.2065
26075W        W46355   2.842  10.483   4.081  0.2700 -0.3071  0.1602
26076W        W46356   3.886   7.456  14.224 -0.0926 -0.3314  0.1912
26077W        W46357   7.652   1.302  14.475  0.1546  0.1170  0.0370
26078W        W46358   3.015   9.842  13.159  0.3381 -0.1537 -0.1090
26079W        W46359  15.057  16.483  14.962 -0.0363  0.1543 -0.1556
26080W        W46360   6.752   4.153   3.601  0.5219 -0.1337  0.1166
26081W        W46361  16.416   2.966   2.860 -0.0470  0.2646  0.2160
26082W        W46362  16.141   8.950  13.438  0.0972  0.1599  0.1075
26083W        W46363  16.971   0.278  16.526  0.0150 -0.1785 -0.2103
26084W        W46364   8.624   4.235   1.566  0.0511  0.2211 -0.0756
26085W        W46365  11.108  11.385   3.071  0.1913 -0.0683  0.2278
26086W        W46366   6.002   9.803   3.928 -0.2222  0.3390 -0.5169
26087W        W46367  10.683  16.759  14.035 -0.1221  0.0265 -0.1070
26088W        W46368   9.066  13.766  13.526  0.3981 -0.0234 -0.2979
26089W        W46369   9.715  15.919   0.704 -0.1776  0.1794 -0.3387
26090W        W46370   1.635  14.837   2.975 -0.0564  0.0723  0.3115
26091W        W46371  10.959   7.406   4.720 -0.1565  0.1988  0.1862
26092W        W46372  14.622   9.910   1.614 -0.1089 -0.1059 -0.2330
26093W        W46373   6.899  15.150  12.474  0.1238  0.0014 -0.0723
26094W        W46374  16.884   0.640   1.888 -0.3652 -0.2182  0.1161
26095W        W46375   1.913   2.068  12.930 -0.0567 -0.0999  0.0679
26096W        W46376  17.175   4.522  16.302  0.2044  0.0542  0.1440
26097W        W46377  14.827   3.534  13.155 -0.1721  0.1448 -0.0878
26098W        W46378  15.295  12.361   0.478 -0.1181  0.2279  0.1602
26099W        W46379   4.329   3.786   4.496  0.0745  0.0337 -0.2396
26100W        W46380   7.839   7.178  15.384 -0.2203 -0.2855 -0.1957
26101W        W46381  10.892  15.824   1.536  0.2827 -0.1386  0.1455
26102W        W46382  15.115   7.097   4.677 -0.1761  0.0769 -0.1810
26103W        W46383   9.840   7.121  12.798  0.0298  0.3165 -0.2521
26104W        W46384   9.226  13.381   1.941 -0.0737  0.0154  0.2186
26105W        W46385   0.249   3.447  12.285  0.1652 -0.3588 -0.0008
26106W        W46386  15.959   0.284  16.352  0.3509 -0.0417  0.2547
26107W        W46387  15.169   3.839   3.868 -0.0137 -0.2033 -0.0402
26108W        W46388   2.014   3.125   2.626  0.0872  0.0187  0.3367
26109W        W46389   0.624   0.182   0.931 -0.0622 -0.0432 -0.1408
26110W        W46390   6.786  16.731  16.881 -0.0813  0.2572 -0.0113
26111W        W46391   0.063   5.057  13.301  0.3155  0.2116 -0.1317
26112W        W46392  10.997   8.958   1.700  0.2127 -0.3237 -0.3130
26113W        W46393   1.899  13.714  10.995  0.2547 -0.1861 -0.1460
26114W        W46394  14.257   8.805   1.902  0.3282  0.3270  0.1685
26115W        W46395  15.752  12.697   2.009  0.0597 -0.3123  0.0633
26116W        W46396   7.241   8.317  14.145 -0.1081 -0.0118 -0.0425
26117W        W46397   8.194   2.101   1.576  0.1630  0.0231 -0.0394
26118W        W46398  12.708   0.333   4.496  0.0677  0.3447  0.1039
26119W        W46399   3.465   3.493   4.610 -0.1398 -0.1298  0.1233
26120W        W46400  13.458  15.673  14.868 -0.0895  0.1927  0.0868
26121W        W46401  15.607  14.009  15.225  0.1339  0.0061 -0.0906
26122W        W46402   0.918   2.308  12.750 -0.1082  0.0612 -0.0130
26123W        W46403  15.927  16.763   2.159  0.1265  0.0051  0.2066
26124W        W46404  16.997  11.659   0.425 -0.1997 -0.1491 -0.0430
26125W        W46405  13.877   2.252   4.965 -0.0252 -0.1149 -0.1685
26126W        W46406  17.058   5.121  14.425  0.0223 -0.2717 -0.0331
26127W        W46407   1.041   0.004  16.795 -0.0682 -0.2107 -0.0653
26128W        W46408  14.273   4.520  14.404 -0.3385  0.0191  0.2438
26129W        W46409  15.683   7.751   4.285 -0.0024  0.1398  0.0607
26130W        W46410   8.042  15.396  12.993  0.1613 -0.3054 -0.1001
26131W        W46411   6.153  12.513  13.828 -0.2076  0.3445  0.0837
26132W        W46412   0.384   9.071  15.577  0.2200  0.1196 -0.2898
26133W        W46413   1.025  17.312   3.851  0.0406 -0.0307  0.0587
26134W        W46414   8.438   7.070   0.602 -0.2093  0.0255 -0.0931
26135W        W46415   2.855   1.280   2.371 -0.1551 -0.4088 -0.0843
26136W        W46416   1.328  15.057  12.482  0.2194  0.3759 -0.2329
26137W        W46417   5.711  16.523  12.570 -0.0135  0.1702 -0.1387
26138W        W46418   2.561   0.039  12.331 -0.0321  0.1574  0.0837
26139W        W46419  14.441   5.557   2.911 -0.0895  0.0227  0.1543
26140W        W46420  13.514   3.300  13.571  0.0599 -0.1252  0.1928
26141W        W46421  14.384   3.926   1.569  0.0417 -0.1163 -0.0470
26142W        W46422   3.851   5.422  14.969  0.0128 -0.3436  0.1082
26143W        W46423  10.659   5.412  15.824 -0.2822 -0.2970  0.0344
26144W        W46424  12.995  15.926   3.566  0.5506  0.0501  0.0775
26145W        W46425   0.953   5.316   0.945 -0.2966 -0.0577  0.0723
26146W        W46426  14.687   7.308   0.343 -0.0436  0.0475 -0.0635
26147W        W46427  16.758  16.564   1.964  0.1630 -0.1439  0.4809
26148W        W46428  10.863   6.075   2.770 -0.0951 -0.0657  0.1192
26149W        W46429  16.981  17.598   2.631 -0.0181 -0.0466  0.1513
26150W        W46430  12.352   1.039  16.031 -0.0432  0.0137 -0.1540
26151W        W46431  11.965   1.561   1.122  0.1406 -0.0427  0.2022
26152W        W46432   9.048   2.409  16.212 -0.0909  0.1184  0.0464
26153W        W46433   6.122  15.055   2.514  0.0710  0.1193 -0.2759
26154W        W46434   1.288   1.974   0.481  0.2484 -0.1143 -0.2026
26155W        W46435  13.253   2.031  15.297  0.0105  0.0373  0.1372
26156W        W46436  14.659   8.360  16.194 -0.0721  0.0634  0.0517
26157W        W46437   8.182   8.382   5.615 -0.1853 -0.0095  0.2166
26158W        W46438  17.163   2.246   0.226  0.3075  0.0852  0.2691
26159W        W46439  11.483  17.085  12.917  0.0829  0.2011 -0.0805
26160W        W46440   3.842  12.403   3.157 -0.0943 -0.1299 -0.0089
26161W        W46441  15.092  11.611   1.192  0.2016 -0.1318 -0.3099
26162W        W46442   6.804   5.528   2.952  0.2557  0.0113  0.1616
26163W        W46443  10.799  15.042  13.789 -0.2606  0.1898 -0.1475
26164W        W46444  12.632  13.615   4.264  0.4278  0.0004 -0.2074
26165W        W46445  14.898   0.297   3.876 -0.0182  0.0424 -0.3215
26166W        W46446  13.893   4.084   2.568 -0.0740 -0.3820  0.0583
26167W        W46447  10.041  12.973  14.661 -0.1812 -0.0000  0.2950
26168W        W46448   5.459   3.430   0.987 -0.0576 -0.0916  0.1024
26169W        W46449   6.928  12.518   0.072 -0.1482 -0.0310  0.2860
26170W        W46450   0.963  16.053  14.670  0.1588 -0.1910 -0.1155
26171W        W46451   8.197   8.185   0.631  0.2867 -0.1568  0.0254
26172W        W46452  12.539  14.890   0.347  0.0324 -0.1756  0.0894
26173W        W46453   6.014  15.929   3.072 -0.2499  0.1419  0.1943
26174W        W46454  14.123   0.117   1.793  0.2065 -0.1002  0.0475
26175W        W46455   6.143   9.192  12.359  0.0245 -0.0257  0.1958
26176W        W46456   5.009   4.526   2.229 -0.0298 -0.2204  0.1488
26177W        W46457  11.679  17.203  16.105  0.1609  0.1452 -0.0220
26178W        W46458   7.955  10.249  13.282  0.0522 -0.0609  0.5316
26179W        W46459  17.071  16.041  12.458 -0.0632 -0.0282 -0.1425
26180W        W46460  16.743   3.694   0.791  0.1687 -0.1076 -0.1432
26181W        W46461   9.445   9.120  14.498  0.2795 -0.1816  0.2024
26182W        W46462   6.047  16.999   0.148 -0.1439  0.3408  0.0213
26183W        W46463   8.232   7.893  13.208 -0.1771  0.0084  0.0197
26184W        W46464   1.954   4.621   1.488 -0.2579 -0.0336 -0.1388
26185W        W46465   1.151  10.068  16.443 -0.2627  0.1587 -0.1283
26186W        W46466   7.719   0.842   2.962 -0.0982  0.0061  0.0692
26187W        W46467   2.483   3.301   1.480 -0.1458  0.2856  0.1920
26188W        W46468   8.685  11.473  14.468 -0.3865 -0.0031  0.0200
26189W        W46469  16.803  11.997   1.267  0.0116 -0.0587 -0.0772
26190W        W46470   7.682   7.801   2.429 -0.1414  0.0532  0.1359
26191W        W46471  11.351  11.164   0.240  0.1211 -0.3001  0.0623
26192W        W46472   0.966  17.148   3.354 -0.0776  0.0384  0.0155
26193W        W46473   3.021  10.128  16.847 -0.0749  0.1187 -0.2815
26194W        W46474   4.457  15.220   4.254  0.2708  0.0939 -0.4296
26195W        W46475  11.740  13.874   0.870 -0.0162  0.0811  0.0366
26196W        W46476   9.398  13.348  12.231 -0.2473 -0.2505  0.1082
26197W        W46477   7.974  14.775  15.546  0.0796  0.0831  0.0826
26198W        W46478  10.722  13.337  12.251 -0.4478  0.0697  0.0554
26199W        W46479  15.558   6.508  13.505  0.0576 -0.0220  0.1295
26200W        W46480   7.842  13.058   2.943 -0.1358 -0.2876  0.2148
26201W        W46481   2.961   8.913   2.564 -0.2470  0.2728  0.0531
26202W        W46482   7.070   1.796   4.232  0.2753  0.1137  0.2120
26203W        W46483   8.208  10.375   2.601  0.0613  0.1615  0.0472
26204W        W46484  13.895  11.564   0.508 -0.1709 -0.1229 -0.0156
26205W        W46485   5.250   1.182  14.711 -0.3258  0.2549  0.0322
26206W        W46486   4.452  14.101   4.110 -0.2481 -0.0714 -0.3820
26207W        W46487   7.939  16.680   3.029 -0.3413  0.2420  0.1977
26208W        W46488  13.590  10.798  12.569 -0.0406 -0.0107 -0.2271
26209W        W46489  10.175   4.176   4.112  0.0856  0.1386 -0.3113
26210W        W46490   7.167   0.022  14.700  0.0376 -0.0302  0.2772
26211W        W46491   5.508   0.292  12.784  0.2026 -0.1696  0.0051
26212W        W46492  12.293   2.398  16.147  0.1284  0.1034 -0.1955
26213W        W46493   6.494   3.579  13.406  0.2810 -0.1566 -0.0988
26214W        W46494  14.099  14.655  14.418 -0.1295  0.1524  0.0587
26215W        W46495  16.141   8.681   1.454 -0.2370 -0.0699 -0.0833
26216W        W46496  11.671   0.625   3.656 -0.1432 -0.1372  0.1774
26217W        W46497   7.315  14.633  13.682 -0.0526 -0.1514 -0.0088
26218W        W46498  16.048  12.301  13.079 -0.1999 -0.0937 -0.1923
26219W        W46499   8.834  10.434   4.951 -0.0613  0.0617 -0.1010
26220W        W46500   8.857  11.520  14.979  0.0052 -0.0319 -0.1594
26221W        W46501   7.408  17.078  12.729 -0.1080 -0.1364  0.4408
26222W        W46502  12.012   5.707   4.410 -0.1110 -0.3298 -0.0197
26223W        W46503  17.728   5.341  16.161 -0.1793 -0.0719 -0.0384
26224W        W46504   5.974   7.374  16.257 -0.0612 -0.6711 -0.2570
26225W        W46505  14.014   5.410   1.665 -0.2625 -0.2227  0.0642
26226W        W46506   0.144   9.858  15.640  0.1417  0.2666 -0.2962
26227W        W46507  17.058  14.020   3.079 -0.1086 -0.0048  0.2074
26228W        W46508  14.853   5.429   4.455 -0.0452 -0.0215 -0.0011
26229W        W46509  16.176   8.239  11.622  0.0240  0.1782  0.3072
26230W        W46510   7.071  14.853  14.059  0.0192  0.0528  0.0500
26231W        W46511   2.177  10.575   1.982 -0.3371 -0.1093 -0.0932
26232W        W46512  13.434   5.449   0.435 -0.0018  0.0909 -0.0038
26233W        W46513   3.567   7.468   2.539  0.0199 -0.0154  0.1937
26234W        W46514   9.524  10.235   3.129  0.1130 -0.2909 -0.0950
26235W        W46515   3.689  14.959  16.594 -0.0990 -0.1010  0.1138
26236W        W46516  11.197  15.969  12.540  0.0000  0.0220 -0.1057
26237W        W46517   7.103  11.884   0.896  0.3249 -0.3545 -0.0905
26238W        W46518   6.711   6.906   0.857  0.0734 -0.1355  0.2432
26239W        W46519   5.976   8.130   3.036 -0.0548 -0.2686  0.2441
26240W        W46520  16.725  10.040   4.057  0.1085 -0.1507  0.3381
26241W        W46521  14.506   0.513  16.232  0.2176 -0.0450 -0.1027
26242W        W46522   4.877   1.665   0.657 -0.3119 -0.1453 -0.0990
26243W        W46523   2.386  16.105  16.156  0.0148 -0.1626 -0.0556
26244W        W46524   8.548   7.765  15.115 -0.2011  0.0307 -0.2612
26245W        W46525  13.049  10.770  15.234  0.2501  0.3092 -0.1912
26246W        W46526   4.736  11.035  14.198 -0.4102 -0.2028 -0.0657
26247W        W46527   4.387   4.325  13.642 -0.0137  0.0097  0.2230
26248W        W46528  13.113   3.363   3.670 -0.0089 -0.0875 -0.0645
26249W        W46529  14.795   8.612  12.856  0.0870 -0.2008 -0.2590
26250W        W46530   9.850   3.298   3.439 -0.1610  0.0182  0.1786
26251W        W46531  11.679  14.066   2.193  0.2461  0.1349 -0.1468
26252W        W46532   3.936  12.105   4.189 -0.0826  0.1139  0.1273
26253W        W46533  12.399   9.657  14.586  0.0834  0.0749 -0.0694
26254W        W46534  14.429   0.514  13.273 -0.4132 -0.1239  0.1358
26255W        W46535   6.447  14.890  14.613 -0.0764 -0.1317  0.0781
26256W        W46536  12.905   0.055   5.072  0.1559 -0.1273 -0.0238
26257W        W46537   3.697   4.241  12.318  0.3865  0.1599  0.5046
26258W        W46538  12.875   8.660   3.550  0.1997 -0.1227  0.0314
26259W        W46539   3.337  10.626  14.244 -0.0931  0.3654 -0.0229
26260W        W46540   5.636   3.014  13.049  0.1429  0.0271 -0.2534
26261W        W46541   6.274  11.517  11.962 -0.0963  0.1743 -0.1926
26262W        W46542  10.634   6.134  10.533  0.0740  0.0285  0.0956
26263W        W46543   4.897   6.988  12.878  0.2093  0.2701  0.0179
26264W        W46544   6.259   7.645   0.808 -0.3110  0.3054 -0.1967
26265W        W46545   0.685  13.919  14.422 -0.0411 -0.1080 -0.0881
26266W        W46546  15.079  13.121   2.819 -0.2416  0.0036  0.0145
26267W        W46547  12.183  17.656   0.922  0.0114  0.1054  0.0560
26268W        W46548   5.715  12.887  15.941 -0.0519  0.0412 -0.0703
26269W        W46549  12.793  15.296  13.812 -0.1797  0.2272 -0.0184
26270W        W46550   1.244   1.451   0.514  0.0907 -0.2355  0.0866
26271W        W46551   2.601   1.908  12.589 -0.3692 -0.0718 -0.3735
26272W        W46552  16.240  13.554  14.274 -0.0578 -0.2405 -0.1923
26273W        W46553   4.936   4.111  16.644  0.0766 -0.0106  0.1433
26274W        W46554  11.312   2.326   5.184  0.0487  0.0989  0.4616
26275W        W46555   0.861  15.374   0.789 -0.2174  0.2376 -0.0956
26276W        W46556  13.585   0.552   3.876  0.1474  0.2700 -0.1032
26277W        W46557   5.206  15.710  12.377  0.0222 -0.1459  0.2377
26278W        W46558  10.180   6.671  16.428  0.2826 -0.2325  0.2264
26279W        W46559   1.430   8.307   3.795 -0.3255 -0.1060  0.0615
26280W        W46560   1.278   0.343   2.515  0.1624 -0.4019 -0.0757
26281W        W46561  10.153  16.585   5.443  0.1206 -0.0567 -0.0930
26282W        W46562   4.975   4.976   1.481  0.1318 -0.0885 -0.0503
26283W        W46563  16.248   3.460   0.899 -0.0871 -0.1697 -0.0860
26284W        W46564   7.964   2.383   4.134  0.0504 -0.1918 -0.2774
26285W        W46565  14.707  10.547  16.829 -0.4379  0.3705 -0.3078
26286W        W46566   4.008   5.919  12.164  0.1536 -0.1232 -0.1698
26287W        W46567   7.895   1.653  12.927  0.0972 -0.1190  0.0481
26288W        W46568   6.330  11.896   2.717  0.1276 -0.1265  0.1038
26289W        W46569   2.585  13.080  12.874  0.0790  0.0700 -0.2193
26290W        W46570  10.339  10.195  14.231  0.0347  0.0139  0.0739
26291W        W46571   4.880   4.361   1.729  0.1210 -0.3100 -0.2554
26292W        W46572   4.569  12.384   1.226  0.0620 -0.0890  0.0110
26293W        W46573   5.313   8.816  16.351 -0.1904 -0.2078  0.2522
26294W        W46574  14.500  16.279   3.890  0.3408 -0.0346 -0.1100
26295W        W46575  16.464  14.092  13.470 -0.1919 -0.0887 -0.2629
26296W        W46576   1.121   6.189  14.959 -0.0895  0.1310  0.1471
26297W        W46577   8.971   4.919   3.251 -0.2384  0.3463 -0.3273
26298W        W46578   2.090  16.065   0.249 -0.1934 -0.2255  0.1336
26299W        W46579   9.622   2.157   0.987  0.1095 -0.3770 -0.1887
26300W        W46580   2.816   2.962   1.168  0.0569 -0.0155  0.3447
26301W        W46581  14.701  11.072  13.826  0.0883  0.0216 -0.0857
26302W        W46582   0.516  14.157   1.106  0.1452  0.0285 -0.3503
26303W        W46583   4.473  16.792  13.988 -0.0309  0.2071  0.2906
26304W        W46584   0.843   3.849   1.990  0.3673  0.0305 -0.2843
26305W        W46585   6.979   9.896   1.530  0.2857  0.1136  0.0509
26306W        W46586  10.738   1.203   1.141 -0.0535  0.0917 -0.0031
26307W        W46587   1.228   4.054   3.480 -0.1298  0.1502 -0.1820
26308W        W46588   9.228  14.341  15.165 -0.0992  0.1462  0.1553
26309W        W46589   7.281   2.736  14.670 -0.1356 -0.2345 -0.3032
26310W        W46590   9.693   1.993  15.464  0.0237  0.0609 -0.0410
26311W        W46591   6.065  11.351   2.804 -0.1247  0.0228 -0.1254
26312W        W46592  16.851   0.642   3.381  0.1382  0.1354 -0.0155
26313W        W46593   9.901  16.022  12.494  0.2180 -0.1461  0.3984
26314W        W46594   6.914   7.424  15.129  0.0376  0.0438 -0.2853
26315W        W46595  11.012   1.644   2.495 -0.1250  0.1626 -0.0676
26316W        W46596   4.226   4.875  13.922  0.1688  0.0796 -0.4675
26317W        W46597  14.790  14.754  15.185  0.0501  0.3508  0.1383
26318W        W46598  13.820   8.017  14.806 -0.1314  0.0835  0.1190
26319W        W46599  16.417  17.712   0.050  0.1504 -0.2070  0.2681
26320W        W46600  16.855  10.446  13.020  0.0386 -0.0345  0.0783
26321W        W46601   5.081  15.259  14.894 -0.2194 -0.1147 -0.1636
26322W        W46602  17.711   1.772   1.684 -0.1158 -0.0284  0.0877
26323W        W46603  15.209  14.348  15.134  0.0826  0.3370 -0.0871
26324W        W46604   2.741  12.604  12.649  0.0723 -0.1553  0.1410
26325W        W46605   5.564   5.811   2.600  0.0853 -0.1175  0.2566
26326W        W46606   8.964   4.724  15.134 -0.1649  0.2213  0.1017
26327W        W46607   0.515   2.842   4.708 -0.0317 -0.1321 -0.1679
26328W        W46608  12.234   5.312  14.363 -0.0822  0.1172  0.0470
26329W        W46609  12.476   4.072  16.558 -0.1553 -0.0817 -0.2207
26330W        W46610   6.098   6.348   0.338  0.1787  0.0281  0.0202
26331W        W46611   4.853   4.567   0.225 -0.1406  0.1482 -0.1409
26332W        W46612   6.172   0.351   3.805  0.1495  0.0432  0.1262
26333W        W46613  11.460   6.145   1.171  0.1054 -0.3015 -0.2572
26334W        W46614   6.773   9.285   4.519 -0.0409  0.0407 -0.0698
26335W        W46615  10.260  13.992   2.485  0.1063  0.1871 -0.0139
26336W        W46616  17.539  13.400  14.763  0.0176  0.0380 -0.0958
26337W        W46617  15.759   3.780   0.956 -0.1222  0.1421  0.2104
26338W        W46618   0.631   7.570   3.661  0.1289  0.0017 -0.1113
26339W        W46619   0.855  17.272  12.350 -0.0417  0.0285  0.2737
26340W        W46620  10.910   7.103  15.482 -0.0067  0.0925  0.1475
26341W        W46621   3.326  17.706  14.094 -0.0144 -0.0729  0.0609
26342W        W46622   0.845  13.982   0.690 -0.1618 -0.2782 -0.1981
26343W        W46623   0.276   0.277   3.699 -0.2864 -0.1218  0.0202
26344W        W46624   7.250   2.789  16.057  0.2330 -0.0127  0.0795
26345W        W46625   6.960  15.681  16.183 -0.1730 -0.2506 -0.0795
26346W        W46626  15.402   3.771   1.914 -0.1592 -0.2496 -0.0255
26347W        W46627   3.731   7.610   1.409 -0.0078  0.0164 -0.0073
26348W        W46628  12.742  10.962  14.908  0.0190 -0.0419 -0.3271
26349W        W46629   3.899   5.575   2.114 -0.0722  0.0722 -0.0006
26350W        W46630   1.774  10.328   2.246 -0.0448 -0.3216  0.1812
26351W        W46631  12.973   0.897  13.098  0.1487 -0.1130 -0.0459
26352W        W46632   9.269   9.580   0.054  0.1471 -0.0945 -0.0880
26353W        W46633   2.561  14.620   2.551  0.4527  0.0601  0.1895
26354W        W46634   5.203  11.091   2.440 -0.1790  0.1203 -0.0706
26355W        W46635   1.045  11.360   1.549  0.1810  0.1043 -0.0003
26356W        W46636  11.911  14.141   1.307  0.0725  0.0380  0.0332
26357W        W46637  10.017  12.063   3.643 -0.2151  0.1085 -0.1356
26358W        W46638  16.212   7.273  14.076  0.0643  0.0770 -0.0366
26359W        W46639   9.467  17.550  12.183 -0.2106 -0.2198  0.0385
26360W        W46640   6.357   7.458  12.239 -0.1501 -0.1368  0.3026
26361W        W46641   7.860  13.277  16.458 -0.0191 -0.3597 -0.1359
26362W        W46642   0.268  14.851  16.706  0.1287  0.0006 -0.0271
26363W        W46643  16.000  13.985   1.253 -0.1707  0.1047 -0.0538
26364W        W46644  12.567  15.709   1.556  0.1760  0.1841 -0.1308
26365W        W46645  14.309  12.280  14.488  0.2859  0.0072  0.1818
26366W        W46646  12.665   0.675   1.837 -0.0719 -0.5191  0.0507
26367W        W46647   1.179  12.923   1.343  0.2557 -0.4799  0.0166
26368W        W46648   7.035   9.211  15.806 -0.1662  0.1998 -0.3038
26369W        W46649  17.069   9.375   0.906  0.0518  0.1608 -0.0382
26370W        W46650  10.181  12.566   0.538  0.0537  0.0420  0.0854
26371W        W46651  11.112  14.427   0.064  0.0722  0.0456  0.1997
26372W        W46652  12.863  14.537   0.113  0.3208  0.1432  0.1320
26373W        W46653  15.242  11.893   0.826 -0.1541  0.1815  0.2001
26374W        W46654  11.182   1.327  14.367  0.0459 -0.1000 -0.2990
26375W        W46655   7.892   2.684  12.758 -0.1026  0.2389 -0.0302
26376W        W46656   1.632  11.176   1.742  0.2882  0.2298  0.1484
26377W        W46657   0.056   7.023  16.462  0.1296  0.1254  0.3012
26378W        W46658  10.095   8.705  12.350 -0.0189 -0.0213 -0.1830
26379W        W46659   8.041  15.219  15.728  0.5139  0.3087  0.0359
26380W        W46660   3.825  10.192   2.059  0.0887 -0.0438  0.0780
26381W        W46661  11.064  16.881   4.224  0.1507 -0.0674 -0.0826
26382W        W46662   0.880   2.491   3.065 -0.3689 -0.0149 -0.1383
26383W        W46663   6.460   9.110  13.969  0.0349 -0.2529  0.1207
26384W        W46664   4.477   0.740  13.627 -0.3227  0.1429  0.1509
26385W        W46665   4.627   1.331   0.915 -0.0913  0.0747  0.2833
26386W        W46666  13.806   6.887   3.890  0.2881 -0.1471 -0.2275
26387W        W46667   7.620   3.429  13.439 -0.3203  0.2466  0.0822
26388W        W46668   2.268   4.454  15.210 -0.0860  0.2296 -0.2135
26389W        W46669  10.522   2.940   4.095  0.3107 -0.3265  0.0064
26390W        W46670   3.612  11.449  15.753 -0.0575  0.1570 -0.0976
26391W        W46671  11.248  11.233   4.936 -0.0472  0.1943 -0.1849
26392W        W46672  12.956   4.940   2.156 -0.1138 -0.2352  0.3748
26393W        W46673  14.085  10.548  16.213 -0.0809 -0.4138 -0.0886
26394W        W46674   2.162  11.936   2.706 -0.0674 -0.0515 -0.2023
26395W        W46675  12.817  11.801   3.157 -0.1987 -0.0358  0.0917
26396W        W46676   9.169   9.074   0.235 -0.0356 -0.3049  0.4253
26397W        W46677   3.064  13.549  12.287 -0.1329  0.2276 -0.2708
26398W        W46678  10.325   7.540   1.895 -0.1363  0.0816 -0.0229
26399W        W46679   5.929  10.930   2.000  0.3275 -0.0368 -0.0598
26400W        W46680  16.900  16.613   2.888 -0.3850 -0.0068  0.3115
26401W        W46681  15.273  13.892  12.557 -0.1940 -0.2779  0.0365
26402W        W46682   6.317  11.800   1.130 -0.0906 -0.1469  0.2737
26403W        W46683  16.262   6.670  14.862  0.1621  0.1282  0.1061
26404W        W46684   4.949  14.134   4.204  0.2215  0.3005  0.0101
26405W        W46685  14.700   6.360   1.602  0.0691 -0.0601 -0.0688
26406W        W46686  14.988   3.713   0.418  0.0904 -0.1864 -0.2018
26407W        W46687  17.391   3.561   4.925  0.0735 -0.1123  0.0570
26408W        W46688   2.340   7.398   4.372 -0.2350 -0.0803  0.1071
26409W        W46689   1.779   0.129  13.819 -0.2146 -0.3427  0.2631
26410W        W46690   8.192  14.274   4.012 -0.0436 -0.1607  0.3492
26411W        W46691  13.920   7.421   0.463  0.2240  0.3008 -0.1008
26412W        W46692  17.687  10.626  15.220  0.2843 -0.0553 -0.0829
26413W        W46693   4.941   7.223   1.937  0.0400  0.0735  0.2113
26414W        W46694  15.763   3.024  12.919 -0.1004 -0.2921 -0.2032
26415W        W46695   8.756   5.842   2.171  0.3687  0.0186 -0.2174
26416W        W46696   2.951  13.984   0.437 -0.2613  0.0248 -0.0268
26417W        W46697  13.450  11.763   0.217  0.1848  0.2418  0.0593
26418W        W46698   7.838   3.255   4.257  0.0011 -0.1688  0.0972
26419W        W46699   6.953  12.076   4.714  0.0720  0.3432  0.0680
26420W        W46700   3.019   5.599   0.634  0.1978  0.1365  0.0163
26421W        W46701  12.551   6.006   0.608  0.1812  0.1331  0.4524
26422W        W46702   9.823  10.020  14.840  0.0393  0.1821  0.1249
26423W        W46703   7.460   5.294   0.512 -0.0345  0.2634 -0.0463
26424W        W46704  13.671   1.800  15.978  0.0317 -0.2287 -0.0106
26425W        W46705   5.172  14.652   1.644  0.1769  0.1934 -0.1703
26426W        W46706  15.750   9.778   4.970 -0.1603 -0.0050 -0.0910
26427W        W46707   2.658  16.538   3.290  0.2321 -0.4146 -0.0953
26428W        W46708  13.827  17.446  13.333 -0.1565  0.1575  0.1487
26429W        W46709  12.754   4.961   0.772  0.1270  0.0669 -0.0347
26430W        W46710  13.755  14.943   1.128 -0.0687  0.2001 -0.0372
26431W        W46711  13.431  10.612  14.312 -0.3292 -0.3541  0.2287
26432W        W46712   8.659  12.528  16.709  0.2063 -0.1453 -0.0292
26433W        W46713  13.381   8.917   1.382  0.4359 -0.2725  0.1579
26434W        W46714  17.237   7.400  13.804 -0.0462 -0.0871 -0.1037
26435W        W46715   7.491   4.219  12.410  0.3230  0.0879 -0.0731
26436W        W46716   7.264   3.308  14.715  0.0273 -0.2099  0.0144
26437W        W46717   1.419   5.975  13.292 -0.2639  0.0419 -0.1229
26438W        W46718   4.746   1.897  14.622  0.1265 -0.1080 -0.1385
26439W        W46719   9.738   5.381   3.191 -0.0702  0.1893  0.2186
26440W        W46720   8.262   4.546  13.746  0.1132  0.1806 -0.2628
26441W        W46721   9.947  17.029  13.932  0.1945  0.0788  0.0656
26442W        W46722  16.440  17.251  14.309  0.1010 -0.1249  0.0196
26443W        W46723   2.410   8.970   4.517  0.2192 -0.1117  0.0841
26444W        W46724  14.210  14.340  16.719 -0.0041  0.0696 -0.2259
26445W        W46725  13.060  14.412  12.252 -0.2195  0.0759  0.0212
26446W        W46726   7.778  14.186  15.337 -0.0958  0.3048 -0.1447
26447W        W46727   4.255   7.185  14.488 -0.0908  0.4046 -0.2559
26448W        W46728   9.379  15.044  15.025 -0.2496 -0.1643  0.2690
26449W        W46729  17.450   7.570   2.387 -0.1616 -0.0649 -0.2279
26450W        W46730  12.595   8.158   3.916  0.1091  0.0266  0.2092
26451W        W46731   5.229  10.552   3.673  0.0022  0.1101  0.1041
26452W        W46732  17.292   6.506   4.525 -0.0012  0.0554 -0.0194
26453W        W46733   0.655   7.594  16.485 -0.0851 -0.0209  0.0362
26454W        W46734  11.097   1.012   1.469 -0.1869  0.1680  0.0489
26455W        W46735   9.811  16.107  13.018  0.0132  0.1762  0.0368
26456W        W46736  14.896   0.594  16.697  0.0622  0.0400  0.0106
26457W        W46737   3.653  15.986   2.018 -0.0276 -0.0904  0.1128
26458W        W46738   3.999   8.347  12.840 -0.3651  0.1022  0.3943
26459W        W46739  12.561   2.556  13.128  0.1891  0.3094  0.0163
26460W        W46740   7.819   4.925  16.698  0.1029 -0.0992 -0.0304
26461W        W46741  15.381   6.098  14.804 -0.0226  0.1068  0.0650
26462W        W46742   2.677   1.066   3.857  0.1752  0.4256 -0.1396
26463W        W46743   1.074   8.876  15.081  0.1925  0.0746  0.0175
26464W        W46744   2.104   1.771  15.577  0.0324 -0.2573 -0.1294
26465W        W46745  17.349  14.067   3.837  0.2174 -0.0311 -0.0272
26466W        W46746   2.145   4.770   2.732  0.0719  0.3198  0.0832
26467W        W46747  13.991  14.678   1.508  0.0987  0.0512 -0.1048
26468W        W46748   6.840   8.966   2.091  0.1431 -0.3372  0.0349
26469W        W46749  16.677  15.385   4.855  0.0870 -0.1880  0.0342
26470W        W46750   0.580   9.155   2.539  0.0484  0.0343 -0.0852
26471W        W46751  14.525  17.044  12.453 -0.0921  0.0982 -0.0018
26472W        W46752   9.048   7.486  16.139  0.1315  0.2438 -0.3411
26473W        W46753   2.217  13.725  16.417  0.1909 -0.3176  0.0705
26474W        W46754  14.459   6.327  15.637  0.1699 -0.1965  0.2353
26475W        W46755   5.368   0.801   2.334 -0.0256 -0.0333 -0.0884
26476W        W46756   2.258  12.215  16.642  0.2357  0.0157  0.1125
26477W        W46757  15.516   8.439  15.848  0.2207  0.1569 -0.0806
26478W        W46758   2.195  10.112  15.816  0.0049  0.1369 -0.2591
26479W        W46759  13.529   5.515   2.686  0.2143  0.1986 -0.1348
26480W        W46760   5.634  15.879  11.878 -0.0537 -0.1913  0.1026
26481W        W46761  11.006  13.603  13.912  0.1850  0.1396  0.0805
26482W        W46762  14.723  17.040   3.948  0.2531 -0.2529  0.3089
26483W        W46763  13.007   2.981  13.423  0.1246 -0.0739 -0.0848
26484W        W46764   2.117  12.140   0.934  0.3394  0.0495  0.1206
26485W        W46765  10.193   1.220   4.277 -0.1381  0.0367  0.0111
26486W        W46766  16.695  16.547   1.477  0.0330 -0.0104  0.0139
26487W        W46767   2.541   0.501  16.124 -0.0322 -0.1290  0.1625
26488W        W46768   5.080  16.587   4.020 -0.0731 -0.0240 -0.1218
26489W        W46769   1.685   9.815   0.887 -0.2790 -0.0709 -0.4415
26490W        W46770  10.473   3.129   0.425 -0.0788  0.1505 -0.1852
26491W        W46771  15.274  16.332   2.487 -0.4718  0.3363 -0.0907
26492W        W46772   6.036  14.383  12.649 -0.0070 -0.1457 -0.0237
26493W        W46773  17.123   1.438  13.489 -0.0693 -0.3666 -0.0145
26494W        W46774  16.736   6.706  16.276  0.2201 -0.3718 -0.0637
26495W        W46775   2.005  11.036  16.215 -0.1405  0.4207  0.1002
26496W        W46776  12.497  14.966  15.756  0.0634  0.2255  0.0787
26497W        W46777  11.744   2.849  15.302 -0.0027  0.3632 -0.0207
26498W        W46778   1.611  16.296  16.883 -0.0709  0.0650  0.1999
26499W        W46779  15.148  12.101   3.315  0.0608  0.1262  0.2489
26500W        W46780   6.738   3.047  12.303  0.2815 -0.0006 -0.0093
26501W        W46781  15.679   2.138  12.243  0.0055  0.1244 -0.0780
26502W        W46782   6.604   0.426  12.227 -0.0978 -0.0225 -0.1320
26503W        W46783  15.625   5.861  15.720 -0.6331 -0.4070 -0.2002
26504W        W46784  17.373  10.633  12.737 -0.1017  0.0921  0.2568
26505W        W46785   0.393  12.623   5.099 -0.1298 -0.0008  0.3566
26506W        W46786  12.799  15.709  14.144 -0.2330 -0.0471  0.2051
26507W        W46787   3.938  15.056  12.259 -0.2343 -0.0097 -0.0172
26508W        W46788   1.412  15.612   0.567 -0.2761  0.2009  0.0153
26509W        W46789  14.389   0.131  13.538 -0.0101 -0.1094 -0.3163
26510W        W46790   2.675   5.568  12.644 -0.0457  0.0005 -0.1772
26511W        W46791  12.191   3.074  13.063  0.0653  0.2589  0.0585
26512W        W46792   3.899  14.862   4.899  0.0291 -0.3539  0.2900
26513W        W46793   9.998  15.656  12.836 -0.1089 -0.1946  0.2194
26514W        W46794  17.657   7.166   0.745  0.0582  0.2011  0.1384
26515W        W46795   1.267   8.816   1.405 -0.0249 -0.1351  0.0846
26516W        W46796  15.908  10.596  13.010 -0.3767  0.0974  0.3051
26517W        W46797   4.768   0.447  15.755 -0.0186  0.1131 -0.1569
26518W        W46798  10.827  10.644   3.844  0.1644 -0.0293  0.0697
26519W        W46799   9.568  11.370  13.945  0.3374 -0.0490  0.0689
26520W        W46800   2.395   3.512  13.290  0.1411  0.1503 -0.0001
26521W        W46801  15.091  16.034  16.814  0.0316  0.1048 -0.2432
26522W        W46802  13.044  11.297   1.902 -0.0076  0.0547  0.1033
26523W        W46803   4.915  12.810   2.065  0.0630  0.0405 -0.2503
26524W        W46804   5.300  15.671  15.101  0.1398 -0.2187  0.1492
26525W        W46805   9.988  16.449   2.054  0.0558 -0.1540 -0.0031
26526W        W46806  13.249   9.783   0.251  0.2467 -0.3013  0.0093
26527W        W46807  14.514   1.346  13.373 -0.0229 -0.1415  0.0384
26528W        W46808   1.865   5.034   4.759  0.2686 -0.1552 -0.2126
26529W        W46809   9.281   4.147   2.637  0.3027  0.1894  0.1851
26530W        W46810  13.361   9.442  15.683  0.0164  0.0443 -0.3836
26531W        W46811   6.483   5.231   1.083 -0.0650  0.2044  0.0056
26532W        W46812   6.510  11.690  15.185  0.0411  0.0716 -0.1567
26533W        W46813   5.165   2.444   0.514  0.1641 -0.3805  0.2991
26534W        W46814  12.267   7.729  16.818 -0.1331 -0.0536 -0.1036
26535W        W46815   7.551  16.812   1.013 -0.0283  0.0376  0.1633
26536W        W46816  10.347   4.156   1.106 -0.1962 -0.1521 -0.2632
26537W        W46817   1.504   8.739   4.015 -0.2110  0.1235 -0.0701
26538W        W46818   3.309   9.173   4.561 -0.3046 -0.0432 -0.1422
26539W        W46819   5.575   7.966   4.256  0.0525 -0.0846 -0.2796
26540W        W46820   7.092   5.427   0.138 -0.0315  0.3011 -0.0789
26541W        W46821  13.865  14.550  15.790  0.1356  0.0327  0.3999
26542W        W46822   0.592   6.823  13.423  0.0193 -0.0811 -0.1434
26543W        W46823  13.166   5.949  12.639  0.2639 -0.1453 -0.1805
26544W        W46824  15.940   5.548  15.143 -0.1287  0.0234  0.1232
26545W        W46825  10.647   9.748  11.683  0.1172  0.1372  0.0303
26546W        W46826  11.604   9.690  13.944 -0.1339 -0.2525  0.2023
26547W        W46827  13.250  17.687   1.439 -0.0057 -0.2644 -0.1255
26548W        W46828   4.458  16.247   1.702  0.1022  0.4262  0.1863
26549W        W46829   2.006   2.606  15.170 -0.0812 -0.1714  0.2337
26550W        W46830  16.510   4.038  12.443 -0.1891  0.0867 -0.0658
26551W        W46831   2.728  12.759   4.717 -0.1551 -0.1401  0.0673
26552W        W46832   7.202   8.882   2.405 -0.3132 -0.0978  0.1765
26553W        W46833  13.092   5.422   0.851 -0.1512  0.2317 -0.0556
26554W        W46834  16.666   7.917   2.780 -0.3979 -0.2049  0.0367
26555W        W46835   4.800  17.387   2.861 -0.2301 -0.0347  0.1630
26556W        W46836  12.124   1.519  15.766 -0.2160  0.3349  0.0751
26557W        W46837  16.264  10.620   3.380 -0.0409 -0.1087  0.1935
26558W        W46838  12.107  17.550   3.933 -0.0834  0.1211  0.0309
26559W        W46839  15.418   8.064   1.739 -0.1339  0.1504  0.3196
26560W        W46840   0.600  12.966   2.410  0.1859 -0.1928 -0.1270
26561W        W46841   0.250   9.367   2.229 -0.0962 -0.3005  0.0811
26562W        W46842   3.581   6.393   4.808 -0.1411 -0.2420  0.0084
26563W        W46843  10.785  12.168   2.560 -0.0604 -0.0119  0.0674
26564W        W46844   7.272  15.773  15.780  0.1075  0.0310 -0.0649
26565W        W46845  15.711   6.022   4.394  0.1569 -0.0401  0.1145
26566W        W46846   4.840  16.663  15.725 -0.0571  0.1234  0.0358
26567W        W46847  15.983   6.416  13.248  0.0201  0.0320 -0.2534
26568W        W46848   8.754  16.184   4.867 -0.0310  0.2108  0.2674
26569W        W46849   8.296   5.924  12.107 -0.2831 -0.1378  0.2837
26570W        W46850  13.506  17.443  14.745  0.0181 -0.5205  0.0641
26571W        W46851  12.389   9.303  14.128  0.3317  0.0735 -0.0196
26572W        W46852  16.365   4.223   4.390 -0.0362 -0.2716  0.1738
26573W        W46853   6.260  14.703  15.967 -0.0924 -0.0997 -0.0060
26574W        W46854  14.899   9.584   0.732 -0.3190  0.0626 -0.2430
26575W        W46855   5.880   9.557  16.782  0.2903  0.0379 -0.3106
26576W        W46856   2.490   5.100  15.128 -0.0854 -0.1017 -0.3267
26577W        W46857  11.822   6.748  14.975 -0.2148  0.0220 -0.2759
26578W        W46858   7.031   3.710  16.408  0.0171  0.1315 -0.1355
26579W        W46859   0.562   0.272  16.795 -0.0269  0.1659  0.0622
26580W        W46860   6.438  13.389  16.284 -0.2216 -0.1451  0.0039
26581W        W46861  11.927  14.662   3.657 -0.3120  0.0057  0.1869
26582W        W46862  12.260  14.661  14.889 -0.1899 -0.0035 -0.2048
26583W        W46863  17.648   6.488  15.522 -0.2540  0.2007  0.0486
26584W        W46864  15.658  12.864  14.542  0.1266 -0.0914 -0.0605
26585W        W46865   3.922   3.302  14.464  0.1155 -0.0003 -0.1153
26586W        W46866   1.186   8.347   0.027 -0.1593  0.0685  0.1106
26587W        W46867  12.529   5.474  13.220 -0.0334  0.0577 -0.0634
26588W        W46868   9.944  14.515  16.397 -0.1479  0.1735 -0.0620
26589W        W46869   1.832  17.295   2.089 -0.0756 -0.0595 -0.0128
26590W        W46870   4.440  10.273   3.359  0.0063  0.1406 -0.0534
26591W        W46871   6.746  11.661   2.774 -0.0863  0.0222  0.0458
26592W        W46872   6.814  15.660  13.304 -0.1437  0.0552  0.0928
26593W        W46873   6.151  10.849  15.377 -0.2138 -0.1256  0.0268
26594W        W46874  12.249  14.354  15.748 -0.0168  0.0241  0.0597
26595W        W46875   3.976   2.606  16.393  0.0592 -0.0626 -0.0009
26596W        W46876   0.551   8.440   4.294  0.0950  0.0958 -0.1365
26597W        W46877   0.434   7.585   0.867 -0.1691  0.2879 -0.0040
26598W        W46878  10.413   9.282   3.260  0.0331  0.3089 -0.0026
26599W        W46879  10.365  12.968   0.841 -0.0378  0.0314 -0.0904
26600W        W46880   9.402   0.702  15.321  0.0738  0.0689  0.0084
26601W        W46881   9.718   0.646   1.778  0.0878 -0.0155  0.0920
26602W        W46882   7.160   2.805  12.346 -0.1124  0.3078  0.1500
26603W        W46883   5.783  11.765   1.306  0.0208  0.1713  0.2541
26604W        W46884   9.268   3.776   2.332 -0.2937  0.1757  0.2438
26605W        W46885   6.777   7.408   0.907  0.2259  0.2761  0.1142
26606W        W46886   1.922   8.106   0.635  0.1020 -0.0036  0.2006
26607W        W46887   6.491  12.734   1.027  0.0516 -0.0846 -0.0544
26608W        W46888   1.767   5.477  14.900 -0.1014  0.0961 -0.3531
26609W        W46889  15.064   4.513   1.578 -0.1009  0.1430  0.1911
26610W        W46890   3.642   9.367  16.518 -0.1770  0.0206 -0.1530
26611W        W46891  16.305   0.353  14.958 -0.1484 -0.1815  0.0324
26612W        W46892   7.865  15.650   4.554 -0.3385 -0.2165 -0.0222
26613W        W46893  17.262   2.723   3.159 -0.3091 -0.1645  0.1843
26614W        W46894  11.680  14.061  13.330  0.0443 -0.2663  0.1549
26615W        W46895   8.522  16.773   0.146 -0.0129 -0.1021  0.1841
26616W        W46896   3.825   4.455  13.020 -0.1829  0.1415  0.0848
26617W        W46897  10.059   8.443   3.523  0.1085  0.0282 -0.0835
26618W        W46898  13.216   1.760  13.086  0.0889 -0.3788  0.3101
26619W        W46899  15.768   0.350   1.619 -0.3480 -0.2187  0.0421
26620W        W46900  15.091   1.802   0.345 -0.0243  0.3516  0.0630
26621W        W46901  12.258  16.169  15.909  0.2880  0.0520  0.0047
26622W        W46902  17.125  10.115   3.084  0.0021 -0.3642  0.0482
26623W        W46903   7.234  10.402   4.080 -0.1835 -0.1722  0.2074
26624W        W46904  11.931  17.032   3.900 -0.1306 -0.0352  0.3196
26625W        W46905  10.432   7.849  14.420  0.0889 -0.1292 -0.1474
26626W        W46906  12.322   4.422   1.512 -0.1000 -0.1583 -0.1441
26627W        W46907   9.531  15.390  12.893 -0.1275  0.2626 -0.1087
26628W        W46908   7.363  17.432   1.707  0.1545 -0.0670  0.1359
26629W        W46909  11.685   5.307  12.453  0.0113 -0.0310 -0.1659
26630W        W46910  13.432   7.758  14.930  0.0101  0.1905 -0.1410
26631W        W46911  14.042   9.844  12.616 -0.0264  0.0060 -0.0018
26632W        W46912  16.256   0.341   1.530 -0.1072  0.1177  0.1680
26633W        W46913   5.202  11.690   1.503 -0.2876  0.0127  0.0430
26634W        W46914   0.504   9.880   2.227  0.2373  0.1720 -0.1637
26635W        W46915   8.852  10.285  12.355 -0.1911 -0.0374  0.1213
26636W        W46916   6.012  16.457   4.536 -0.0588 -0.2302  0.0993
26637W        W46917   0.776  15.924   4.085  0.0716  0.0007  0.0901
26638W        W46918   7.496  17.356  14.722 -0.1763  0.0847  0.1691
26639W        W46919  15.145  15.790   0.761  0.0981  0.1218 -0.0868
26640W        W46920   3.692  10.406  15.430 -0.2451  0.0170  0.4955
26641W        W46921  12.087   1.696  12.694 -0.2632  0.0658  0.0586
26642W        W46922  15.570  10.578  16.056  0.0156  0.0086 -0.0397
26643W        W46923  11.854   1.536   1.898  0.1293 -0.1242 -0.0145
26644W        W46924   3.639  16.258   1.196 -0.1290  0.0214  0.1521
26645W        W46925  16.392  14.834   3.303  0.0057 -0.1988 -0.0909
26646W        W46926  16.963  12.424  14.598 -0.1012  0.1679 -0.2067
26647W        W46927  12.998  14.113   0.328  0.1506 -0.2051 -0.0746
26648W        W46928  13.832  10.587  13.697 -0.1301  0.0077 -0.1907
26649W        W46929   0.989   8.725  13.441 -0.0572  0.3431 -0.2860
26650W        W46930   0.769   2.984   3.533 -0.1385  0.1215 -0.0621
26651W        W46931   4.360  12.404  16.013 -0.0942  0.0444 -0.0348
26652W        W46932   3.707  16.425   3.808  0.0483  0.0784  0.0205
26653W        W46933   4.152  13.614   1.325 -0.1232  0.0717  0.0152
26654W        W46934   9.377   4.519  12.136 -0.1059  0.1387  0.0886
26655W        W46935   0.620  16.332  12.796  0.4545  0.0905  0.0291
26656W        W46936  11.335   0.135   0.411 -0.1787  0.2016  0.2792
26657W        W46937   5.759  11.538  16.452  0.1033  0.0816 -0.0539
26658W        W46938   6.115  17.147   3.988  0.1796 -0.2235  0.1271
26659W        W46939   2.826  15.416  15.905 -0.1828 -0.3400  0.0231
26660W        W46940   2.819  16.958   1.577  0.0156 -0.2914  0.0164
26661W        W46941   2.174   5.748   2.457  0.1181 -0.2006  0.0267
26662W        W46942  11.005  16.648  16.421  0.1004 -0.0901  0.2818
26663W        W46943   1.702   0.942   1.210  0.3116 -0.1460  0.0575
26664W        W46944  11.653  13.446  16.027  0.2028 -0.2040  0.0185
26665W        W46945   9.674  13.170   3.593 -0.2632 -0.0260  0.2558
26666W        W46946   6.072   3.301  13.180 -0.0143 -0.2485 -0.0686
26667W        W46947   0.892  10.614   2.348  0.0009  0.0131 -0.2992
26668W        W46948   6.119  10.115   1.371  0.1710  0.3172  0.2090
26669W        W46949  10.522  13.547  13.598  0.1105 -0.1259 -0.1336
26670W        W46950   1.460  15.637  14.046 -0.3113  0.3913 -0.0623
26671W        W46951  15.110   9.437  16.813  0.0356 -0.0229  0.1321
26672W        W46952  14.991   3.374   4.326 -0.0001 -0.1284  0.0736
26673W        W46953   4.124  11.011   1.779 -0.0293 -0.0525 -0.1238
26674W        W46954   4.870   3.492  14.000 -0.2610 -0.1447 -0.2642
26675W        W46955   4.797  13.291   5.112 -0.2327  0.0531 -0.0184
26676W        W46956   7.407  13.811   1.866  0.0491 -0.0041  0.3233
26677W        W46957   5.243   2.412  14.027  0.1428 -0.1428  0.1646
26678W        W46958   9.864  11.271  15.766  0.2108 -0.0996 -0.0177
26679W        W46959   5.793   3.619  14.331 -0.0198 -0.2693 -0.0805
26680W        W46960  14.187   5.036   3.281 -0.1264  0.2138 -0.1018
26681W        W46961   2.244   5.768   4.150 -0.4104 -0.0499 -0.0031
26682W        W46962  11.562   3.934  16.783 -0.4094  0.1686 -0.2156
26683W        W46963  17.266  10.156   4.222 -0.2106 -0.1088 -0.1536
26684W        W46964  14.217  12.752  12.307 -0.2899 -0.3303  0.0132
26685W        W46965  14.377  13.317   2.666  0.1486  0.0936 -0.2689
26686W        W46966   4.332   9.990   0.778 -0.0692  0.1910  0.0836
26687W        W46967   2.418   4.823   4.103  0.6113  0.0727 -0.1831
26688W        W46968   1.495  10.736   1.553  0.1931  0.1330 -0.0340
26689W        W46969   9.981   9.755   0.200 -0.3189  0.2358 -0.0030
26690W        W46970  11.272   1.134  13.053 -0.2391  0.2035 -0.0395
26691W        W46971   2.183   4.319  13.369  0.1004  0.0915 -0.1319
26692W        W46972   7.676  12.892   1.215 -0.1890  0.1549  0.0573
26693W        W46973   9.348   7.938   4.358  0.1320  0.0572  0.3624
26694W        W46974  13.087  12.070  14.201  0.2805 -0.0730  0.2513
26695W        W46975  17.547   3.953   3.864 -0.0233 -0.1286 -0.0940
26696W        W46976  16.313  10.280   3.878  0.2224  0.2106 -0.0443
26697W        W46977   5.943  16.262  15.691  0.0046  0.3650 -0.0028
26698W        W46978   9.094  13.321   2.851 -0.4838 -0.3262  0.0040
26699W        W46979  10.144   4.615   1.730  0.2086  0.0198 -0.0671
26700W        W46980  11.116   2.004  12.698 -0.0507  0.0444  0.1605
26701W        W46981  10.304   5.048   0.568  0.0408 -0.1146 -0.3376
26702W        W46982   7.513   9.902  14.289 -0.3329 -0.1732 -0.0027
26703W        W46983   3.000   2.063  12.773  0.1330 -0.1653 -0.1886
26704W        W46984   7.731   3.698   4.035 -0.0049 -0.0681 -0.0851
26705W        W46985  11.686   7.985   2.503  0.2414 -0.1414 -0.0546
26706W        W46986   4.465  13.386   1.669  0.0621  0.1659 -0.2510
26707W        W46987   3.979  12.206  13.676  0.0440 -0.1312  0.2839
26708W        W46988   4.553  13.268  12.898  0.4198 -0.0942 -0.0129
26709W        W46989  13.382  17.336   3.599 -0.1815 -0.1266  0.0892
26710W        W46990  13.724  17.596   1.639  0.4798  0.1796 -0.0492
26711W        W46991  14.406  14.466  11.792  0.1627 -0.1489  0.0170
26712W        W46992   1.866   1.226  12.744  0.1399  0.0124  0.0339
26713W        W46993   7.617   3.500   1.506  0.2437  0.0804 -0.0989
26714W        W46994   2.034  12.394   1.527  0.0199  0.0153  0.1402
26715W        W46995   5.413   9.201  13.487 -0.0252 -0.1951 -0.0640
26716W        W46996   8.409   4.123  14.283 -0.2073  0.0348  0.1176
26717W        W46997   7.318   2.895  15.177  0.1174 -0.3734  0.2404
26718W        W46998  16.879  13.549   5.024 -0.1682 -0.1388 -0.0763
26719W        W46999   3.471  13.613  14.761  0.1514 -0.0654  0.1825
26720W        W47000   1.932   0.400   0.026 -0.1664 -0.0000 -0.2486
26721W        W47001  13.826  12.894  13.159 -0.0636  0.2368 -0.3286
26722W        W47002  15.148  17.681   2.929  0.0113 -0.0910  0.2079
26723W        W47003   2.046   7.186  12.185 -0.0868  0.0934  0.0799
26724W        W47004  12.956  12.761   1.733  0.0325  0.0792  0.3371
26725W        W47005   3.307  13.055   3.493 -0.0109  0.2002 -0.3116
26726W        W47006   0.422   0.862   3.455 -0.2270 -0.1668  0.4546
26727W        W47007  15.490  16.951   3.400 -0.0360  0.2521  0.0204
26728W        W47008   8.163  17.011  15.517 -0.0663  0.0075 -0.0417
26729W        W47009   6.330  10.553  13.629 -0.0938  0.0113  0.0303
26730W        W47010  16.596   5.154   3.577  0.0100 -0.1478 -0.0661
26731W        W47011   9.001   0.045  13.058 -0.1910  0.0253  0.1784
26732W        W47012   1.560   9.088   0.460  0.2164 -0.1136 -0.2653
26733W        W47013  13.162   8.140   1.914  0.2337  0.0383 -0.1811
26734W        W47014   7.037   7.699  14.671  0.0797 -0.1403 -0.0566
26735W        W47015  10.340  14.355  12.744  0.2085 -0.2149 -0.1394
26736W        W47016  13.219  10.489   5.302 -0.0546  0.0721  0.1811
26737W        W47017  14.019   2.612  15.041  0.0790 -0.1825 -0.3990
26738W        W47018   0.760   8.084  15.476 -0.0246  0.1225 -0.0854
26739W        W47019  16.505  11.332  12.935 -0.0538 -0.0644  0.2072
26740W        W47020   3.941  16.245  15.186  0.0867 -0.1236  0.2321
26741W        W47021  11.436  13.439   0.077  0.3072 -0.4926 -0.0333
26742W        W47022   6.937   5.116   0.947 -0.1376  0.2885  0.0307
26743W        W47023   1.664  15.321  15.008  0.0301 -0.2754  0.0608
26744W        W47024   8.232  15.375   4.784 -0.0430  0.0316 -0.0802
26745W        W47025  12.500  10.025  16.471  0.1305 -0.0878 -0.3205
26746W        W47026  17.217   0.611  13.000 -0.0536 -0.0299  0.0029
26747W        W47027   9.986   9.503  15.670 -0.0791 -0.1847  0.0359
26748W        W47028   9.747   0.760   3.329 -0.2167  0.1281  0.0411
26749W        W47029   7.408  13.220  14.258  0.0666  0.0927 -0.2074
26750W        W47030  13.141   3.149   0.716  0.1490  0.1529  0.3195
26751W        W47031   3.944   9.062  15.424  0.0186  0.2922  0.0335
26752W        W47032   9.574   3.446   2.075  0.1720 -0.1454  0.1303
26753W        W47033   3.267   4.973  14.145 -0.2187  0.1630  0.0991
26754W        W47034   9.001  10.912   1.284  0.1662  0.1667  0.0610
26755W        W47035   7.176  17.466  16.059  0.2370 -0.1654 -0.2174
26756W        W47036  16.481   3.035   2.271  0.1091 -0.0698 -0.0177
26757W        W47037   4.667  10.168  14.491  0.0827  0.1773 -0.0018
26758W        W47038   7.686  16.417   0.608  0.0997  0.2649 -0.2605
26759W        W47039   4.966  17.240  12.470  0.1183  0.0578  0.1570
26760W        W47040   6.564  17.694  13.669  0.3922  0.0931 -0.1522
26761W        W47041   6.776  12.988   4.651 -0.1714 -0.1813  0.0310
26762W        W47042  14.064   9.510  14.617  0.2438 -0.0308  0.0725
26763W        W47043   2.678   8.566  14.075  0.0780  0.0168 -0.0489
26764W        W47044  13.254  13.526   3.267  0.1323  0.2059  0.2424
26765W        W47045   6.157  13.849   1.724  0.1073 -0.0275 -0.1912
26766W        W47046  15.127   4.110   4.316 -0.0069  0.1104  0.1050
26767W        W47047   2.485   5.102   4.530 -0.2496 -0.1349 -0.1159
26768W        W47048  14.369   7.217  13.366 -0.3007  0.0721  0.1167
26769W        W47049  15.309  10.946   2.399  0.0793 -0.1352 -0.1416
26770W        W47050   8.112  14.710   2.463  0.0623  0.2391 -0.0635
26771W        W47051  17.222   0.887   1.495 -0.3435 -0.0171  0.1110
26772W        W47052  11.768  14.413  15.819 -0.0879  0.0147  0.1936
26773W        W47053   6.594  14.900   1.820 -0.0690 -0.1205  0.0091
26774W        W47054   9.416   2.096  14.419 -0.2372 -0.3274 -0.1265
26775W        W47055  12.726   3.703   3.826  0.2118 -0.2046  0.0763
26776W        W47056   6.979  11.896  15.349  0.0139 -0.1050 -0.0111
26777W        W47057  13.278   7.710  15.396  0.1011 -0.0407 -0.2866
26778W        W47058  14.396  11.377   5.383  0.3818  0.0017  0.0277
26779W        W47059   8.192   5.336   3.401 -0.2580 -0.2427  0.1986
26780W        W47060  15.217  10.890   0.383 -0.0620  0.1369  0.2706
26781W        W47061   9.929   2.813  14.636  0.0192  0.1848 -0.0677
26782W        W47062   4.014  14.568  13.073  0.1913 -0.0627  0.2157
26783W        W47063   2.758  13.939  16.877 -0.1010 -0.2294  0.0751
26784W        W47064  12.643  10.994  13.953  0.0840  0.0273  0.3482
26785W        W47065   4.468   0.680   4.338 -0.1075 -0.0314 -0.3482
26786W        W47066  13.994  11.644  12.441 -0.0688  0.0075  0.1859
26787W        W47067  10.730  11.694  12.276 -0.0983 -0.0420 -0.1343
26788W        W47068   6.506   8.360  12.024  0.1004  0.1545 -0.0173
26789W        W47069   7.219  11.927   3.459 -0.3440  0.0979  0.0712
26790W        W47070  11.587   8.770   0.452  0.2569  0.0137 -0.0044
26791W        W47071   9.868   6.631  13.105 -0.1411  0.3943  0.1619
26792W        W47072   0.385  15.316  16.190  0.0240 -0.0468  0.1324
26793W        W47073  10.984   9.609  16.643  0.1213  0.0018 -0.0370
26794W        W47074  10.112  11.479  14.291  0.0784  0.1738 -0.2118
26795W        W47075   1.740  14.313  12.846  0.2098 -0.0459  0.1792
26796W        W47076   4.434   4.486   4.726 -0.0272 -0.0022  0.0960
26797W        W47077  13.503   1.018  16.886  0.1383  0.0223 -0.1304
26798W        W47078  13.291   6.546  15.054 -0.2899  0.0449  0.1883
26799W        W47079  10.343  13.929   3.430  0.0886  0.1235  0.0703
26800W        W47080  10.892   2.536  14.811  0.2338 -0.5592 -0.1250
26801W        W47081   9.306   3.308   3.544  0.0181 -0.2559 -0.0524
26802W        W47082   5.640   9.695  13.471  0.1235  0.2832 -0.0138
26803W        W47083   7.122   9.684   4.025  0.1012  0.2523  0.3867
26804W        W47084  14.965  14.560  14.755 -0.2597 -0.3375  0.1261
26805W        W47085   7.950   6.998   0.499 -0.3813 -0.3322  0.1598
26806W        W47086  15.759  14.896   4.859 -0.1638 -0.0919 -0.1063
26807W        W47087   1.317   4.085   3.010  0.1331  0.0159  0.0777
26808W        W47088   9.481   4.982   0.830  0.4413  0.0131  0.2099
26809W        W47089   1.715  10.024   3.939 -0.1950  0.0589 -0.2670
26810W        W47090   1.904   1.772  11.948  0.2598 -0.2567  0.1709
26811W        W47091   4.395   1.869  13.240 -0.0284  0.3552  0.0242
26812W        W47092  13.569   3.409   3.772  0.0151 -0.2759 -0.1325
26813W        W47093   6.617   0.815  14.607 -0.1215  0.0789  0.0199
26814W        W47094  10.015  10.335  15.237 -0.3756  0.0213 -0.1574
26815W        W47095  13.700  17.029  16.590 -0.2218  0.4127 -0.2006
26816W        W47096   2.125   4.190   3.472 -0.0415 -0.0501 -0.1505
26817W        W47097  15.174   1.168  15.196 -0.1623  0.1772  0.1472
26818W        W47098   6.696   0.580  16.479 -0.1964 -0.0331 -0.1833
26819W        W47099   0.425  16.356   1.735 -0.1165 -0.4211 -0.2051
26820W        W47100   3.141  16.003   4.877 -0.0704  0.3189 -0.1380
26821W        W47101  16.327   2.692   3.294  0.1057  0.0644 -0.0587
26822W        W47102  14.845   5.171  13.935 -0.1424 -0.1612  0.0725
26823W        W47103  13.742   9.281  11.654  0.1119  0.0317 -0.1598
26824W        W47104   7.004   5.040  15.747 -0.3991 -0.2151  0.1056
26825W        W47105  10.631   8.733  15.012 -0.1628 -0.1304  0.0179
26826W        W47106   3.468  14.392   0.590  0.0692 -0.2337  0.0849
26827W        W47107  16.608  10.958  12.551 -0.1357 -0.1143  0.1309
26828W        W47108   0.302   8.059  13.634 -0.0236  0.2339  0.1664
26829W        W47109  15.861   8.712  12.681  0.2684 -0.1680 -0.2636
26830W        W47110  11.011   6.643  15.671 -0.0669  0.0427 -0.0570
26831W        W47111   7.465  10.321  15.090  0.1083 -0.0731 -0.0616
26832W        W47112   9.995  13.047   0.474  0.1467 -0.0577  0.0925
26833W        W47113   3.059  17.040   3.854 -0.4009 -0.3394 -0.1611
26834W        W47114   9.902   6.186   4.232 -0.1139  0.1995 -0.1475
26835W        W47115   2.511   5.325   4.082  0.3612 -0.0607 -0.0470
26836W        W47116  17.011   1.230  13.937  0.0798 -0.1440  0.0466
26837W        W47117   7.496   6.535  16.085 -0.2714 -0.1108  0.0985
26838W        W47118   6.963  16.897   4.853 -0.2077 -0.0439  0.1537
26839W        W47119  13.956   3.972  13.497 -0.0912  0.1150  0.2093
26840W        W47120   7.451  12.460  15.228 -0.1831  0.1603  0.0770
26841W        W47121   9.572   5.321  13.194  0.0289  0.2899  0.1183
26842W        W47122  15.680  17.364  14.757 -0.0647 -0.0045 -0.1072
26843W        W47123  13.821  14.003  16.359 -0.3677  0.0184 -0.0913
26844W        W47124  14.823   2.545   1.821  0.0284  0.3612 -0.0048
26845W        W47125  13.964   9.666  16.461  0.0937  0.2211  0.1608
26846W        W47126   4.381  15.022  14.439  0.4374 -0.1349 -0.0283
26847W        W47127  16.767   3.420   4.740 -0.0862  0.2558 -0.0227
26848W        W47128  13.536  11.839   0.710  0.2229 -0.3454  0.0081
26849W        W47129   0.270  12.937  14.200 -0.1487 -0.1524  0.0094
26850W        W47130   4.297   9.569   0.296 -0.1091  0.0599  0.1338
26851W        W47131   9.531   0.878  16.566  0.0775  0.1113  0.2853
26852W        W47132   9.179   1.205   0.249  0.0159 -0.2675  0.1404
26853W        W47133   0.904   0.710   2.701 -0.0179  0.0909  0.2315
26854W        W47134   3.078   3.448   1.180 -0.1225 -0.0961 -0.1150
26855W        W47135  11.682  13.415  12.763 -0.4511 -0.2545 -0.0057
26856W        W47136   2.482  15.005   4.292 -0.0743  0.1313  0.0885
26857W        W47137  13.178   2.103   4.852  0.0155  0.0894 -0.3850
26858W        W47138  10.906  15.869  14.972  0.5015  0.3229  0.1777
26859W        W47139  15.290  12.534  14.231 -0.0972  0.2133 -0.0603
26860W        W47140  11.299   2.025  16.863 -0.1188  0.1326  0.0040
26861W        W47141   4.348   6.455  16.319 -0.0230  0.1095 -0.1764
26862W        W47142  12.253   3.052   0.546 -0.0093  0.1995  0.1737
26863W        W47143   0.246   5.322   1.416  0.0680 -0.1223  0.0938
26864W        W47144  14.358   8.411  12.646 -0.1770  0.0933  0.2452
26865W        W47145  12.052   5.581  15.707 -0.3622  0.1916 -0.0575
26866W        W47146   6.872   4.854   2.853  0.4692 -0.1920 -0.0470
26867W        W47147  11.549   5.326   0.963  0.2578 -0.2484 -0.0238
26868W        W47148   0.910  14.883   0.699 -0.1425  0.0697  0.1639
26869W        W47149  17.521   2.598   2.115  0.0018 -0.0767  0.1148
26870W        W47150   4.374   9.841  14.825  0.0702  0.0073 -0.1828
26871W        W47151   3.835   3.475  12.747 -0.1848  0.1324 -0.2683
26872W        W47152  16.282   7.524  16.369 -0.2187 -0.1481  0.2109
26873W        W47153   4.666  10.331   0.048  0.1175 -0.2462  0.1438
26874W        W47154   1.904  16.464  14.253  0.0440 -0.0412  0.1569
26875W        W47155  16.098   5.245  13.517  0.0553 -0.1677 -0.1203
26876W        W47156   3.902   6.510  13.563  0.3021 -0.2424 -0.0289
26877W        W47157  10.033   8.473   0.392 -0.1515 -0.3508 -0.0355
26878W        W47158   1.197   8.555   2.859 -0.1616 -0.1957 -0.0269
26879W        W47159  12.879  11.559   0.426  0.3461  0.0100 -0.1660
26880W        W47160  11.492  11.086   1.596 -0.1039  0.1347  0.0363
26881W        W47161  10.989   3.815  10.819 -0.2123  0.0603  0.0342
26882W        W47162   6.404  16.440   0.841 -0.0055  0.1018 -0.2841
26883W        W47163   3.421   1.611   2.420  0.4061  0.2321  0.0654
26884W        W47164   3.151  13.404  15.067 -0.0822 -0.2032  0.1112
26885W        W47165  17.723   2.994   4.633 -0.0504 -0.1842  0.1371
26886W        W47166  10.940   3.478  16.616 -0.3111 -0.3726  0.4068
26887W        W47167  14.140   3.217   2.052 -0.0780  0.0317 -0.0944
26888W        W47168  11.482   6.128   4.830 -0.2360  0.0390 -0.1828
26889W        W47169   8.866   8.089  13.850 -0.2548 -0.0509  0.1171
26890W        W47170   0.789   1.409  14.288  0.0237 -0.1121 -0.0404
26891W        W47171  13.370  13.712  13.442 -0.1325  0.2070 -0.1174
26892W        W47172   3.196  10.743   3.051 -0.0292 -0.0188 -0.1303
26893W        W47173  10.351   6.982  14.263  0.2190  0.1763  0.4901
26894W        W47174  17.642  13.972   0.770 -0.2415 -0.1077  0.1360
26895W        W47175   7.439  16.545   4.816  0.1251 -0.0173  0.2257
26896W        W47176   8.062  13.442   2.757  0.0886  0.0555  0.1199
26897W        W47177   4.081   9.222  12.504 -0.0078  0.0215 -0.3076
26898W        W47178   4.470  11.873   1.936  0.1379 -0.0445 -0.1799
26899W        W47179  12.757   9.971   1.518 -0.2385 -0.1831 -0.0300
26900W        W47180   3.545   5.755   3.983 -0.1829  0.0767 -0.0400
26901W        W47181   2.885   6.484   2.092  0.0602 -0.1820 -0.0249
26902W        W47182  14.677  15.884   4.237  0.0021 -0.0483 -0.0441
26903W        W47183  14.100  12.378  13.027  0.0520  0.0303  0.0571
26904W        W47184   7.562  15.458  16.146  0.3707 -0.1948  0.0793
26905W        W47185   8.466   5.612  13.827  0.2535  0.0453 -0.4223
26906W        W47186   9.962  10.589  13.429  0.0590  0.0995 -0.3049
26907W        W47187  15.358  16.152   2.014 -0.0507  0.0465 -0.1026
26908W        W47188   5.055   2.498  12.451 -0.3082 -0.0849 -0.1402
26909W        W47189  17.497   0.832   0.990 -0.1463  0.0214 -0.4638
26910W        W47190   1.626  14.844  15.109 -0.1613 -0.1453 -0.1433
26911W        W47191  14.317   8.996  12.096  0.1142 -0.0315  0.1787
26912W        W47192   2.490  11.891   0.106 -0.1570 -0.0654  0.1176
26913W        W47193  17.586  11.724   3.026  0.0043 -0.1322  0.2366
26914W        W47194  14.999   2.632  16.639 -0.0885  0.2044  0.1954
26915W        W47195   0.130   3.729  14.640  0.0410  0.1662  0.1065
26916W        W47196   8.708   1.859  13.770  0.1696  0.1064  0.0753
26917W        W47197   6.225   1.888   3.314  0.0733 -0.1040 -0.0114
26918W        W47198   3.268  16.586  13.150 -0.4417 -0.1099 -0.2098
26919W        W47199  14.746  12.136   2.970 -0.1251  0.2612 -0.0052
26920W        W47200   3.407  11.499   1.612 -0.1664 -0.1143 -0.0280
26921W        W47201  11.093   5.887   1.868 -0.0438 -0.0074 -0.2007
26922W        W47202   3.895  14.780   2.994  0.1683 -0.0424  0.2038
26923W        W47203   3.969   5.499  13.393 -0.0495 -0.1169 -0.1131
26924W        W47204   3.358  15.197  14.349 -0.1894  0.2925 -0.0622
26925W        W47205  15.075  15.073  14.473  0.0412 -0.3268  0.2069
26926W        W47206   4.867  14.782  16.365 -0.2073 -0.1960  0.2049
26927W        W47207   8.592  12.083   3.441 -0.2207 -0.2665 -0.1706
26928W        W47208   2.921   3.176  13.215 -0.0475  0.4564 -0.0025
26929W        W47209  15.277  14.900   4.852  0.0243  0.2216 -0.0422
26930W        W47210   5.742  16.391  14.115  0.0221 -0.0862 -0.1028
26931W        W47211   8.762  17.153   2.832  0.3136  0.0169  0.1355
26932W        W47212   1.197  16.988   4.191 -0.0915  0.1949 -0.2669
26933W        W47213  15.621   3.190   0.458 -0.0240 -0.1265  0.3449
26934W        W47214  13.158   1.891  14.818  0.0408 -0.1520 -0.0122
26935W        W47215  16.947  12.340   4.018 -0.0796  0.1427 -0.1537
26936W        W47216  16.812   4.431  13.868 -0.1030 -0.1976 -0.2196
26937W        W47217   1.068   7.405  15.457  0.0744 -0.1297 -0.1180
26938W        W47218  15.863   9.026   3.507  0.0566  0.3491  0.3562
26939W        W47219  17.680   9.291  14.621 -0.0294 -0.1859 -0.0727
26940W        W47220   3.685  12.624  15.510  0.2637 -0.0497 -0.2901
26941W        W47221  17.268  13.195   1.465 -0.0117  0.0448 -0.0734
26942W        W47222  14.285  11.347   0.182 -0.1027  0.2568 -0.1579
26943W        W47223   7.059   1.926   3.491 -0.1064 -0.0422  0.1071
26944W        W47224   4.044  15.862   1.042 -0.1656  0.2147 -0.0872
26945W        W47225   6.166   1.717  14.624 -0.3141  0.0481 -0.0579
26946W        W47226  14.616  10.123   0.250 -0.1144  0.1980  0.1366
26947W        W47227   6.997   4.215  12.003  0.3246 -0.0286 -0.1035
26948W        W47228  11.754   8.007   0.505 -0.0462  0.0864 -0.1627
26949W        W47229  13.642   3.381   4.286  0.0829 -0.0224 -0.1363
26950W        W47230   3.953   7.942  14.318 -0.2962  0.1781 -0.0265
26951W        W47231   6.191  10.954   3.339 -0.2084 -0.1510 -0.2772
26952W        W47232   5.758  17.643  12.555  0.1602 -0.0514 -0.2234
26953W        W47233   2.843  12.924   1.747 -0.3542  0.1828 -0.3135
26954W        W47234   4.897  16.088  16.548 -0.0261  0.1225 -0.0346
26955W        W47235   4.014  13.196   2.154 -0.1657 -0.3541 -0.1517
26956W        W47236   0.918  10.786   3.220  0.2125  0.3867  0.0577
26957W        W47237   6.333   0.644   4.613  0.1414 -0.0791 -0.0288
26958W        W47238   9.705   4.166  14.687 -0.1770  0.3687 -0.3071
26959W        W47239  14.973  13.146   5.053 -0.1098  0.1945 -0.0395
26960W        W47240   1.746  15.416   4.577 -0.2615  0.0641 -0.1413
26961W        W47241  14.599   5.278  16.467  0.0734  0.1079  0.1102
26962W        W47242  16.779   9.495   4.019  0.0704 -0.1367 -0.4542
26963W        W47243  10.103   8.638   1.163 -0.2426 -0.1095 -0.2489
26964W        W47244  11.551  10.832  15.540  0.1599 -0.3026  0.0730
26965W        W47245   5.839   5.453   2.854  0.0606 -0.2534  0.1161
26966W        W47246   1.321   7.619   1.633  0.0174 -0.1265 -0.1174
26967W        W47247   6.889   4.109  16.720 -0.0216  0.0957 -0.0696
26968W        W47248   8.117  16.539   0.979 -0.0712 -0.2599  0.0528
26969W        W47249  10.488   5.850   2.035 -0.0730 -0.2322 -0.3478
26970W        W47250  15.636   0.535  12.792  0.0095 -0.0073  0.1287
26971W        W47251   5.791  13.563  14.556  0.4499 -0.3505 -0.3251
26972W        W47252  16.374  14.294   3.361 -0.0414  0.0513 -0.0729
26973W        W47253  13.621  17.360   4.842 -0.0986  0.2284  0.2796
26974W        W47254   1.485   7.068  14.806 -0.2112 -0.1760 -0.0632
26975W        W47255   0.977   6.886  15.504  0.1294  0.2047 -0.1024
26976W        W47256   7.552   0.601  12.223  0.1723  0.0504 -0.0453
26977W        W47257  15.552  12.430  14.752 -0.2986 -0.1183  0.0687
26978W        W47258   9.220  14.401   0.870 -0.0606  0.1365  0.1755
26979W        W47259   7.078  17.689  13.954 -0.1733 -0.0739 -0.1794
26980W        W47260  13.340   4.550   5.053 -0.2995  0.2914 -0.0174
26981W        W47261  16.787   3.026   3.215  0.2921 -0.1146 -0.0652
26982W        W47262  17.430  15.179  16.856 -0.1225 -0.1423  0.3921
26983W        W47263  16.811  10.913   3.192  0.0373  0.1754  0.1012
26984W        W47264   8.093  17.357  15.950  0.2399 -0.0084 -0.1171
26985W        W47265  13.215  11.692   4.988 -0.0671 -0.0669 -0.3389
26986W        W47266   0.617  13.571   4.405  0.2294 -0.0567 -0.3711
26987W        W47267  10.813  17.614   4.161  0.1521  0.1366  0.1607
26988W        W47268  10.390   9.937   1.083  0.0123  0.0626  0.0753
26989W        W47269  10.066   3.979   2.833 -0.1080 -0.3664  0.4088
26990W        W47270   3.806   2.702  12.337 -0.2861  0.0110  0.1823
26991W        W47271  16.221  11.076  15.765  0.1922 -0.0371 -0.5059
26992W        W47272  17.412  11.541   3.500 -0.0175  0.1106  0.0207
26993W        W47273  13.520  15.716  12.615  0.0963 -0.0499  0.2843
26994W        W47274   0.920   9.813  15.219  0.0160 -0.1243 -0.0271
26995W        W47275   7.891   3.775  11.963 -0.2237  0.1212  0.0150
26996W        W47276  16.180   8.167   2.789 -0.0991 -0.1843  0.1943
26997W        W47277   7.789  10.013  15.601 -0.0468  0.1120  0.0335
26998W        W47278   4.072   0.391   2.672 -0.0496  0.0349 -0.1014
26999W        W47279  11.996  14.825  16.436  0.3364  0.0322 -0.2532
27000W        W47280   9.593  10.586   0.153 -0.0738 -0.1000  0.1309
27001W        W47281   0.150   2.163  15.139 -0.0575  0.2566  0.0655
27002W        W47282  17.345   1.434  14.792  0.0154  0.1884 -0.0470
27003W        W47283   1.228  13.440  12.929  0.1586  0.1245 -0.0357
27004W        W47284   5.458   3.012  16.118  0.1602 -0.3489  0.2953
27005W        W47285   1.800   3.941   4.846  0.0729 -0.0863  0.2041
27006W        W47286  12.898  14.785   2.913  0.0443  0.2106  0.0976
27007W        W47287  14.787   3.001  13.299 -0.0227  0.1603 -0.2025
27008W        W47288  12.245   9.756   4.060  0.2427  0.1540  0.2207
27009W        W47289   0.950  16.698  16.628 -0.1527 -0.1955  0.0601
27010W        W47290  10.780   1.415  10.867  0.2777 -0.0854 -0.2254
27011W        W47291   0.429   6.746  16.728 -0.1860 -0.1429 -0.0700
27012W        W47292   9.385  14.379   1.459  0.0456 -0.0342 -0.2119
27013W        W47293  16.190  14.973  12.857  0.1580  0.4293 -0.0316
27014W        W47294  14.038   1.020   4.827 -0.2985 -0.0402 -0.0864
27015W        W47295  11.439  12.940  16.853  0.2622  0.1602 -0.1580
27016W        W47296   4.162   3.328  15.124 -0.1700  0.1316  0.0264
27017W        W47297  15.690  15.191  16.781 -0.2363 -0.0869  0.0750
27018W        W47298   2.145   9.360   3.445 -0.1041 -0.0361  0.0479
27019W        W47299  15.071  11.619  14.600  0.1805 -0.1502 -0.2127
27020W        W47300   4.959   9.399  12.642 -0.1239  0.4645 -0.0049
27021W        W47301   4.064   1.544  12.049 -0.1972 -0.1243  0.0861
27022W        W47302  12.886   4.782  16.392  0.3240  0.0153 -0.3187
27023W        W47303   6.542   8.388   1.512  0.0588  0.1825 -0.3488
27024W        W47304  10.026   0.567  13.400 -0.0984 -0.0894  0.2787
27025W        W47305   5.558   2.933  13.745  0.3149 -0.1877  0.0667
27026W        W47306   6.172  13.729   3.972  0.1250  0.1574 -0.0598
27027W        W47307  13.232  11.655  16.635 -0.1251 -0.3184 -0.0309
27028W        W47308  17.644  16.580   0.369  0.0968 -0.0867  0.1199
27029W        W47309   4.646   9.392   3.202 -0.2224 -0.0023 -0.0289
27030W        W47310   4.718   0.127   0.399 -0.1422 -0.1604 -0.0043
27031W        W47311   3.967   4.896  13.332  0.1795  0.0166 -0.0475
27032W        W47312   9.589  17.234   6.154 -0.3575  0.0939 -0.2057
27033W        W47313  13.361   6.904   1.738 -0.2760  0.0138  0.2483
27034W        W47314   3.124   3.321  13.863  0.1917 -0.0219 -0.1012
27035W        W47315   2.459  13.998   4.584 -0.0143 -0.0515  0.2249
27036W        W47316   3.429  11.520  13.376  0.1410  0.0427  0.3444
27037W        W47317  14.122   3.487   5.206 -0.0382  0.1584 -0.0254
27038W        W47318   8.295   9.125   0.899  0.2765  0.3120 -0.0573
27039W        W47319   2.758  10.777  12.660  0.1882 -0.1441  0.0382
27040W        W47320  17.659   6.774   4.660  0.1208 -0.0040  0.2046
27041W        W47321   2.215   2.912   2.242 -0.0857  0.0332 -0.2500
27042W        W47322  13.330   4.790   3.542  0.1770  0.5730 -0.3789
27043W        W47323  14.301   6.845   1.041  0.0666 -0.2715  0.0506
27044W        W47324  16.467  10.625  13.707  0.2664  0.1369 -0.1493
27045W        W47325   9.741  11.239   1.158  0.1615  0.0698 -0.0061
27046W        W47326   6.101   4.157  12.819  0.3288  0.0078  0.0762
27047W        W47327  12.946   7.832   4.951  0.0955  0.0103  0.0506
27048W        W47328   3.930  10.807  15.084 -0.0430  0.1335 -0.0073
27049W        W47329   2.375  17.097  13.440  0.0985 -0.0641 -0.0003
27050W        W47330   7.954   5.107  15.456  0.1875 -0.3047  0.0275
27051W        W47331   7.663  13.132   4.350  0.2971  0.1436 -0.1865
27052W        W47332  12.390   4.311   4.641 -0.0942  0.0175 -0.1301
27053W        W47333   3.500  16.926   4.328  0.1889  0.5095 -0.1794
27054W        W47334  11.081  12.281  14.231  0.3071 -0.1713 -0.3039
27055W        W47335  17.221   8.991  16.595  0.2510  0.0350  0.0300
27056W        W47336   5.079  10.921  15.245  0.0750 -0.0297  0.0915
27057W        W47337  17.627  17.403  16.145  0.1431  0.1343 -0.1362
27058W        W47338   2.027  15.595   2.350 -0.4824  0.1092  0.5958
27059W        W47339  14.545   7.326   1.820 -0.0438  0.1622  0.0465
27060W        W47340   9.355   0.354  16.701  0.2255 -0.1534  0.4316
27061W        W47341  13.718   9.362   2.735 -0.1316  0.1070 -0.0249
27062W        W47342  15.419   8.560   1.758 -0.0992 -0.4049  0.0680
27063W        W47343   1.930  12.631   3.840  0.0849 -0.1135 -0.1985
27064W        W47344  10.323   5.035  15.769 -0.2554  0.1758  0.0654
27065W        W47345   4.922   2.368  14.745  0.1047  0.0370  0.0420
27066W        W47346  13.885  10.857  13.269 -0.0845 -0.1991 -0.0191
27067W        W47347   7.454   5.190   1.600  0.0991  0.1449  0.1268
27068W        W47348  16.826  14.236  13.876  0.0137  0.0918  0.1262
27069W        W47349   0.617  13.927   4.051 -0.0063  0.3377 -0.1570
27070W        W47350  12.406   8.077   1.234  0.0966  0.1470  0.0154
27071W        W47351  17.404  16.200  16.843 -0.0647 -0.1967 -0.1064
27072W        W47352   7.945   0.644  16.688  0.1922 -0.0478 -0.0330
27073W        W47353  12.234  11.536  13.326  0.0896 -0.0650 -0.4473
27074W        W47354  14.340   8.969  15.392  0.3516  0.1673  0.0446
27075W        W47355  11.797  16.460   3.939  0.2148  0.1793 -0.0102
27076W        W47356   4.519  11.724   2.423  0.0005 -0.2381  0.0808
27077W        W47357  16.249  11.532  15.501  0.0550 -0.0533  0.1356
27078W        W47358  14.034  11.330  15.813 -0.2805 -0.1041 -0.0139
27079W        W47359   9.757   0.729  14.963 -0.0744 -0.1249 -0.2110
27080W        W47360   5.167   5.726  12.174  0.1401 -0.0274  0.0517
27081W        W47361   9.393   7.315  12.572 -0.1278 -0.1307  0.0570
27082W        W47362   7.679   6.077   1.717 -0.0178 -0.1951 -0.2056
27083W        W47363   7.098  11.343   2.540  0.1832  0.1215 -0.1236
27084W        W47364   8.623   4.802  12.604 -0.3227 -0.0487 -0.0277
27085W        W47365  11.913  16.373  12.902 -0.0077  0.3044 -0.0282
27086W        W47366  17.209  13.296   4.696  0.2050  0.1849 -0.0732
27087W        W47367  15.750  14.431   1.407 -0.1804 -0.2968 -0.0606
27088W        W47368   6.164  13.168   1.785  0.1325  0.0462  0.0537
27089W        W47369   6.797   3.845  15.449 -0.4007 -0.2597  0.4396
27090W        W47370  17.048  17.148   5.874 -0.1221  0.1147  0.2681
27091W        W47371   6.175  17.159   5.303 -0.0948 -0.1248 -0.0379
27092W        W47372   1.748  10.886  16.625  0.1956 -0.0577  0.2130
27093W        W47373  12.718  10.637   1.341  0.0795  0.0712  0.1151
27094W        W47374   8.080   9.319   3.888 -0.0561 -0.0178  0.1903
27095W        W47375   6.780  16.891  14.891 -0.1358  0.2223  0.3201
27096W        W47376   7.766   2.485  14.644 -0.1820 -0.0786  0.1920
27097W        W47377  13.537   6.440   0.558  0.1176 -0.1339  0.1388
27098W        W47378   6.297   9.504  13.267 -0.1162  0.2194  0.0084
27099W        W47379  17.473   4.432   1.552  0.0918  0.0560 -0.0472
27100W        W47380  13.562  16.080  13.575 -0.0480 -0.0962 -0.1001
27101W        W47381   4.881   6.429  13.699 -0.1465  0.0246  0.1672
27102W        W47382  10.880  14.582   2.251 -0.1812  0.0754 -0.1908
27103W        W47383   6.638  12.734  13.688 -0.1343 -0.2221  0.1410
27104W        W47384   2.919   4.874   0.568 -0.2270  0.2274  0.2979
27105W        W47385  10.495   3.191   2.148 -0.0463 -0.2882  0.0324
27106W        W47386   8.303  16.413  12.983  0.2724  0.2495 -0.3116
27107W        W47387   0.211   8.370   3.317  0.0024  0.0895 -0.0929
27108W        W47388   3.800   8.184  16.281 -0.0188 -0.0618 -0.1336
27109W        W47389   8.306  11.459  11.908  0.0497  0.3731  0.0995
27110W        W47390   7.072  11.685   0.462 -0.0068  0.1774  0.1781
27111W        W47391   2.890   2.604  14.875  0.1640  0.0247  0.2242
27112W        W47392  12.277   7.631   1.036  0.1528  0.1541 -0.0758
27113W        W47393   8.822   7.387  11.711  0.0697  0.3950 -0.2519
27114W        W47394   5.525   3.600  13.364  0.3948 -0.0362 -0.0277
27115W        W47395   8.327   8.439  13.392  0.0759 -0.1323  0.0666
27116W        W47396  17.285  16.069  12.944  0.0543  0.0249  0.1999
27117W        W47397  13.602   3.876  14.260 -0.0230 -0.0048 -0.0846
27118W        W47398   7.251   2.759   3.140 -0.1156  0.0124 -0.1720
27119W        W47399  17.181  15.218  14.655  0.1126 -0.1794  0.2280
27120W        W47400   4.097   9.414  15.061 -0.0247  0.2742 -0.3412
27121W        W47401   4.060   5.384  12.924  0.1081  0.0289  0.0138
27122W        W47402   4.805   2.776   2.018 -0.0851  0.2351  0.1254
27123W        W47403  17.545  17.020  14.355 -0.2202 -0.2074  0.0717
27124W        W47404   8.364  13.668  14.207  0.0497 -0.2972 -0.2151
27125W        W47405   8.084   1.104  14.734 -0.0021  0.1119  0.2172
27126W        W47406  10.905   3.104  13.687 -0.0033 -0.1090 -0.3343
27127W        W47407   0.444   3.692  15.118 -0.1157  0.1376 -0.0381
27128W        W47408   7.009   6.033  16.833 -0.2335  0.0481  0.2223
27129W        W47409   9.951  16.215  14.417  0.0295  0.2448 -0.0187
27130W        W47410   0.181   9.632   3.911  0.0827 -0.2506  0.1600
27131W        W47411   9.096  15.679  16.380  0.0198 -0.1351 -0.0443
27132W        W47412  14.701   2.580   3.333 -0.0359 -0.1222  0.0008
27133W        W47413  16.005  10.834   1.452  0.0151 -0.1272 -0.4206
27134W        W47414  17.707  14.175   4.247 -0.2968 -0.1177  0.0684
27135W        W47415   2.694   1.534  16.090 -0.0524 -0.0021  0.1522
27136W        W47416   1.998   8.949   2.864  0.1776 -0.0737 -0.1896
27137W        W47417  11.561   2.314  15.921  0.2642 -0.0192  0.1731
27138W        W47418   8.584  12.912  15.947 -0.2203  0.0486 -0.0469
27139W        W47419   5.574  17.535  13.571 -0.0742 -0.1184  0.0147
27140W        W47420   3.407  12.335  13.130 -0.0253 -0.1665  0.0177
27141W        W47421  13.211   9.187  14.414  0.2199  0.0191 -0.3392
27142W        W47422   9.145   7.653  12.290 -0.1063 -0.1737 -0.0177
27143W        W47423  14.035   8.429  14.563 -0.1545  0.0674  0.0612
27144W        W47424   2.071   2.409   1.557  0.0393 -0.2204  0.1555
27145W        W47425   5.069   9.173   4.558  0.0197 -0.2338  0.0558
27146W        W47426  17.668  14.711  13.020  0.0227 -0.0022  0.0110
27147W        W47427  16.446   2.238  14.315 -0.0924 -0.2461  0.1378
27148W        W47428  15.863   7.642  13.302  0.0445  0.2359 -0.2444
27149W        W47429   1.342   0.323  13.902  0.0839 -0.1016  0.3721
27150W        W47430   4.663   8.038  12.046 -0.0351 -0.0196 -0.0554
27151W        W47431  13.578   4.450  15.086 -0.0683  0.1125 -0.1941
27152W        W47432  13.194   9.784   4.770  0.3301 -0.5035  0.0494
27153W        W47433  16.729   3.351   2.873 -0.1974  0.0170 -0.0061
27154W        W47434  14.646   3.667   2.936  0.1739  0.2009 -0.2885
27155W        W47435  10.177   8.409  15.025  0.0963 -0.0902  0.0864
27156W        W47436  10.857   9.110   3.363 -0.1113  0.0508 -0.0246
27157W        W47437  10.481   6.893   1.077  0.2225  0.3861 -0.1265
27158W        W47438   4.169  12.003  15.027  0.0423  0.1883 -0.4331
27159W        W47439  13.438  11.144  16.518  0.0750  0.1965 -0.0967
27160W        W47440   1.739   6.857   3.397 -0.1041  0.0580  0.3014
27161W        W47441   5.922  12.456  13.221  0.2325 -0.1412  0.1835
27162W        W47442   2.365  11.708   0.539  0.0093  0.2195  0.0217
27163W        W47443   4.824  11.928  13.281  0.0997  0.1663  0.1029
27164W        W47444   4.536  12.426  14.715 -0.1515 -0.1222 -0.1291
27165W        W47445  17.633   4.442   0.499 -0.0053 -0.1819 -0.0891
27166W        W47446   3.837   0.130  12.960 -0.0866  0.0699  0.1910
27167W        W47447   5.030  11.394  15.509 -0.2140 -0.0198 -0.0878
27168W        W47448   5.892  13.113  14.409  0.0844 -0.0711 -0.3531
27169W        W47449   3.342   8.775  11.873  0.2418  0.0583  0.0065
27170W        W47450  16.702   9.091  15.778 -0.1988 -0.1522 -0.4084
27171W        W47451   7.231   6.843  14.110 -0.1900  0.1626  0.2169
27172W        W47452  17.605  11.718  13.544  0.3388 -0.1997 -0.0405
27173W        W47453   6.389  10.989   2.143 -0.3152  0.0563 -0.0915
27174W        W47454  14.491   2.296  14.971  0.0222 -0.1116 -0.0623
27175W        W47455  14.431  17.412  13.653  0.0663  0.0135 -0.2347
27176W        W47456  17.326   4.170  14.737 -0.0542 -0.2356  0.1053
27177W        W47457   0.908  11.474  12.156 -0.1012  0.2421 -0.2033
27178W        W47458  14.619  13.867  13.946  0.0574 -0.0302 -0.0375
27179W        W47459   7.471   1.967  12.583  0.0657  0.3580  0.0156
27180W        W47460  14.723  15.229   2.563  0.1261  0.3653 -0.0385
27181W        W47461   6.633   1.903   3.706 -0.0164  0.1387 -0.1069
27182W        W47462   8.523   1.182   3.485  0.0822 -0.2178  0.1014
27183W        W47463  17.741   4.880  15.538  0.1474  0.0387  0.0964
27184W        W47464  12.610   3.281  12.667  0.2473 -0.0876 -0.0323
27185W        W47465  17.038  15.333   2.384  0.1358 -0.4215 -0.0421
27186W        W47466   1.130   3.004   0.348 -0.1947  0.3505  0.1205
27187W        W47467   8.749   5.876  13.411 -0.0289 -0.2268 -0.0752
27188W        W47468   4.809   0.819   0.122 -0.3170 -0.2172  0.2170
27189W        W47469   6.281   0.736  14.008  0.1092 -0.1376 -0.1800
27190W        W47470  11.032   3.717  14.228  0.1744  0.0663  0.1303
27191W        W47471   2.821  12.337  15.626  0.2422  0.0682 -0.0523
27192W        W47472   0.666  11.719  16.268  0.1601 -0.0258  0.1735
27193W        W47473  14.295  12.278   0.288  0.1364  0.2997  0.1645
27194W        W47474  10.177   8.107   3.191  0.3694 -0.2376 -0.0735
27195W        W47475   1.493   4.584  13.899  0.2671  0.0052  0.1498
27196W        W47476  11.808  10.772  12.265 -0.0322  0.0320 -0.0176
27197W        W47477  12.502  13.514  15.245  0.0574  0.0246  0.4224
27198W        W47478  15.864   9.821  13.622 -0.0300  0.1480  0.0656
27199W        W47479  10.421   5.809  13.024  0.0041 -0.0825 -0.0072
27200W        W47480   6.884  13.081  15.340  0.2430 -0.1371 -0.1081
27201W        W47481   6.742   1.220   1.419 -0.0863  0.2141 -0.1135
27202W        W47482   5.603  11.914  16.192  0.1774 -0.0891 -0.0808
27203W        W47483  16.815   5.339  16.134 -0.1280  0.0750 -0.3427
27204W        W47484   9.441   7.355   2.774 -0.1207  0.2226  0.2355
27205W        W47485  17.283  16.920   3.287 -0.2749  0.2217 -0.1172
27206W        W47486  17.686  14.000  16.349  0.2260  0.0446 -0.2233
27207W        W47487   3.361   7.641   0.864 -0.0749 -0.0804 -0.2208
27208W        W47488  16.110  17.535  14.639 -0.0974  0.0508  0.0104
27209W        W47489  13.379  15.189  15.059 -0.0940 -0.1180  0.0416
27210W        W47490   9.367   0.130  13.866  0.0055  0.1256  0.0859
27211W        W47491  16.223   3.227  14.751 -0.0284  0.0883  0.2057
27212W        W47492   7.104  13.966   0.327 -0.0838  0.0935 -0.3704
27213W        W47493   8.670   4.717  12.133 -0.0251 -0.2146 -0.0588
27214W        W47494  17.254  11.276   2.205  0.2054  0.0620  0.0325
27215W        W47495   8.510   8.627  14.476 -0.0449  0.0311  0.1711
27216W        W47496   4.451   7.608  14.306  0.0280  0.0128 -0.1218
27217W        W47497  16.454   1.389   1.867  0.2529  0.0875  0.0871
27218W        W47498   5.143   1.985  13.760  0.1143 -0.0563 -0.1518
27219W        W47499  11.739   9.479  15.424  0.4176  0.0293 -0.0408
27220W        W47500   6.116  14.590  14.933  0.2456  0.0255  0.0474
27221W        W47501   5.703  13.779  15.448 -0.0944 -0.1126 -0.2211
27222W        W47502   7.237   5.677   4.417  0.0511 -0.2476  0.1853
27223W        W47503   3.424   4.962   4.306  0.0815 -0.0555 -0.1267
27224W        W47504   4.565  15.137  16.871 -0.2172  0.2635 -0.0311
27225W        W47505  16.232  11.803   1.730  0.2162  0.1797 -0.1167
27226W        W47506   6.470   6.864   3.674  0.3211 -0.2479  0.0220
27227W        W47507  16.018  10.071   0.649  0.0871  0.1574 -0.0739
27228W        W47508  15.187  16.515   3.564 -0.0553 -0.3562 -0.4510
27229W        W47509  14.403   7.925   3.564 -0.3002  0.0826 -0.0924
27230W        W47510   0.437   7.928  16.842 -0.0614 -0.1537 -0.4796
27231W        W47511  17.004   0.479  13.997  0.2182 -0.0556 -0.3308
27232W        W47512  17.725   6.336  13.782  0.0645  0.2102  0.0312
27233W        W47513   4.391   0.360   1.794  0.0573 -0.1450 -0.1184
27234W        W47514  15.341   4.059   3.400 -0.0155 -0.0222  0.1152
27235W        W47515   0.795  10.075  16.056  0.1911 -0.0710  0.1985
27236W        W47516   6.168  16.941  16.157  0.0803  0.0858 -0.3142
27237W        W47517  15.163   5.158  13.509 -0.2501 -0.1352 -0.0315
27238W        W47518  12.340  13.154   4.213 -0.0160  0.0336  0.0842
27239W        W47519  10.978   1.594   0.180 -0.1122 -0.0585 -0.2078
27240W        W47520  17.163  17.629  15.857 -0.0639  0.3028  0.1207
27241W        W47521  10.482  15.599   3.190  0.0225 -0.0672  0.3395
27242W        W47522   7.904  14.972   0.754  0.0014  0.1376  0.0554
27243W        W47523   8.718  10.980  14.540  0.1171 -0.1162  0.1862
27244W        W47524   2.877   9.908  13.816 -0.2006  0.3586  0.0026
27245W        W47525   6.539   5.135   3.306 -0.0148 -0.1086  0.1207
27246W        W47526   5.550  13.316   2.998 -0.1200  0.2602  0.1397
27247W        W47527   4.673  13.216   4.268  0.1839 -0.3364 -0.1525
27248W        W47528   0.273   1.889  14.089 -0.1281  0.0671  0.1436
27249W        W47529   6.365  15.532   0.189 -0.1125 -0.1927  0.0594
27250W        W47530   6.468  16.910   0.364 -0.0539 -0.1800 -0.0300
27251W        W47531   8.393  11.379   1.104  0.2312  0.0355  0.0523
27252W        W47532  14.054  13.810   1.673  0.0691  0.1965  0.1327
27253W        W47533  14.663   5.955   1.319  0.1638  0.2554 -0.0831
27254W        W47534  10.699   7.662   0.604  0.3681 -0.2126  0.0196
27255W        W47535  12.315  17.097   3.579  0.2013  0.1338  0.3130
27256W        W47536  17.391  10.638   4.307  0.0098 -0.0395 -0.0095
27257W        W47537  12.961   8.509  16.851 -0.1519  0.0343 -0.4876
27258W        W47538   2.537   8.450  15.006  0.2116  0.0030 -0.2215
27259W        W47539  14.494   5.426  11.344 -0.2052  0.1433 -0.1765
27260W        W47540  14.621   4.532   5.345  0.0138  0.0983 -0.1827
27261W        W47541   9.949   6.973   3.627  0.0017  0.3404 -0.4795
27262W        W47542   4.672  12.847  15.865 -0.2066  0.2487  0.0497
27263W        W47543   1.302  16.304  13.528  0.0097  0.0868  0.1003
27264W        W47544   2.727   1.001  14.073  0.3015  0.1474 -0.1040
27265W        W47545   8.134  10.954   0.786  0.2391 -0.1606 -0.2331
27266W        W47546   1.954  13.484  14.605  0.3008  0.2782  0.1195
27267W        W47547  11.993   7.116   4.135 -0.3252  0.1840  0.0057
27268W        W47548  13.169   4.209   0.777 -0.0702 -0.0246  0.2417
27269W        W47549  12.101  16.024   1.992 -0.0349  0.0600 -0.0385
27270W        W47550   8.601  12.305   3.977 -0.0570  0.0174  0.1786
27271W        W47551  13.655  11.679   1.550  0.1158  0.0119  0.1256
27272W        W47552  14.976  14.844   3.408  0.1850 -0.0265 -0.0667
27273W        W47553   9.360  10.251  14.576  0.1150  0.3243  0.1955
27274W        W47554  17.444   4.169   4.339 -0.0523  0.2759  0.0507
27275W        W47555  15.390  12.809  15.074  0.1757  0.1149  0.1116
27276W        W47556   4.776   6.125   3.760  0.1920 -0.0109 -0.2695
27277W        W47557  15.016  10.113  12.339 -0.0341 -0.0880  0.3829
27278W        W47558   6.647  13.241  12.545  0.3299  0.3075 -0.1786
27279W        W47559   0.433   8.928   4.491 -0.1346  0.0750 -0.0448
27280W        W47560  11.541  13.232  15.038  0.1422 -0.1963  0.0872
27281W        W47561   1.641  12.601  14.795 -0.0980 -0.0619 -0.0523
27282W        W47562   1.313   4.521  16.699 -0.0285  0.0366  0.1448
27283W        W47563   3.182  12.945   4.888  0.2169 -0.0962  0.1829
27284W        W47564   0.678   1.769   3.197  0.0646 -0.0856  0.0631
27285W        W47565  11.157   2.627  13.374 -0.0031  0.2463 -0.0015
27286W        W47566  14.079   5.979  15.017  0.1091 -0.2524  0.2353
27287W        W47567  17.740  16.217   3.156 -0.2463  0.1697 -0.1015
27288W        W47568   1.251  17.005   0.633  0.0097 -0.1589  0.1027
27289W        W47569   1.222  15.127  15.127 -0.1454 -0.2054  0.1064
27290W        W47570   9.279   3.480  13.992 -0.3376 -0.0182 -0.1550
27291W        W47571  16.842  11.738  15.145 -0.0658  0.0195 -0.0506
27292W        W47572   3.188  15.286  16.845 -0.3147  0.1796  0.0869
27293W        W47573  17.033  12.953  13.513  0.0938  0.2221  0.0889
27294W        W47574  12.781  16.415  12.875 -0.3751 -0.1390  0.1550
27295W        W47575  17.549   7.263  16.118 -0.2634  0.1323 -0.0190
27296W        W47576  13.247   4.538   4.501 -0.2326  0.0073 -0.3029
27297W        W47577   3.318  11.421   0.438 -0.1775  0.0035 -0.0680
27298W        W47578  15.781   6.418  14.795 -0.0659 -0.2874 -0.0191
27299W        W47579   4.177  17.643  16.432  0.0332  0.0243 -0.2741
27300W        W47580  16.137   6.444   1.584 -0.1602  0.2383 -0.2210
27301W        W47581   1.154   6.209   0.477 -0.1583  0.1550  0.0548
27302W        W47582  11.286   0.707   1.859  0.2878 -0.0514 -0.1105
27303W        W47583   2.424   8.713  15.881 -0.0881 -0.0541  0.2577
27304W        W47584   3.329   5.502   4.860 -0.0662  0.0812  0.1434
27305W        W47585   2.660  13.000  14.209 -0.3028 -0.4068 -0.4125
27306W        W47586  11.733  13.667   1.324  0.4167 -0.1712  0.2071
27307W        W47587   1.576   7.804   4.070  0.0383 -0.0709 -0.0624
27308W        W47588   8.538   5.881   1.686  0.3037 -0.1605  0.0707
27309W        W47589  12.827   8.049  13.389 -0.1778  0.1610 -0.0049
27310W        W47590   4.253   9.684   2.201 -0.0155 -0.2319 -0.1426
27311W        W47591  10.930   0.306  12.191  0.0815  0.2030 -0.0889
27312W        W47592  12.773   3.039   4.656 -0.2527 -0.1793 -0.0427
27313W        W47593  11.136   8.139  12.527  0.0629 -0.2564  0.0642
27314W        W47594  10.640  13.206   1.887 -0.3274 -0.1009  0.2484
27315W        W47595   1.643   1.064  14.512  0.2418  0.0389 -0.1895
27316W        W47596   6.782   8.773   1.287  0.1070  0.1765  0.4555
27317W        W47597   3.678  16.413  16.356  0.3921 -0.4731  0.0165
27318W        W47598  14.324   6.868   1.537 -0.1136  0.1590 -0.0927
27319W        W47599  12.454   6.854   3.840 -0.2166  0.0966  0.1973
27320W        W47600   1.533   5.896   3.606  0.1153 -0.0278 -0.2106
27321W        W47601   1.552   9.366  13.378 -0.0662  0.1268  0.0117
27322W        W47602  17.457  15.921   2.906 -0.2892 -0.1619  0.0003
27323W        W47603   9.729  12.144  12.777 -0.1359  0.2707  0.1229
27324W        W47604   6.913   0.017  16.367 -0.1399 -0.1107  0.1354
27325W        W47605  11.949  12.083  16.266  0.1858  0.1667 -0.1193
27326W        W47606  15.926  12.805   2.816  0.4355 -0.2647 -0.1853
27327W        W47607   2.630  10.250  12.982 -0.1224 -0.1784  0.0231
27328W        W47608   3.798  12.475   1.034  0.1178 -0.1391 -0.3318
27329W        W47609   2.613   8.723   2.852  0.4776 -0.1621 -0.0179
27330W        W47610  15.894  10.484  15.214  0.1149  0.0778  0.3008
27331W        W47611  17.007  11.897   4.571 -0.2803 -0.0209  0.1468
27332W        W47612   1.314  17.302   4.605 -0.0169  0.1742 -0.3517
27333W        W47613   8.007  17.633  12.548 -0.2962 -0.0133  0.2574
27334W        W47614  14.959   7.191   2.775  0.0842  0.2269  0.1596
27335W        W47615   9.874  14.919   2.016 -0.0703 -0.2947  0.0298
27336W        W47616   9.973   5.739   1.045  0.1603 -0.0493 -0.0141
27337W        W47617   4.061  12.789  11.746  0.2109  0.2136  0.0955
27338W        W47618   6.515   2.236  12.349 -0.0936 -0.1403  0.2389
27339W        W47619  17.532   0.501  15.672 -0.2873  0.1896  0.1430
27340W        W47620   8.577  10.102   2.785 -0.0786  0.0275 -0.0183
27341W        W47621  11.042   7.048   4.387 -0.0754 -0.1107  0.0856
27342W        W47622  14.323  14.048   3.033  0.0832  0.2259  0.0996
27343W        W47623   7.470   1.738  16.790  0.1894 -0.1306 -0.1164
27344W        W47624  15.764  16.526  13.916  0.2834 -0.3827  0.0923
27345W        W47625  10.483  13.251  14.610 -0.2273 -0.0006 -0.0236
27346W        W47626   7.438  17.667  14.253  0.1234  0.2846  0.0283
27347W        W47627   4.868   0.849   3.603  0.4433  0.0523  0.1425
27348W        W47628   3.564   5.453   3.564 -0.1573  0.2602 -0.0918
27349W        W47629  11.166  10.818  15.897  0.3648 -0.0370 -0.1312
27350W        W47630   3.042  10.323   0.801  0.1094  0.1676  0.1722
27351W        W47631   2.218   4.704   4.564  0.0490 -0.0992 -0.3296
27352W        W47632   6.520   8.891   3.595 -0.1085 -0.1628  0.2282
27353W        W47633   5.809   5.462   0.647  0.3532 -0.0029 -0.0526
27354W        W47634   9.672   1.380   4.292  0.0697  0.0441  0.0570
27355W        W47635  12.772   6.530  15.053  0.1863 -0.1387  0.0292
27356W        W47636  10.857   9.152   0.726  0.0723 -0.0022  0.1260
27357W        W47637  12.285  15.687   2.546  0.1001 -0.0598  0.2533
27358W        W47638  11.854  15.012  12.138 -0.2783  0.2807  0.2058
27359W        W47639  11.034   4.196   0.094  0.3718 -0.2441 -0.0031
27360W        W47640  16.816   7.136   2.588 -0.1230  0.2312  0.1151
27361W        W47641   9.098  10.079   1.617 -0.0373  0.2029 -0.2209
27362W        W47642  13.101   3.034   3.243 -0.1202  0.2961  0.0470
27363W        W47643   5.667  16.336  14.659 -0.4005  0.1922  0.3105
27364W        W47644  17.173  16.397   1.643  0.2950  0.0883  0.1144
27365W        W47645  12.682  11.181   1.465  0.2078 -0.1010 -0.1917
27366W        W47646  11.357   4.456  11.473 -0.3273  0.0572  0.0944
27367W        W47647   4.923  14.658  14.091  0.1278 -0.1125  0.2233
27368W        W47648   2.470  13.367  13.646  0.0402  0.2207  0.0005
27369W        W47649   2.398  15.626  16.121 -0.0845 -0.0361 -0.0005
27370W        W47650   5.383   1.295  15.631  0.0141 -0.5504 -0.0916
27371W        W47651  16.735   9.438  14.436  0.2253 -0.1175  0.3511
27372W        W47652   6.309   9.632  14.828  0.1332 -0.1562 -0.1229
27373W        W47653  10.961  14.934   0.750  0.0145 -0.3098  0.1425
27374W        W47654  11.777  11.120  14.730 -0.0043  0.0099  0.1400
27375W        W47655  10.519  14.247   1.995 -0.0408  0.1913 -0.0932
27376W        W47656  17.261  13.897   2.669  0.2557 -0.3702  0.2442
27377W        W47657  16.148  14.691   4.567  0.1313  0.0633  0.1498
27378W        W47658   0.896   3.310  16.837 -0.2210  0.0576  0.0911
27379W        W47659   6.552   9.405  15.648  0.2125 -0.2620 -0.1120
27380W        W47660   8.775  17.029  12.231  0.1040 -0.0515  0.0851
27381W        W47661   8.464   4.337  12.478  0.1900 -0.2892  0.3815
27382W        W47662  10.165   9.770   0.662 -0.1334  0.2332  0.4674
27383W        W47663  16.086  14.519  16.210  0.1766 -0.0708  0.2208
27384W        W47664   2.048  15.053  13.700  0.1294  0.2583 -0.1830
27385W        W47665  10.141  13.704   0.720 -0.1107 -0.1476  0.2075
27386W        W47666   8.495   8.000  16.614 -0.1143  0.3070  0.2692
27387W        W47667  14.459   2.557   4.288 -0.0706 -0.3219  0.0878
27388W        W47668   4.135  12.667   2.151 -0.2862 -0.0463  0.1674
27389W        W47669  11.213   0.931   5.010 -0.3565 -0.1048 -0.1175
27390W        W47670   6.474  14.549  15.560  0.1680  0.0330  0.1638
27391W        W47671   2.721   9.449  14.152 -0.1293 -0.0489 -0.0152
27392W        W47672   0.377  16.648  13.759 -0.1671  0.3695  0.1731
27393W        W47673  10.782   5.690   4.778 -0.2642 -0.2488 -0.1567
27394W        W47674   7.748   6.156   0.204 -0.0680  0.1782  0.0159
27395W        W47675   9.965   0.245   2.060  0.2117  0.0808  0.0417
27396W        W47676   6.855   7.803  12.230 -0.1781  0.0628  0.0390
27397W        W47677  15.191  12.844  14.619 -0.0580  0.2755  0.2702
27398W        W47678  11.471   8.903  16.489  0.2689 -0.0372  0.1624
27399W        W47679  11.991   2.511   3.952  0.1876 -0.0607 -0.1098
27400W        W47680  13.113   9.385  13.592  0.1798 -0.2837 -0.2381
27401W        W47681   1.666  11.654   1.122 -0.2199 -0.0158  0.0205
27402W        W47682  10.286  11.275  15.093 -0.0039 -0.1718 -0.0880
27403W        W47683  16.553   0.180   2.716 -0.2223  0.4264  0.2398
27404W        W47684  11.254  10.012  14.654 -0.0851  0.0926 -0.0886
27405W        W47685  10.901   6.769  14.242 -0.0134  0.0711  0.3867
27406W        W47686   6.167  11.635   1.611 -0.2464  0.1426  0.1017
27407W        W47687  13.962  16.635  13.797 -0.0534 -0.1705  0.0753
27408W        W47688   1.663   6.250   0.472  0.1274  0.0864 -0.0295
27409W        W47689  15.411   6.023   4.845  0.0838  0.0014  0.0144
27410W        W47690  16.777  13.945   2.458 -0.2153 -0.1830  0.2289
27411W        W47691   8.515  15.570   2.432  0.0964 -0.1012  0.0034
27412W        W47692   9.333  15.194  16.392  0.1397 -0.0732 -0.1397
27413W        W47693   1.514   9.880   2.219 -0.0532  0.4284 -0.0175
27414W        W47694  15.292   0.464  15.865  0.3113  0.2310 -0.1619
27415W        W47695   2.026  17.615   0.057  0.4369  0.2045  0.0388
27416W        W47696   6.524   3.985  13.678 -0.0255 -0.0258 -0.0503
27417W        W47697   4.318   3.501  12.333 -0.2408 -0.1234 -0.2097
27418W        W47698   4.424  10.687   1.596 -0.2904  0.1143  0.0940
27419W        W47699   3.903   8.596  16.530  0.0220  0.0827  0.1931
27420W        W47700   1.509  15.926   0.937 -0.2673  0.0697  0.1713
27421W        W47701  14.772   1.855   1.045  0.1207  0.0918 -0.2657
27422W        W47702   3.312  15.300  11.256  0.0574 -0.1112  0.3427
27423W        W47703  11.345  12.528  16.308  0.1176  0.0131  0.0085
27424W        W47704   5.973   1.429   1.994  0.0520 -0.1371 -0.3104
27425W        W47705   4.271   7.304  12.061 -0.1293 -0.0568 -0.0540
27426W        W47706   5.094  17.393  16.700 -0.0310 -0.1238  0.1216
27427W        W47707   4.741  11.608   4.302 -0.0083 -0.1461  0.0980
27428W        W47708   6.373  16.500   0.052  0.2161 -0.0318 -0.0271
27429W        W47709   6.083   1.377  16.347 -0.2620 -0.4016  0.1274
27430W        W47710   8.646   8.655  12.589 -0.1479  0.0645 -0.0882
27431W        W47711   0.548   6.141   4.681 -0.1236  0.3047  0.0206
27432W        W47712  13.735  10.420   3.174  0.2539 -0.2254  0.1778
27433W        W47713   9.434   6.278   4.679 -0.1049 -0.0794  0.0706
27434W        W47714   9.075   6.512  14.067  0.2744  0.0917  0.1126
27435W        W47715   8.211   5.587   0.584  0.0729 -0.0696  0.0561
27436W        W47716   6.927  10.736  16.512  0.3060  0.0668 -0.0548
27437W        W47717   3.986  10.434   4.514 -0.4461  0.0567  0.2811
27438W        W47718  10.294   1.065  12.590  0.3778  0.2240 -0.2694
27439W        W47719  10.364  12.700  16.387  0.1602  0.1433  0.1153
27440W        W47720   1.744   7.040  16.539 -0.1849  0.0489  0.0165
27441W        W47721  13.253  10.434   1.830  0.2001  0.2011  0.1827
27442W        W47722   7.876   0.703   3.940  0.1286 -0.2067 -0.1217
27443W        W47723   7.576   8.143   2.771 -0.0655 -0.2539 -0.1326
27444W        W47724  10.247  13.497  13.019 -0.0612 -0.2851 -0.3337
27445W        W47725   9.394  12.515  13.946  0.1706  0.0721  0.1085
27446W        W47726   5.212  10.465  13.018  0.1981 -0.2239  0.0480
27447W        W47727  11.907   6.257   2.842  0.1887  0.1223  0.1929
27448W        W47728   7.402   6.085   0.803 -0.1242  0.0500 -0.1971
27449W        W47729  15.206   8.710  15.017  0.3198  0.1043 -0.1192
27450W        W47730   8.818   4.252   1.066  0.1570 -0.0788 -0.2711
27451W        W47731  11.147   3.807   4.840 -0.0117  0.3335 -0.0635
27452W        W47732   6.318  10.401  15.255 -0.3472 -0.2290 -0.0195
27453W        W47733  13.886   1.561  14.710 -0.0051  0.0103 -0.3846
27454W        W47734   7.823   4.115   4.730  0.2485 -0.0624  0.2354
27455W        W47735   0.006  12.221   0.642 -0.2942  0.3430 -0.1257
27456W        W47736  14.949   0.897   0.757 -0.0579  0.1330 -0.1596
27457W        W47737   5.589   5.377  14.078  0.0914  0.3400 -0.1322
27458W        W47738  11.265   8.009   2.720  0.0100 -0.1308  0.1674
27459W        W47739   6.989   9.407  13.987 -0.1528 -0.1572 -0.1450
27460W        W47740   9.070   5.781  12.636 -0.0661  0.0047 -0.5350
27461W        W47741   7.499   2.462  13.388 -0.0444 -0.1043  0.1165
27462W        W47742  11.277   3.201   4.211  0.0343  0.0729  0.0609
27463W        W47743   4.324  17.259   0.387  0.0493  0.4165  0.1116
27464W        W47744  15.196   8.116  16.183  0.0437  0.0921  0.1854
27465W        W47745   8.387   0.537   0.020 -0.1882  0.1548 -0.0854
27466W        W47746   9.919   7.495   4.185 -0.1885 -0.1127  0.2709
27467W        W47747   0.845   4.030  12.194  0.1043 -0.1004 -0.2587
27468W        W47748  16.671   0.740  14.240  0.1981  0.0185  0.1345
27469W        W47749   8.763  13.567   1.343 -0.0380  0.1976 -0.0885
27470W        W47750  13.282  12.049   3.056 -0.2650 -0.3477  0.1118
27471W        W47751   4.498   1.347  15.387  0.2314  0.0044  0.1071
27472W        W47752   3.108  13.109  12.678 -0.1378  0.1731 -0.0315
27473W        W47753  17.085  14.211  13.013 -0.0008  0.1132 -0.0215
27474W        W47754   9.113  16.510  16.073  0.1603 -0.4735  0.0748
27475W        W47755   8.284   8.830   0.129 -0.2230 -0.3484 -0.1140
27476W        W47756   0.555   2.985  12.068 -0.3892  0.5982  0.3981
27477W        W47757   3.480   8.846  14.191 -0.1181  0.1972  0.1623
27478W        W47758   7.606  15.429  15.604 -0.1068  0.0090  0.0017
27479W        W47759   3.493  12.878   4.496  0.0225  0.0063  0.0497
27480W        W47760   5.427  14.619  13.280  0.1805  0.1206  0.0713
27481W        W47761   2.241   8.447   2.628  0.0555  0.1634 -0.0577
27482W        W47762  15.235  14.514   0.360 -0.0183  0.1859  0.2004
27483W        W47763  15.514  11.442  16.082 -0.0603  0.0068 -0.0198
27484W        W47764  16.662   2.633  15.470  0.1974 -0.1933 -0.0109
27485W        W47765  11.348   8.774   4.570  0.1475 -0.1801 -0.2278
27486W        W47766   2.640  13.289   0.707  0.0749  0.1037  0.1595
27487W        W47767  10.425   7.301   2.886  0.0358 -0.1056  0.0868
27488W        W47768  11.045   3.027  15.756 -0.0215  0.0354  0.0648
27489W        W47769  14.563   4.623  13.289 -0.1995  0.2340  0.0133
27490W        W47770   7.965  13.219   0.905 -0.1531  0.1615  0.1321
27491W        W47771   2.108   3.229   4.538 -0.1555 -0.1978  0.0179
27492W        W47772  15.284   4.184   0.304  0.1516  0.2018  0.0394
27493W        W47773   5.043   8.393  15.425 -0.3243 -0.0714  0.3512
27494W        W47774   0.922  10.324   1.656 -0.0202  0.3111  0.1136
27495W        W47775   9.502  16.472  15.338  0.0296 -0.1268  0.2165
27496W        W47776   5.031  12.596   0.187  0.2421  0.0797 -0.1673
27497W        W47777   0.594  13.729   2.886 -0.0162 -0.1252  0.2278
27498W        W47778  11.897   7.801  14.137 -0.4578  0.1424 -0.0298
27499W        W47779  15.667   0.685  15.680  0.0921 -0.0990 -0.2977
27500W        W47780  16.637   7.149   1.753 -0.0599 -0.0758 -0.0863
27501W        W47781   3.574  10.627   3.701  0.0699  0.3046 -0.0233
27502W        W47782  11.063  14.247   3.684  0.0369  0.0589  0.4275
27503W        W47783  10.945  15.509   4.007 -0.1638 -0.0347 -0.1665
27504W        W47784   8.145   3.699  15.189 -0.4737  0.3064  0.0980
27505W        W47785   6.235   7.184   3.338  0.0747  0.2994  0.2533
27506W        W47786   2.366   1.035  13.629 -0.3719  0.0367  0.1083
27507W        W47787   0.163   9.716   1.560 -0.0693 -0.0248 -0.1605
27508W        W47788   7.335   5.198  13.702  0.0996 -0.0204 -0.2554
27509W        W47789   8.386  17.190   0.499  0.1105  0.3277 -0.0717
27510W        W47790  14.825   5.087   1.899  0.0098  0.0817 -0.1666
27511W        W47791  14.318  17.719   0.081 -0.1112 -0.0623 -0.1181
27512W        W47792   7.094  15.630   1.902  0.0447  0.2240 -0.0194
27513W        W47793  12.902  12.108  12.251 -0.1586  0.0910  0.1409
27514W        W47794   6.663   2.143   4.112  0.1756  0.2127 -0.1236
27515W        W47795  16.545   9.826  15.140  0.2848 -0.0007 -0.2853
27516W        W47796   7.533  15.961   1.109 -0.0632  0.0504 -0.0276
27517W        W47797  14.845  10.366   4.244  0.0997 -0.3189  0.1041
27518W        W47798   9.097  12.482  12.200  0.1618 -0.2066  0.0530
27519W        W47799   3.433   1.853  12.867  0.1478  0.3135  0.1383
27520W        W47800   5.485  13.476   4.645  0.1081 -0.0054 -0.0834
27521W        W47801   3.637  17.199   3.297  0.0519  0.0773  0.0737
27522W        W47802  13.494  13.955   1.966 -0.1437 -0.3424 -0.0173
27523W        W47803   6.934  16.056   1.256 -0.0620  0.0615  0.0887
27524W        W47804  11.874  13.982   4.430 -0.0082 -0.0555  0.0885
27525W        W47805   2.289  11.548  12.323  0.3472 -0.5101  0.1415
27526W        W47806  17.739  13.783   2.864 -0.0660  0.1374  0.2146
27527W        W47807   8.650   6.456   1.464  0.0983  0.0020 -0.2000
27528W        W47808   7.063   0.601  12.044 -0.4795  0.0006  0.1695
27529W        W47809   0.542   9.691   4.966  0.1370 -0.0175  0.1221
27530W        W47810  11.659  16.266   2.035 -0.1293 -0.2820  0.0090
27531W        W47811  10.239   7.280   3.353 -0.1978 -0.1023  0.0528
27532W        W47812  10.313   1.227   0.884  0.1550 -0.1495  0.0197
27533W        W47813   4.892  17.717  12.253 -0.0504  0.0085  0.2486
27534W        W47814   8.999   1.121  13.230  0.1139 -0.0245  0.1337
27535W        W47815  16.261   3.871   2.368 -0.2575 -0.2569  0.2422
27536W        W47816   4.502  13.415   0.291  0.0215  0.0072  0.1773
27537W        W47817  15.586   2.697   0.445  0.0453  0.2027  0.0851
27538W        W47818   7.145  10.912   1.276 -0.0466  0.0931  0.0646
27539W        W47819  11.991  12.639   4.941  0.0022 -0.2580  0.1196
27540W        W47820  13.338  12.517   2.238  0.0168 -0.0951  0.0279
27541W        W47821  11.246  13.206  13.009  0.0831  0.0254  0.2594
27542W        W47822  17.420   5.476  16.564 -0.0976 -0.0088 -0.1138
27543W        W47823  11.351   2.572  13.825 -0.0708  0.0304 -0.0106
27544W        W47824   0.501   3.843  16.080  0.1764  0.1214  0.3152
27545W        W47825   1.403   6.432  16.868 -0.1238 -0.0804  0.0328
27546W        W47826  12.207   3.392  12.248 -0.2597  0.0774 -0.2599
27547W        W47827   2.794   0.779  12.725  0.2110  0.0715 -0.1047
27548W        W47828   6.242   5.784   0.155 -0.2274 -0.0761 -0.1814
27549W        W47829  16.349   6.308   2.065 -0.3408 -0.0544 -0.0082
27550W        W47830   2.109   3.746   4.505  0.5385 -0.2413 -0.1022
27551W        W47831  14.840  13.254   1.930  0.0030 -0.1224 -0.3688
27552W        W47832   1.387  17.521   1.518 -0.2934  0.3779  0.0873
27553W        W47833   4.541  10.899   2.142 -0.1562  0.0484  0.0908
27554W        W47834   6.853   7.739   4.301  0.0816 -0.1638  0.1847
27555W        W47835   3.271  10.240  13.895  0.0305  0.1737  0.1085
27556W        W47836  14.490   8.148  14.705 -0.0024  0.2413 -0.2983
27557W        W47837   3.854   9.288   0.485 -0.0312 -0.1555 -0.1162
27558W        W47838   3.353  13.736   3.169 -0.0753  0.1589  0.3199
27559W        W47839   8.629   6.701  15.813  0.1399 -0.0617 -0.1658
27560W        W47840  15.502  16.666  13.527  0.0896  0.3544  0.0764
27561W        W47841  15.450   8.312  13.904 -0.1831 -0.2253 -0.2265
27562W        W47842   5.895  10.829  13.581  0.1430 -0.2602  0.0096
27563W        W47843   4.864   5.329  12.888 -0.2966  0.2048 -0.4697
27564W        W47844   3.936   6.175  16.713 -0.1207 -0.1079  0.0344
27565W        W47845   3.495  13.646   1.793  0.0651 -0.1339  0.1505
27566W        W47846   5.004   9.038   2.339 -0.0643  0.2006  0.0758
27567W        W47847  17.362  11.251   0.880  0.0947  0.1539  0.0143
27568W        W47848  15.376  11.671  14.169 -0.0902 -0.1022 -0.0163
27569W        W47849   8.289  10.517   4.235 -0.1101 -0.2648 -0.1935
27570W        W47850  12.933  11.305  12.709  0.1767 -0.1095  0.1052
27571W        W47851  14.576   8.855   2.626 -0.1518 -0.0211  0.0972
27572W        W47852   4.966   6.444  11.101  0.3619  0.0542  0.2615
27573W        W47853  14.146  12.812   3.864 -0.2940 -0.1938  0.0199
27574W        W47854   2.446  12.714  15.005 -0.0919 -0.0258 -0.1880
27575W        W47855  10.240  12.265  16.598 -0.0829 -0.0928  0.1336
27576W        W47856  16.945  17.505   1.750  0.3124  0.0009  0.2733
27577W        W47857  15.674  12.800   4.020  0.1673 -0.2665 -0.2036
27578W        W47858   7.068   8.949  15.242  0.0870 -0.1772  0.2526
27579W        W47859   0.408  16.229  14.816 -0.0223  0.2591 -0.1796
27580W        W47860   2.587  16.884  14.817 -0.3411  0.0450 -0.2683
27581W        W47861   3.612   0.675  13.838  0.0459 -0.2360 -0.0863
27582W        W47862   6.398  14.955  12.269  0.1241 -0.0386  0.0329
27583W        W47863   5.708  16.472  13.593 -0.3733 -0.1799 -0.0573
27584W        W47864   1.214  13.376   1.211 -0.1434  0.0180 -0.1030
27585W        W47865  17.024   0.748  14.854  0.0014 -0.3716 -0.2707
27586W        W47866  16.863  14.073  14.699 -0.0961 -0.1408  0.0608
27587W        W47867  13.733   8.728  16.432  0.1338  0.0930 -0.1439
27588W        W47868  16.206   2.915   3.851  0.0027  0.0191  0.2730
27589W        W47869   7.783  14.270  16.656 -0.0334 -0.0493  0.4603
27590W        W47870   6.829   6.087   0.743 -0.1535 -0.1124  0.1582
27591W        W47871   7.162   0.352  16.647  0.1911  0.0146 -0.0487
27592W        W47872   1.369   3.579   2.880 -0.1248  0.0635  0.0232
27593W        W47873  10.210  16.867   2.873  0.1281  0.1088  0.0118
27594W        W47874  15.080   0.990   2.898 -0.0581  0.0079 -0.4061
27595W        W47875   1.987   4.644  14.131 -0.0945 -0.0748 -0.3312
27596W        W47876   8.365  11.728   0.035  0.1193  0.0830 -0.1179
27597W        W47877  14.894   5.986   0.811 -0.1410 -0.1041 -0.1357
27598W        W47878  12.811   3.406  15.932 -0.0130  0.0353  0.0242
27599W        W47879  17.211  11.327  16.507  0.1060  0.0072  0.1810
27600W        W47880   7.616   2.968  12.187 -0.2204 -0.2305 -0.1215
27601W        W47881   7.815   1.615  12.313 -0.0192 -0.0847  0.3098
27602W        W47882   2.171   1.644  12.827 -0.2455 -0.1229 -0.4374
27603W        W47883   0.846  10.525   0.151 -0.1423  0.1783 -0.1410
27604W        W47884  12.891   3.412   0.032 -0.0606 -0.3275 -0.2614
27605W        W47885   8.933   2.660   3.497  0.0045 -0.2980  0.0401
27606W        W47886   0.690   8.618   2.975 -0.1332 -0.0277  0.1086
27607W        W47887  15.476   8.330  13.387 -0.0315  0.0096  0.0068
27608W        W47888  14.631   0.222   3.041 -0.2553  0.1859  0.0035
27609W        W47889   3.243   6.776   5.056 -0.1938  0.1964  0.0560
27610W        W47890  13.100  13.303  13.120 -0.1857 -0.1218  0.1383
27611W        W47891  14.615  14.390   2.339  0.2089  0.2546  0.2630
27612W        W47892   1.414   2.047  13.010  0.0668  0.0329 -0.0325
27613W        W47893  14.750   3.536  14.374  0.1215 -0.2109 -0.3781
27614W        W47894   1.948   4.929  12.568  0.1525 -0.0004  0.4785
27615W        W47895  15.349   6.187   1.944  0.0223 -0.2419 -0.0013
27616W        W47896  12.424   1.991  14.501  0.0737  0.0403 -0.1190
27617W        W47897  12.092   3.798   2.286 -0.2577  0.1232 -0.0037
27618W        W47898  12.703   7.000   0.337 -0.0947 -0.1080  0.1550
27619W        W47899   0.138  10.723   1.920 -0.1354  0.0124  0.2240
27620W        W47900   0.758  17.044   0.700 -0.2735 -0.0785 -0.0599
27621W        W47901  16.683  12.079   2.627 -0.0060  0.0448 -0.2167
27622W        W47902   2.498   6.350  15.724 -0.0386  0.1878 -0.2781
27623W        W47903  17.235  17.682  15.381  0.2728 -0.2147 -0.0689
27624W        W47904  10.689  16.737  13.129  0.0753 -0.0631  0.1974
27625W        W47905   1.453  12.221  13.095  0.2508  0.0370 -0.0188
27626W        W47906  14.466   4.739   0.608  0.3127 -0.1928 -0.0738
27627W        W47907   4.255  13.828   0.043  0.0774  0.1612 -0.1364
27628W        W47908  15.565  13.372  12.699  0.2535  0.0348 -0.0052
27629W        W47909  11.386   4.326  14.585  0.1597 -0.1285  0.1974
27630W        W47910  17.713  10.464   1.325  0.1252 -0.0213  0.6188
27631W        W47911  14.644   4.269   2.365 -0.2372  0.1203 -0.1185
27632W        W47912   4.074   1.510   1.738  0.1303  0.0998 -0.0045
27633W        W47913  12.924   5.586  12.963 -0.0395  0.0672  0.1804
27634W        W47914  16.160   1.824  14.240  0.1426 -0.1546 -0.2004
27635W        W47915  10.852   5.623  12.899  0.0045 -0.1159 -0.0143
27636W        W47916  14.122   0.190  16.531  0.1372  0.0240 -0.0619
27637W        W47917   1.468   9.004  14.781  0.0782  0.2088  0.3390
27638W        W47918  17.455   6.292   3.635 -0.0697 -0.2853  0.2353
27639W        W47919  16.330   6.522  16.586 -0.2883  0.2019  0.2698
27640W        W47920  16.229  14.545  13.223  0.0492  0.0360 -0.4330
27641W        W47921   1.963  12.398  13.941  0.2116  0.3198 -0.0100
27642W        W47922   2.484   8.666  13.515  0.1479 -0.1426 -0.1159
27643W        W47923  13.289   6.016  15.659  0.2219 -0.0620  0.1892
27644W        W47924  11.173   4.960   4.180  0.2111  0.2255 -0.0628
27645W        W47925  15.241  10.982  16.189  0.1405  0.0262  0.0623
27646W        W47926   4.553   2.169  12.015  0.0704  0.0513 -0.2841
27647W        W47927  12.083  11.636  15.981 -0.1732 -0.0066  0.1221
27648W        W47928  16.849  16.967  16.514  0.1184  0.0790 -0.2072
27649W        W47929   2.553  12.575  16.434 -0.0995 -0.0103 -0.2036
27650W        W47930   5.828  11.056  14.348 -0.2769 -0.0202 -0.2894
27651W        W47931   9.737   4.323   3.355  0.1218  0.1863  0.1253
27652W        W47932   7.337   2.539   2.270 -0.2585  0.0992  0.2929
27653W        W47933   3.767  13.650   2.273 -0.3056  0.1066  0.0898
27654W        W47934  15.018   3.078  16.142 -0.3445 -0.1097 -0.0964
27655W        W47935   5.021  16.737  12.996 -0.1228 -0.1739  0.0243
27656W        W47936   9.920  16.530  12.676 -0.0522  0.4870 -0.0764
27657W        W47937   1.518   7.209   1.863 -0.0884 -0.2437 -0.1997
27658W        W47938   5.579  15.362  14.840 -0.0371  0.1952 -0.0522
27659W        W47939  16.181  14.931  14.039  0.2306  0.2315 -0.1000
27660W        W47940   6.684   8.144  16.024 -0.0487 -0.1468  0.0694
27661W        W47941  11.939  16.751  13.190  0.1125 -0.0657 -0.0152
27662W        W47942   9.544   5.429   1.171  0.0537 -0.1113  0.0770
27663W        W47943  16.410   5.589  14.782 -0.1205 -0.1143 -0.1232
27664W        W47944  15.189  15.146  13.241  0.2097 -0.2254  0.3486
27665W        W47945   3.094  10.214   3.692  0.1278  0.2164  0.2745
27666W        W47946   4.033  14.556   0.619  0.0362  0.1893  0.1974
27667W        W47947  16.199   8.986   1.917 -0.3514  0.1317  0.2989
27668W        W47948  17.476   6.958   3.486 -0.3012 -0.0829  0.1656
27669W        W47949  12.594  11.378   4.751  0.2336 -0.1921 -0.2135
27670W        W47950  16.974   5.712   2.427 -0.1946 -0.3870  0.0243
27671W        W47951  11.434  12.151   3.955 -0.1055  0.0095 -0.1091
27672W        W47952  11.616  17.465  14.714  0.2825 -0.1081  0.0457
27673W        W47953   0.335   3.331   4.830  0.1493 -0.0306  0.1755
27674W        W47954   4.159  12.250   1.889 -0.1173 -0.0731 -0.2325
27675W        W47955   1.577   7.038  12.399  0.2218  0.0853  0.0404
27676W        W47956   9.753  13.575  15.072  0.1201  0.0718 -0.0741
27677W        W47957  12.259   3.370  14.914 -0.1245 -0.0089  0.1469
27678W        W47958  15.950   1.081   2.669  0.1406 -0.0136  0.2999
27679W        W47959   8.981  16.565   0.109 -0.0341 -0.0938  0.0663
27680W        W47960   7.671   3.208   1.870  0.2283  0.4755 -0.0278
27681W        W47961  16.104  17.679  15.479  0.0735  0.0073 -0.2899
27682W        W47962   1.207  10.067   0.786  0.0509  0.2045  0.0694
27683W        W47963   1.707  13.745  16.235  0.0148  0.0521 -0.0807
27684W        W47964   5.458   4.395  13.817 -0.0165 -0.2157  0.2966
27685W        W47965   5.158  10.370   2.160  0.0291 -0.0572 -0.0628
27686W        W47966  12.862   4.613  10.740 -0.0508 -0.3246  0.0749
27687W        W47967   3.867  13.372  15.043  0.3539 -0.0529  0.2332
27688W        W47968  10.888   4.210  15.981  0.3133 -0.0425 -0.0500
27689W        W47969   0.463  14.754  16.256 -0.1418 -0.2449  0.0137
27690W        W47970   0.991   4.463  15.071  0.0805  0.0472 -0.1318
27691W        W47971  16.238   5.714  13.800  0.3400  0.1538  0.2649
27692W        W47972   0.257  17.234  15.816 -0.1209 -0.1645 -0.1283
27693W        W47973   4.186   0.053  12.564 -0.1752  0.1265 -0.1212
27694W        W47974   3.695  12.076   4.632 -0.1592  0.0204  0.0217
27695W        W47975  17.214  12.550  13.783 -0.0699  0.0840  0.3834
27696W        W47976  10.503  16.310  14.370 -0.0239  0.0488 -0.0249
27697W        W47977  16.444  13.079  16.167  0.1124 -0.1122 -0.0545
27698W        W47978   3.800   2.178  12.350 -0.1657 -0.4548 -0.1397
27699W        W47979   2.309   1.390  13.928 -0.0720  0.0927  0.0176
27700W        W47980  12.842  11.225  15.362  0.1887  0.0545  0.1193
27701W        W47981  14.824   3.804  13.556 -0.2612  0.1189  0.1113
27702W        W47982  13.272  11.826   1.212  0.1066  0.0810 -0.0530
27703W        W47983   8.065   0.828   1.881 -0.2089  0.0533 -0.0122
27704W        W47984  16.949  11.402   4.342 -0.1443 -0.2132 -0.0902
27705W        W47985  12.015  16.292  13.448 -0.0411  0.4145  0.2457
27706W        W47986  13.205   4.855  13.384 -0.1219  0.0704 -0.0454
27707W        W47987   9.057   5.331  16.323 -0.2949  0.0117 -0.1096
27708W        W47988   3.662  11.042  16.641  0.0468  0.1532  0.0630
27709W        W47989  17.613   0.468  14.762  0.2366  0.1908  0.1095
27710W        W47990  16.630  16.549   0.743  0.2186 -0.0450 -0.1583
27711W        W47991  11.441   6.616   0.425  0.2203 -0.2835  0.2090
27712W        W47992   0.722   8.153  16.099 -0.1282  0.0304 -0.0385
27713W        W47993  12.754  16.867  13.053  0.1504 -0.0241  0.2408
27714W        W47994  12.809   9.688  13.357 -0.0518  0.2486  0.2957
27715W        W47995   5.623   2.528   0.654  0.0373 -0.3094 -0.1450
27716W        W47996  14.721   2.026  14.584 -0.1349  0.1411 -0.1667
27717W        W47997  11.923   6.526  13.202  0.2435 -0.1004 -0.2887
27718W        W47998   2.972   0.425   2.571  0.4171 -0.1328  0.0244
27719W        W47999  13.263   2.901   1.869  0.0655  0.0738 -0.2783
27720W        W48000   2.545  16.908  12.276  0.3992  0.2487  0.1717
27721W        W48001  12.445   2.791   2.292 -0.0697  0.0212  0.3986
27722W        W48002   4.159   6.469  13.140 -0.0897  0.0719  0.1417
27723W        W48003   9.860   1.018  13.611 -0.1066  0.0656  0.0089
27724W        W48004  15.478  10.123  16.330  0.1190  0.1492 -0.2134
27725W        W48005   0.376  15.221  14.845 -0.3036 -0.2594  0.1444
27726W        W48006  16.770   0.660   1.394  0.0127 -0.2630 -0.0026
27727W        W48007  14.868   9.380  16.402 -0.0783  0.0832 -0.0076
27728W        W48008   0.636   3.755   0.196 -0.1567  0.2630  0.1292
27729W        W48009   2.452   1.301   0.186  0.0885  0.0318 -0.1252
27730W        W48010   1.123   8.416   4.190 -0.2256  0.2785 -0.0200
27731W        W48011  10.381   9.569  15.913  0.0784  0.0065  0.1453
27732W        W48012   7.611  16.848  16.648  0.0646 -0.1353 -0.0186
27733W        W48013   3.440   8.878  15.197 -0.0217 -0.0366 -0.5353
27734W        W48014  13.893   2.601   4.318  0.3384 -0.1578 -0.0045
27735W        W48015   4.998  13.613  14.122 -0.2739 -0.3638 -0.4046
27736W        W48016   6.711  14.644  15.010  0.1397 -0.0555 -0.4656
27737W        W48017   2.183   9.103  15.675  0.0599 -0.1140  0.2668
27738W        W48018   2.291  12.488   4.595 -0.0187 -0.0251 -0.0141
27739W        W48019  11.867   3.093   5.018  0.0721  0.3274 -0.3468
27740W        W48020  10.241   3.664  15.278 -0.0713  0.0103 -0.1079
27741W        W48021  13.065   5.087   0.363  0.1349  0.0937  0.0453
27742W        W48022  15.455  15.725  12.508 -0.0656  0.3125 -0.1151
27743W        W48023  10.503   6.211  11.021 -0.1949 -0.0087 -0.0619
27744W        W48024  10.985  14.331   4.646  0.0075  0.0461 -0.0495
27745W        W48025  11.726   9.564  13.020 -0.1148  0.1551  0.2808
27746W        W48026   7.351   3.601   2.058  0.1413  0.1820  0.0469
27747W        W48027  12.591   3.977   2.284 -0.1555 -0.1759 -0.2705
27748W        W48028   2.687   4.928   2.146  0.2140  0.1290 -0.1828
27749W        W48029   0.782  16.403  15.117 -0.1871  0.0485 -0.1124
27750W        W48030   2.901   9.118   3.736 -0.2056 -0.2765 -0.1405
27751W        W48031  11.312  12.042  14.758 -0.2374  0.0498  0.2061
27752W        W48032  16.691   9.172  16.590  0.0886  0.0734  0.4165
27753W        W48033  11.016  11.636   2.325 -0.2875 -0.4403 -0.7686
27754W        W48034   7.914   3.775  12.509  0.0001 -0.4364 -0.0273
27755W        W48035  13.509  12.680   4.692 -0.1550 -0.1239 -0.1017
27756W        W48036   8.045   1.504   0.196 -0.1701 -0.3676 -0.1880
27757W        W48037   0.942   8.028   4.424 -0.1947 -0.2136 -0.0372
27758W        W48038   8.363  14.906   4.894 -0.3673  0.1462 -0.3186
27759W        W48039  16.164  11.674  14.657 -0.0513  0.1019  0.0894
27760W        W48040   8.181   8.814   2.670  0.2318 -0.0131  0.0188
27761W        W48041  10.140   3.883  12.499 -0.1267  0.0569 -0.0088
27762W        W48042   5.788   0.880  12.417 -0.1568  0.0940 -0.2098
27763W        W48043   9.051   1.512   6.004  0.3361 -0.0167 -0.2931
27764W        W48044   5.629   4.368   2.799 -0.0825  0.2357 -0.0914
27765W        W48045   8.798   1.867  12.226 -0.0185 -0.2872  0.1408
27766W        W48046  16.924   3.457  16.774 -0.1057  0.1313  0.1815
27767W        W48047  14.836  13.692  16.491 -0.0711  0.0483  0.1202
27768W        W48048   2.739  16.313   4.845 -0.0173  0.0706  0.4405
27769W        W48049  12.385  14.607  13.713 -0.1377 -0.0637  0.3402
27770W        W48050   8.849   6.185  14.434 -0.0857  0.1882 -0.0641
27771W        W48051   9.273  13.378  13.203 -0.1440  0.1882  0.1146
27772W        W48052   0.080   0.830   1.914 -0.1301 -0.3656 -0.1064
27773W        W48053   9.926  14.336   2.664  0.0880  0.0936 -0.0273
27774W        W48054   6.103   1.105   3.864 -0.0643  0.1925  0.0222
27775W        W48055   4.009   5.692  13.929 -0.1250 -0.1652  0.1400
27776W        W48056   8.122   5.946   1.965 -0.1738 -0.0186  0.1123
27777W        W48057  13.567   5.212   1.705 -0.1439 -0.3065  0.4542
27778W        W48058   2.176   0.349  14.148  0.0947  0.0183  0.1052
27779W        W48059  13.750   9.907   4.000 -0.0316 -0.1401  0.0119
27780W        W48060   2.171  15.395   1.736 -0.0476  0.1564  0.0101
27781W        W48061  13.329  15.869  16.054 -0.0959  0.2139  0.0514
27782W        W48062   5.410  17.499  12.189 -0.0405  0.1309 -0.0138
27783W        W48063  10.725   3.189  16.161  0.1717 -0.3780 -0.0022
27784W        W48064   7.757   8.044  15.358  0.0031  0.1064  0.0869
27785W        W48065   6.228   2.220  15.384  0.1784 -0.1136 -0.1323
27786W        W48066   7.540   5.002   2.045  0.0256 -0.2025  0.2536
27787W        W48067   4.110  16.269   1.329  0.1607  0.1069 -0.1049
27788W        W48068  15.556   4.108   4.652  0.0346  0.0781 -0.0283
27789W        W48069   6.228  13.024  16.054 -0.0407  0.3287  0.0480
27790W        W48070   4.650   4.477   2.574 -0.2112  0.2237 -0.0737
27791W        W48071   8.364  15.847   1.014  0.1287  0.0504 -0.0689
27792W        W48072   7.475  13.244  12.250  0.0044  0.0089  0.0504
27793W        W48073   2.056   2.517   0.544  0.1785  0.1718 -0.5226
27794W        W48074  10.462   6.398   1.203 -0.1401 -0.2288  0.0129
27795W        W48075   4.158   1.145  12.336 -0.1671  0.1912  0.0212
27796W        W48076  15.091   4.184   2.054  0.1503  0.1135  0.0633
27797W        W48077  10.179  12.938  15.555  0.2038 -0.1317 -0.2724
27798W        W48078  10.706  10.415  12.745 -0.0174  0.2418  0.1726
27799W        W48079   1.557  12.609   1.468 -0.1306 -0.0880 -0.0092
27800W        W48080  15.761   9.309  16.883  0.2635  0.2141 -0.2757
27801W        W48081  12.230  15.221   2.794  0.1776 -0.0330  0.0671
27802W        W48082  11.729   9.851   5.217 -0.0836 -0.3169  0.1063
27803W        W48083  16.793   7.699  15.666  0.1715 -0.0398  0.0785
27804W        W48084  14.909   4.578   0.600  0.3038 -0.0243 -0.1292
27805W        W48085   2.898  12.624   1.297  0.2882  0.1022  0.1541
27806W        W48086  13.857  14.863   2.000 -0.2258 -0.0219  0.0419
27807W        W48087  17.394  17.627  11.070  0.1082 -0.0885  0.0549
27808W        W48088   2.595   1.416  12.637 -0.4544  0.0138 -0.0814
27809W        W48089  16.536   6.918  15.668 -0.2092  0.0468 -0.5072
27810W        W48090   4.938   9.520   1.856  0.0595  0.0364 -0.0013
27811W        W48091   3.362  14.338  12.561 -0.2205  0.1203 -0.0034
27812W        W48092  15.194  14.215   4.077  0.0719  0.1236  0.0529
27813W        W48093   0.734   8.358   3.800  0.0395 -0.0347  0.1349
27814W        W48094  12.409  13.750  15.731 -0.1397  0.0461  0.2366
27815W        W48095   2.435   2.523   1.922  0.1354  0.0614  0.0906
27816W        W48096  11.134   3.701   0.237 -0.1693  0.0378 -0.0507
27817W        W48097   7.683  10.162  16.380 -0.0632 -0.1359 -0.1824
27818W        W48098   4.987   3.086   4.174 -0.0447 -0.3873 -0.1416
27819W        W48099   4.074   8.522   0.160  0.0492  0.1144 -0.0040
27820W        W48100   6.387   4.846   0.381  0.0976 -0.2709 -0.2553
27821W        W48101   4.743   9.078   1.895  0.1220 -0.0558 -0.0577
27822W        W48102   1.305   3.362  11.991 -0.3454  0.0242 -0.1315
27823W        W48103   3.464   1.012   4.701  0.0638  0.0348 -0.0942
27824W        W48104   2.291  14.933   0.921 -0.0537  0.0410  0.0094
27825W        W48105   3.581   5.737  13.722  0.0926 -0.0856  0.3323
27826W        W48106   6.571  15.349  13.623 -0.0492  0.2117  0.4405
27827W        W48107   2.924   8.253   2.691  0.3069 -0.1279 -0.1386
27828W        W48108  16.406   8.809   5.871 -0.3297  0.2568 -0.2441
27829W        W48109   5.783  10.808   4.362  0.0820 -0.1324 -0.0565
27830W        W48110   9.662  10.338  12.786  0.0758  0.0213 -0.1022
27831W        W48111   4.023   8.875  14.240 -0.0574  0.0641 -0.0134
27832W        W48112  16.451   2.085  16.078 -0.1894  0.3128  0.0028
27833W        W48113  16.401   4.459  16.433 -0.2291 -0.0765 -0.2086
27834W        W48114   5.574   7.766  15.287  0.2756  0.2045  0.1355
27835W        W48115  14.793   2.589   0.714 -0.2190  0.0175 -0.2242
27836W        W48116   2.087   3.712  12.599 -0.1318  0.3322  0.2015
27837W        W48117   7.339  14.531   1.007  0.0965 -0.1446  0.1246
27838W        W48118  16.167  12.996  14.638 -0.3584 -0.0228  0.0299
27839W        W48119  17.497   2.193   1.267 -0.1654 -0.1279  0.2452
27840W        W48120   3.012  10.529   0.324  0.0667 -0.0140 -0.2636
27841W        W48121   9.553  17.151   0.958 -0.0451 -0.0836 -0.2539
27842W        W48122  17.452  12.655   1.420  0.1063  0.5186 -0.0941
27843W        W48123  16.478  15.912   3.296  0.2782 -0.2374 -0.0563
27844W        W48124   6.261  10.414  12.254 -0.0865 -0.0751  0.1128
27845W        W48125  15.847   9.602   0.897  0.0917 -0.0523  0.1303
27846W        W48126  16.579  17.510   0.817 -0.2041  0.0460 -0.1564
27847W        W48127   3.793   3.520  15.468 -0.2816  0.1622  0.1130
27848W        W48128   1.478  11.613   1.582 -0.1226  0.3810  0.0072
27849W        W48129  15.133   3.721  12.246  0.2678 -0.0025 -0.0661
27850W        W48130   2.828   6.459   1.502 -0.0956 -0.5169 -0.0964
27851W        W48131   0.541   7.070   2.242  0.2314  0.0899  0.1551
27852W        W48132   1.340   0.461   2.007  0.0004  0.2450 -0.2901
27853W        W48133  16.117   3.413   4.107  0.1470  0.2503  0.0437
27854W        W48134  12.197   8.151  16.560 -0.1043  0.0844 -0.2011
27855W        W48135   4.399   3.597  14.068  0.0979 -0.1359 -0.2588
27856W        W48136  11.979   5.478  14.873  0.0349  0.4092 -0.0204
27857W        W48137   9.289   1.504   2.868 -0.0904 -0.0137  0.0144
27858W        W48138  14.037  15.777   0.736  0.0947 -0.0994 -0.2019
27859W        W48139  13.594  11.511  13.105  0.1292 -0.0259 -0.1175
27860W        W48140  13.627   2.414  14.020 -0.0681  0.0027 -0.0212
27861W        W48141   0.903  12.110  12.984  0.1738 -0.2221  0.1071
27862W        W48142  11.033   0.480   0.086  0.2162 -0.1613  0.0970
27863W        W48143  10.111   5.666  12.588  0.0409 -0.0065  0.1670
27864W        W48144   5.929   4.854  15.739  0.3191 -0.2844  0.1894
27865W        W48145  13.512   5.727   4.784 -0.0929  0.0720 -0.3116
27866W        W48146  16.747   8.169   1.518 -0.0531 -0.0059  0.0286
27867W        W48147   9.419   7.972  14.589  0.0872  0.3055  0.0255
27868W        W48148  16.827   1.212  14.554 -0.2567 -0.2262  0.0257
27869W        W48149  16.150   7.669   4.031  0.2269 -0.1888  0.1180
27870W        W48150   4.894  14.235   1.957  0.0734  0.0214 -0.0162
27871W        W48151   0.538   6.925   1.525  0.0733  0.1295 -0.0297
27872W        W48152   6.523   9.614   3.252 -0.0862 -0.1328 -0.0308
27873W        W48153  13.325  16.151  14.888  0.0540 -0.0783 -0.2118
27874W        W48154  13.678   0.284   1.912  0.0737  0.1403  0.0086
27875W        W48155  11.028   4.063   3.697 -0.1133  0.0413 -0.0269
27876W        W48156  13.067   8.513   0.475  0.0163 -0.1925 -0.0003
27877W        W48157  13.837   6.711   0.242 -0.0028  0.2370  0.2633
27878W        W48158   5.376   3.396  15.720 -0.0488  0.2379 -0.2414
27879W        W48159   5.605   2.437  13.706 -0.1024 -0.0525  0.0058
27880W        W48160  10.330   0.608   3.987 -0.0398 -0.0683  0.0690
27881W        W48161  15.021   6.464   0.539 -0.1301 -0.1536  0.0325
27882W        W48162  10.189   2.418  15.516 -0.1956  0.0259 -0.0167
27883W        W48163   9.128   2.323  14.769 -0.2236 -0.1024 -0.0527
27884W        W48164  10.484   1.101   3.855 -0.3152 -0.0761  0.0531
27885W        W48165   0.730   8.313   0.301 -0.1525  0.0321 -0.0478
27886W        W48166  15.384   3.842  15.454  0.0981  0.0018  0.2691
27887W        W48167   9.358  10.235   2.649  0.1530  0.0126 -0.1426
27888W        W48168   2.170  10.887   0.083 -0.1849  0.2993 -0.0029
27889W        W48169  12.958  14.728  15.710 -0.0925 -0.2240 -0.2813
27890W        W48170  17.287  13.861  12.216 -0.3368  0.0952 -0.0506
27891W        W48171   9.179  16.723  15.596  0.1289 -0.3667  0.3129
27892W        W48172   0.780   2.597   1.147 -0.2016 -0.0250 -0.0255
27893W        W48173   9.576   6.391  13.392  0.2676  0.1105 -0.0785
27894W        W48174   1.335  15.282  12.971 -0.0091  0.1138 -0.0399
27895W        W48175   8.739  17.376  12.577 -0.0499  0.1712 -0.4295
27896W        W48176   9.939   1.426  15.887  0.0738  0.3049 -0.3485
27897W        W48177   3.440   8.465  14.898  0.1151  0.1630 -0.1779
27898W        W48178  10.562   4.374  14.565 -0.1885  0.1248 -0.0924
27899W        W48179   0.444  13.532  12.577  0.0500  0.0484  0.0649
27900W        W48180   7.441  11.734   2.922  0.0560 -0.0722  0.2491
27901W        W48181  12.522  12.109  16.725  0.0744 -0.0055  0.1949
27902W        W48182   4.338  12.001   1.455  0.1233 -0.0058 -0.1710
27903W        W48183   0.820  12.683  14.107  0.4239 -0.1239  0.0218
27904W        W48184   8.088  13.034   4.733 -0.0653  0.1155  0.2679
27905W        W48185  12.114   5.979  13.996  0.0823  0.1826 -0.0935
27906W        W48186   2.998  13.938  13.203 -0.1583 -0.1335 -0.1822
27907W        W48187  15.495   2.591  16.858 -0.1867  0.0109 -0.0030
27908W        W48188   9.675   9.413   4.556  0.0696 -0.1287 -0.0764
27909W        W48189   2.119   9.818   4.591 -0.0025  0.1998 -0.1009
27910W        W48190   5.457   5.218  16.537  0.0690 -0.1035 -0.0095
27911W        W48191  15.772   0.180  15.752  0.1190  0.1367  0.0142
27912W        W48192   3.847  14.472  13.984 -0.2206  0.0229 -0.0857
27913W        W48193  11.988   0.447   3.204  0.1409  0.0257  0.1966
27914W        W48194   6.614   3.995  14.170  0.1570  0.0298  0.0399
27915W        W48195   1.012   0.497   4.550 -0.1011  0.1635 -0.4306
27916W        W48196   7.469   6.077  15.846 -0.1023 -0.3514  0.2564
27917W        W48197   3.988   7.304  12.918 -0.0022 -0.1220  0.1282
27918W        W48198  17.605  14.297  14.540  0.0517  0.1373 -0.0006
27919W        W48199  11.845  15.286  15.266  0.0245  0.1456 -0.1660
27920W        W48200   0.457  11.942  15.247  0.1179  0.1109  0.0965
27921W        W48201  10.833   6.162   4.153 -0.1082  0.0859 -0.0463
27922W        W48202   5.375   9.685   1.780  0.0343  0.0136 -0.1767
27923W        W48203  17.610  12.780  13.472 -0.1004  0.2560 -0.0108
27924W        W48204  10.443   2.878  15.650 -0.1677 -0.0870  0.1216
27925W        W48205   8.567   2.243  16.407  0.1391 -0.2360  0.0122
27926W        W48206   1.874   6.043   4.007 -0.1490  0.1001  0.1593
27927W        W48207   3.743  14.400  11.785 -0.0633  0.3486 -0.0763
27928W        W48208  17.329  15.479  13.712 -0.3623  0.1875  0.0071
27929W        W48209  15.561   2.872  15.911  0.1183 -0.4503  0.2096
27930W        W48210   6.768  15.822   2.356 -0.0754  0.1013 -0.1180
27931W        W48211  17.277  13.317  12.332  0.1280 -0.1595  0.0776
27932W        W48212   1.001   2.102  13.750  0.1929  0.1600 -0.0719
27933W        W48213   8.365   6.553  12.097 -0.1049 -0.3205  0.2379
27934W        W48214   2.609   9.002  12.572  0.1393 -0.0112 -0.1988
27935W        W48215  11.291  15.512   1.552  0.1119 -0.4244 -0.0780
27936W        W48216   8.977  13.214  11.766 -0.2336  0.1106  0.0761
27937W        W48217  14.475   3.675   4.889  0.3109  0.0064  0.1852
27938W        W48218  13.935  17.375  16.842  0.3488  0.0243 -0.0024
27939W        W48219  14.821   1.163   2.412  0.0749  0.2449 -0.0782
27940W        W48220   1.626  10.327   0.778  0.0362  0.0130  0.0843
27941W        W48221  11.500   6.851   3.460  0.0481  0.0188 -0.2419
27942W        W48222   7.061  15.172   1.079  0.3848 -0.0244  0.1017
27943W        W48223  10.764   0.338  14.016  0.0455  0.0384 -0.1897
27944W        W48224   2.735   4.392   0.535  0.2005 -0.0328 -0.0762
27945W        W48225   6.270   8.452  14.683  0.0075 -0.0114  0.0798
27946W        W48226   6.030   3.805  13.384 -0.0785 -0.0173  0.2840
27947W        W48227  16.417   7.909  14.022  0.1313 -0.2241  0.0886
27948W        W48228   5.534   4.359  12.957 -0.3891  0.0405 -0.0497
27949W        W48229  13.792   2.509  14.557  0.1170 -0.0344  0.1606
27950W        W48230   0.498  10.933  12.794 -0.0803  0.3057 -0.0028
27951W        W48231  15.265   5.708   1.004  0.1771  0.0809  0.1835
27952W        W48232   0.559   8.048  14.140 -0.1068  0.1219 -0.2948
27953W        W48233   1.519  17.452  14.045  0.1248  0.1384  0.2424
27954W        W48234  12.064   9.154  15.227  0.1343  0.1470  0.0020
27955W        W48235  15.139   0.084  15.496  0.0777 -0.1669  0.1504
27956W        W48236   7.281  15.610  13.329  0.0946  0.1592 -0.0748
27957W        W48237   5.921  17.227   4.834  0.1055  0.1569  0.1793
27958W        W48238   5.454   7.945   0.477  0.2467  0.1166  0.0221
27959W        W48239   7.697   7.239   2.338 -0.1302  0.2277  0.1513
27960W        W48240   3.882  10.100  16.172  0.3199 -0.0666  0.0876
27961W        W48241  13.387   3.765  16.394 -0.1406  0.0278 -0.1718
27962W        W48242   0.400  11.048  16.482  0.2627 -0.2054 -0.0962
27963W        W48243   7.003   0.031  15.485 -0.0508 -0.2266 -0.1520
27964W        W48244  11.864   1.088   4.522  0.0291  0.2561  0.0493
27965W        W48245   2.458   6.034  12.642 -0.0497 -0.2495 -0.1438
27966W        W48246   1.543   5.313   1.075 -0.0028  0.0569 -0.1028
27967W        W48247   6.966  16.868   0.511  0.1360 -0.0523 -0.1774
27968W        W48248   3.856   6.173   4.120  0.2203  0.1538 -0.0369
27969W        W48249  12.094  10.267  14.132  0.2910  0.1740 -0.1891
27970W        W48250   6.329   8.255  15.130  0.0466 -0.0110  0.0290
27971W        W48251   9.404   8.701  14.243 -0.0172  0.0553 -0.3421
27972W        W48252  12.323  14.686  13.157  0.0387 -0.0826  0.0821
27973W        W48253   5.781  15.271   3.786 -0.1650  0.3238  0.0121
27974W        W48254  17.006  12.200   2.180  0.0958  0.0913  0.0924
27975W        W48255   8.960   0.367   2.833  0.1499  0.2547  0.1006
27976W        W48256   0.926  14.795   1.274  0.0804 -0.2612 -0.0477
27977W        W48257  17.098  10.429   2.284  0.1513  0.0714 -0.2440
27978W        W48258  13.674   2.578  12.752  0.0848  0.2302  0.2997
27979W        W48259   6.958   3.482   1.781  0.1732 -0.2082  0.1343
27980W        W48260  13.185   7.644   1.125  0.0718 -0.1542  0.0910
27981W        W48261  14.732  17.676  15.309  0.1323 -0.0430  0.3448
27982W        W48262  11.306   1.247   3.053  0.4953  0.0074 -0.1255
27983W        W48263   9.240   6.409   2.464 -0.4279 -0.1482 -0.1897
27984W        W48264  14.494  10.431  15.889 -0.1827  0.0701  0.2163
27985W        W48265  13.169   2.031   0.478 -0.1775  0.0573  0.1348
27986W        W48266  12.553  11.213   0.251  0.0948 -0.0394  0.4161
27987W        W48267  15.103   7.055   3.213 -0.1526  0.2068 -0.1584
27988W        W48268   2.510  11.890   1.093  0.2385 -0.0163  0.4327
27989W        W48269   9.724   6.483   0.538  0.0237  0.1014 -0.1553
27990W        W48270  10.557   4.618  15.967  0.0704 -0.0799  0.0301
27991W        W48271  14.809   4.182   2.989  0.1392  0.0445 -0.1040
27992W        W48272  15.787   4.378  14.310 -0.0724 -0.4709 -0.2879
27993W        W48273   6.601   4.485  12.386 -0.0896  0.0759 -0.0891
27994W        W48274  13.294   6.506  15.938  0.0728 -0.1453 -0.1326
27995W        W48275   0.795  11.800   3.494 -0.0996  0.0746  0.3987
27996W        W48276  16.559   6.839  12.133 -0.0456 -0.2567 -0.0012
27997W        W48277   0.830  14.151   1.556 -0.2794 -0.1177 -0.0556
27998W        W48278   0.821  16.954   0.209 -0.3192 -0.0069 -0.0616
27999W        W48279   2.955  11.104   2.870  0.0524  0.1167  0.0685
28000W        W48280   0.611   2.935   2.349 -0.1654  0.1477 -0.2533
28001W        W48281   8.300  12.915   0.750 -0.0506 -0.3609 -0.2887
28002W        W48282   6.609   6.964  15.055 -0.1323  0.1576 -0.1122
28003W        W48283  12.623  12.973   3.836  0.1680  0.1474  0.0987
28004W        W48284  11.854   6.455  14.187  0.0252  0.0714 -0.0858
28005W        W48285  15.423  17.579   2.108 -0.0823  0.2009 -0.1136
28006W        W48286   6.984  13.994  12.982 -0.2478  0.0693 -0.0035
28007W        W48287   7.835  12.458   2.245  0.3284 -0.1201 -0.1447
28008W        W48288   0.529   9.279   1.691  0.0342 -0.3773 -0.0757
28009W        W48289   7.543   3.974  16.521 -0.3024 -0.2268  0.2627
28010W        W48290   4.687   3.909  13.647 -0.0264 -0.0452 -0.1478
28011W        W48291  12.984  10.752   2.751  0.2016  0.2612 -0.2424
28012W        W48292   0.055   1.241  15.096  0.3115  0.2321  0.0184
28013W        W48293  10.345   2.334  13.383  0.2754 -0.0270 -0.1000
28014W        W48294  17.400  14.690   1.309  0.2014  0.1518 -0.0452
28015W        W48295   0.273   4.381  12.284  0.0277  0.0635 -0.3224
28016W        W48296   8.342   3.863   0.233 -0.2726 -0.2724  0.3117
28017W        W48297  15.880   4.602   0.703  0.3406 -0.1261 -0.2359
28018W        W48298  10.807  12.905  13.029 -0.0706  0.1265 -0.1465
28019W        W48299  16.256   2.476   2.797  0.0003 -0.0126 -0.1099
28020W        W48300  12.521   1.032  13.278 -0.2592 -0.0657  0.2396
28021W        W48301   5.614   6.230   4.765 -0.1414  0.1023  0.0715
28022W        W48302   8.536   8.423   4.299  0.1391  0.1136 -0.0757
28023W        W48303   0.197  15.739  14.815 -0.1776 -0.0696  0.0133
28024W        W48304  11.143   6.051  14.598 -0.0108 -0.3090 -0.2888
28025W        W48305   2.081   7.505   0.297  0.0007 -0.0258  0.1457
28026W        W48306   5.213  10.531   2.810 -0.2629 -0.0104 -0.0078
28027W        W48307   9.485  17.295  13.792 -0.0456  0.0405  0.1818
28028W        W48308   0.300   4.099   3.734  0.0721 -0.2713 -0.2701
28029W        W48309   8.161  17.292  13.273  0.2520  0.1611  0.3595
28030W        W48310  15.769   6.663   0.084 -0.0272 -0.2191 -0.4173
28031W        W48311  12.308   8.095   3.468 -0.0436  0.1780  0.0021
28032W        W48312  16.171   2.574  13.475 -0.3706  0.1519 -0.0882
28033W        W48313   8.444   2.225  12.276 -0.2483  0.1321  0.0108
28034W        W48314  12.915   4.714   4.880  0.1495 -0.2351 -0.0684
28035W        W48315   0.054   0.302   2.604 -0.0137 -0.0959 -0.1163
28036W        W48316   3.553   6.793  16.582 -0.2471  0.0773 -0.1490
28037W        W48317   7.495  11.956  15.362  0.0735 -0.0454 -0.0344
28038W        W48318   7.197  11.689   4.794 -0.3044  0.0682 -0.0284
28039W        W48319  16.862   0.241   4.332  0.0442  0.0905 -0.0414
28040W        W48320  16.393  14.275   1.416 -0.0500 -0.1382 -0.0859
28041W        W48321   4.669   3.674  14.487  0.2032 -0.1995 -0.1249
28042W        W48322   1.905  11.413  14.164  0.0934  0.3465 -0.0048
28043W        W48323   9.882  11.700   1.511  0.1678  0.1639  0.0130
28044ION     NA48324   5.402  13.923   4.297 -0.1002  0.1934 -0.1622
28045ION     NA48325  10.840  17.337   5.891 -0.1435  0.2230  0.2700
28046ION     NA48326   9.123   6.907  15.020  0.0575  0.1033 -0.1985
28047ION     NA48327  17.340  11.359  11.265 -0.0640 -0.2144  0.0840
28048ION     NA48328  13.324  14.017   4.806 -0.0805  0.0483  0.1397
28049ION     NA48329  10.660  17.031  11.330  0.0412  0.0257 -0.0912
28050ION     NA48330   5.102  13.530   5.427 -0.0557  0.0490  0.0541
28051ION     NA48331  12.781   3.915  11.241 -0.1720  0.2517  0.2604
28052ION     NA48332  10.602  17.172  12.135 -0.2814 -0.0914 -0.3808
28053ION     NA48333   4.261   2.042  11.261  0.2074 -0.0012  0.0900
28054ION     NA48334   2.585   1.366   5.616  0.1223  0.3817 -0.0908
28055ION     NA48335  15.361  16.544  11.645 -0.1369  0.2529  0.2270
28056ION     NA48336  15.007   3.467   3.302 -0.0101  0.0798  0.2603
28057ION     NA48337  12.094   2.501   6.189 -0.0145 -0.0400  0.0414
28058ION     NA48338   6.640  16.923  12.740  0.1332 -0.1242 -0.0992
28059ION     NA48339  17.646   0.191  11.394  0.5086 -0.4879 -0.1954
28060ION     NA48340  14.233   7.816   1.935 -0.0510  0.1234 -0.0211
28061ION     NA48341  10.880   3.203   5.809 -0.0904  0.1139 -0.1406
28062ION     NA48342  13.636  14.872  14.676 -0.0883  0.0055  0.1594
28063ION     NA48343   8.624   2.772   2.350 -0.2592 -0.0797  0.0608
28064ION     NA48344  16.674  13.341  11.561 -0.0895  0.2760 -0.0988
28065ION     NA48345   7.294   9.873  11.229  0.1244 -0.1459  0.4149
28066ION     NA48346  12.720  14.299   2.802 -0.2641 -0.2066 -0.1420
28067ION     NA48347   6.847  10.683  11.063  0.0888  0.0315 -0.2393
28068ION     NA48348  14.508  13.501  11.404 -0.0452 -0.1307  0.0053
28069ION     NA48349   7.156  17.642  16.885  0.2433 -0.0210 -0.1371
28070ION     NA48350  16.331   8.771  13.018  0.3285  0.0178  0.1601
28071ION     NA48351   6.505  14.124   5.752  0.0112  0.0903  0.3569
28072ION     NA48352   7.877   0.208   5.707 -0.2330  0.2292 -0.0295
28073ION     NA48353   0.558  12.394  12.786  0.3721 -0.2723  0.0807
28074ION     NA48354   3.567  11.986  15.613 -0.2695  0.1684  0.1346
28075ION     NA48355   4.099  13.290  16.884  0.1404  0.2266 -0.1527
28076ION     NA48356  16.025  14.890  11.483  0.2331  0.1991 -0.4816
28077ION     NA48357  10.907  11.133  12.707 -0.0300 -0.1286 -0.1449
28078ION     NA48358   0.955  11.270   5.642 -0.0698  0.1093  0.0279
28079ION     NA48359   6.636   6.736  11.255 -0.0828 -0.2082  0.0628
28080ION     NA48360   3.333  10.415  13.281 -0.0068 -0.1688  0.3140
28081ION     NA48361  16.104  13.412   6.078  0.0854 -0.0521  0.1500
28082ION     NA48362  10.635  11.901  11.322  0.2502 -0.0204 -0.0365
28083ION     NA48363  11.127  16.581   5.830  0.2180  0.1383 -0.0089
28084ION     NA48364   4.254   6.369   5.552 -0.0670 -0.1506  0.2545
28085ION     NA48365   3.266  12.047  11.092 -0.0346 -0.1592 -0.0645
28086ION     NA48366  12.010  12.369  11.462 -0.1681  0.1089  0.1707
28087ION     NA48367  17.386   5.505   5.639  0.1224 -0.0352 -0.0241
28088ION     NA48368  13.560   1.328  11.458  0.0066  0.0242 -0.0173
28089ION     NA48369   6.073   7.925   5.551 -0.0449 -0.2588  0.1592
28090ION     NA48370  17.440   8.880  14.398 -0.1498 -0.0602  0.3937
28091ION     NA48371   2.224   5.402  11.214 -0.3378 -0.1756 -0.3360
28092ION     NA48372   7.695   2.774   5.461  0.0830  0.1485 -0.1146
28093ION     NA48373   3.594   6.121  11.331  0.2733 -0.1325  0.0389
28094ION     NA48374   8.838  15.852  11.420  0.0538 -0.1974  0.1543
28095ION     NA48375   1.412   7.950  11.316 -0.3618 -0.0990  0.0401
28096ION     NA48376  15.948   8.656   5.745  0.0079  0.0920  0.3173
28097ION     NA48377  12.481   8.351  11.817  0.2368  0.0690 -0.0602
28098ION     NA48378   8.171   4.801  10.928  0.0326 -0.0630  0.1810
28099ION     NA48379   7.601   2.333   4.737 -0.1275  0.0031  0.0394
28100ION     NA48380  15.802  11.941   6.286  0.0355  0.1886  0.0598
28101ION     NA48381   4.358  14.171   0.647  0.0908 -0.0650  0.4056
28102ION     NA48382  10.960   5.323  10.841 -0.0444  0.0522 -0.2807
28103ION     NA48383  10.350  10.172   2.543  0.2107 -0.1312 -0.2493
28104ION     NA48384   5.917  12.187  11.306  0.2914  0.0187 -0.0694
28105ION     NA48385  13.184  11.419  11.402  0.0730 -0.2040  0.2551
28106ION     NA48386  17.187  17.294   3.639 -0.1720 -0.0205  0.2134
28107ION     NA48387   2.824  11.712  11.224 -0.3114  0.0745  0.0669
28108ION     NA48388  16.453  10.441   5.807  0.5379  0.0666 -0.1112
28109ION     NA48389  12.728  14.528  11.518  0.1290 -0.2405 -0.2091
28110ION     NA48390  13.052   0.342  15.706 -0.0350  0.0391 -0.1597
28111ION     NA48391  10.735   2.282   6.000 -0.1311 -0.0485  0.1781
28112ION     NA48392  17.695   9.413  11.394  0.0575 -0.1585  0.0170
28113ION     NA48393   5.391  12.814  11.136  0.1593 -0.0685  0.0376
28114ION     NA48394  13.220  17.703   1.977  0.2066  0.1007 -0.1148
28115ION     NA48395   9.067   8.176  11.128  0.1531  0.1157  0.0607
28116ION     NA48396  17.200  13.376  14.188 -0.1995  0.4405  0.2182
28117ION     NA48397  11.499   6.084  10.845 -0.0063  0.1160  0.1288
28118ION     NA48398  11.794  11.415   5.840  0.1926 -0.0812  0.0218
28119ION     NA48399  17.323   2.958   5.763 -0.1589 -0.0020  0.2497
28120ION     NA48400   3.390   8.551  11.061 -0.0112 -0.3642  0.0526
28121ION     NA48401   1.443  11.984   5.624  0.1454 -0.0491 -0.1976
28122ION     NA48402  11.440  14.702  11.999 -0.0005  0.0084 -0.0134
28123ION     NA48403  15.774  11.995   4.590  0.4320  0.3257  0.1126
28124ION     NA48404  11.383   9.988   0.999  0.1463  0.0166 -0.0965
28125ION     NA48405  15.949   7.628   5.623 -0.0182  0.0501 -0.0183
28126ION     NA48406  15.515  14.200   0.970  0.3633 -0.2186  0.0192
28127ION     NA48407  10.427  12.536   5.708 -0.0676 -0.2425 -0.2942
28128ION     NA48408  10.636   8.592  11.310  0.0601 -0.2781 -0.0542
28129ION     NA48409  16.192   5.158   2.663  0.3354 -0.2260 -0.3830
28130ION     NA48410   5.200   3.064   2.164 -0.0164  0.1993 -0.0579
28131ION     NA48411  12.494   3.474   2.345 -0.3860  0.0231  0.2645
28132ION     NA48412  16.527   7.474  11.178  0.0040  0.0066  0.1686
28133ION     NA48413  10.315   3.239   5.620  0.0178  0.3511 -0.1877
28134ION     NA48414   7.079  13.728  15.588  0.1715 -0.3029  0.1052
28135ION     NA48415   3.086  15.053  13.397 -0.0595  0.0689 -0.1434
28136ION     NA48416   5.826   6.766  10.988 -0.3570 -0.0697 -0.1898
28137ION     NA48417  15.918  14.047  11.357  0.0348  0.3217  0.1353
28138ION     NA48418  16.834   3.877   5.969  0.0110 -0.0924  0.0443
28139ION     NA48419   9.168  10.459   3.887  0.1697 -0.3606  0.2412
28140ION     NA48420  13.468  17.027  11.500 -0.0776 -0.0190 -0.0179
28141ION     NA48421  16.231  11.612   6.190  0.1181 -0.1269 -0.0849
28142ION     NA48422  16.060  17.070  11.561  0.1065  0.3915  0.0641
28143ION     NA48423   9.278   7.737   5.426 -0.2296  0.0657 -0.2503
28144ION     NA48424  16.431  10.950  11.198 -0.0898  0.0265  0.0175
28145ION     NA48425   0.136  10.698  11.433  0.0249 -0.1356  0.0083
28146ION     NA48426   1.961   3.966   5.746  0.0487 -0.1118  0.0603
28147ION     NA48427  13.735   8.144   5.265  0.0375 -0.0293  0.0263
28148ION     NA48428   7.762  12.802  11.236  0.1383  0.3177 -0.0869
28149ION     NA48429   6.805  17.093  16.209  0.2601  0.1148 -0.2125
28150ION     NA48430   5.157  12.645   5.859 -0.1239  0.0548  0.1970
28151ION     NA48431   7.574   0.321  11.148 -0.1286  0.0420 -0.2215
28152ION     NA48432  11.211  14.627  11.526  0.1526  0.0504 -0.1922
28153ION     NA48433   4.524   5.567  11.075  0.0460 -0.0915 -0.2589
28154ION     NA48434  10.140   6.638  10.941 -0.2165  0.0918  0.1470
28155ION     NA48435   9.136  13.688   5.575  0.3451 -0.2046  0.2651
28156ION     NA48436   1.332  14.694  11.418  0.0827 -0.0783  0.2528
28157ION     NA48437  12.032  10.641   4.827 -0.1783  0.1877  0.1237
28158ION     NA48438  15.605  11.048  11.179 -0.0925 -0.1367  0.0878
28159ION     NA48439  11.771  17.214   5.664 -0.0249 -0.2302 -0.1752
28160ION     NA48440   3.800  17.281   5.647  0.0413 -0.0331  0.0211
28161ION     NA48441  12.329   8.564  11.404  0.0969 -0.0928 -0.0036
28162ION     NA48442   4.035   0.388   5.663 -0.1320  0.0741  0.0750
28163ION     NA48443  12.663  15.728  11.476 -0.2636 -0.2206 -0.0894
28164ION     NA48444   9.073  10.277  13.636 -0.1489 -0.0276  0.2310
28165ION     NA48445   4.111   3.881  11.161  0.1958 -0.1052  0.2334
28166ION     NA48446   4.945   5.895   5.599 -0.3267  0.0441  0.0773
28167ION     NA48447   8.945   4.428   5.437 -0.1901 -0.1468  0.0796
28168ION     NA48448   5.131   6.094  12.636 -0.0767 -0.0299  0.0513
28169ION     NA48449   5.683   8.116   3.812 -0.2553  0.1962 -0.3251
28170ION     NA48450   3.339   6.351   5.340  0.2145  0.2161 -0.0301
28171ION     NA48451   8.807   6.198  10.862 -0.0939  0.1062  0.2364
28172ION     NA48452  12.738   2.187  16.084  0.0064 -0.1849 -0.0104
28173ION     NA48453   5.898   2.524   5.800 -0.1639 -0.0630  0.2293
28174ION     NA48454  15.628  14.851  16.438  0.1296 -0.1076 -0.1544
28175ION     NA48455  16.868  11.182   5.770 -0.1470 -0.0771  0.1388
28176ION     NA48456   8.389  14.836  12.061  0.0367 -0.3621 -0.3030
28177ION     NA48457   9.092  12.352   5.662  0.0729  0.0896 -0.2057
28178ION     NA48458  10.516  11.052   5.662 -0.2593  0.3660 -0.3244
28179ION     NA48459  17.734  12.540   5.949  0.0306  0.4574 -0.2325
28180ION     NA48460   3.859  11.566   5.457 -0.2172  0.1800 -0.2155
28181ION     NA48461   2.346  16.977  11.340 -0.0344 -0.0553  0.0692
28182ION     NA48462   5.158   7.781  13.222  0.2332 -0.1142  0.2018
28183ION     NA48463   9.626   4.619  10.527  0.0674  0.0262 -0.0315
28184ION     NA48464   0.681   4.330  11.131 -0.1303  0.0266 -0.0309
28185ION     NA48465  14.024   8.082  11.384  0.0453 -0.3626  0.2017
28186ION     NA48466   0.558   9.959  11.171 -0.2034  0.0156 -0.3106
28187ION     NA48467   9.625   5.691   5.541  0.2180 -0.3340 -0.1555
28188ION     NA48468  13.101  10.025  11.723  0.0831 -0.3565 -0.0933
28189ION     NA48469   8.789  16.178   5.702 -0.0283 -0.2768 -0.1536
28190ION     NA48470   2.305  17.562   5.978  0.4648  0.1164  0.2536
28191ION     NA48471  16.330  12.279  11.018  0.0781  0.0837  0.1950
28192ION     NA48472  13.635  14.957   4.447  0.1870  0.0554 -0.1658
28193ION     NA48473   8.801   6.967  16.521 -0.2444  0.0225  0.3036
28194ION     NA48474   9.651   5.845   4.543 -0.1522 -0.2086 -0.0202
28195ION     NA48475   1.304  14.475   2.778  0.0796  0.0390 -0.2637
28196ION     NA48476  15.573  10.688  12.515 -0.0227  0.0647  0.0224
28197ION     NA48477   8.922   4.362  10.801 -0.1520 -0.0425 -0.1372
28198ION     NA48478   7.143   9.838   5.493  0.0612  0.2392  0.1773
28199ION     NA48479   2.156   8.486   2.097  0.1301 -0.0536 -0.1029
28200ION     NA48480  14.901   2.444  11.557  0.0245  0.1592  0.1405
28201ION     NA48481   9.096  13.053  14.484 -0.1214 -0.0766  0.0885
28202ION     NA48482   2.609   9.228  11.031  0.1750  0.0041 -0.5411
28203ION     NA48483  17.105  10.506  11.424 -0.2772  0.1940  0.3087
28204ION     NA48484   7.932   7.230  11.529  0.1204  0.0007 -0.0148
28205ION     NA48485  16.937   8.179  11.211  0.0509  0.0799  0.1914
28206ION     NA48486   0.098   1.050   5.747  0.1183  0.0524 -0.2633
28207ION     NA48487   2.884   2.302   5.795 -0.4698  0.0849  0.2189
28208ION     NA48488   8.852   1.627  11.642 -0.0421  0.3361 -0.1441
28209ION     NA48489  11.014   2.522   1.431 -0.0507 -0.0199 -0.0461
28210ION     NA48490  17.102   4.342   0.316  0.1474 -0.2581 -0.0785
28211ION     NA48491   4.591   6.152  11.359  0.1945 -0.1018 -0.1029
28212ION     NA48492   3.443   4.885  16.562 -0.1400 -0.1823  0.0589
28213ION     NA48493   3.464   2.779  13.155 -0.2575 -0.1872  0.3256
28214ION     NA48494   4.073  15.950   5.794 -0.0235  0.0004  0.3193
28215ION     NA48495   5.692  10.350   5.632  0.0509 -0.0739  0.0188
28216ION     NA48496  13.019   8.419   4.061 -0.1713  0.1415  0.0345
28217ION     NA48497   4.361  10.970  14.870 -0.0845 -0.3428  0.0592
28218ION     NA48498  16.895   9.571  11.213  0.0815 -0.0544  0.2076
28219ION     NA48499   1.934   5.879   3.271 -0.0041 -0.1029 -0.0311
28220ION     NA48500   4.964   3.707  11.135  0.0936  0.1001 -0.0763
28221ION     NA48501   4.507  15.520   5.774  0.1512 -0.1087  0.0352
28222ION     NA48502  11.398  14.224  14.484  0.3293  0.0095  0.0301
28223ION     NA48503   6.986  13.135   5.313  0.2112 -0.0996 -0.1756
28224ION     NA48504   6.022   7.252   1.550  0.1115 -0.1796 -0.0092
28225ION     NA48505  13.520  13.252   5.920 -0.1570  0.2440  0.1713
28226ION     NA48506  17.009  12.994   5.966 -0.4434 -0.2243  0.5426
28227ION     NA48507  14.565   9.658  11.462 -0.3322  0.1738 -0.1485
28228ION     NA48508  11.420  15.292  13.008 -0.2028 -0.2540 -0.0777
28229ION     NA48509   3.406  13.541  13.227  0.3140 -0.0491 -0.0869
28230ION     NA48510   9.029   9.494   5.674 -0.0358 -0.1200 -0.1798
28231ION     NA48511   0.589  10.500   5.814  0.2177  0.1292  0.0269
28232ION     NA48512   4.400   8.698  11.021  0.0689  0.1930 -0.0250
28233ION     NA48513   7.407   5.161  11.007  0.2522  0.3480 -0.0778
28234ION     NA48514   1.234   3.461  11.475  0.2658 -0.2757  0.0852
28235ION     NA48515  14.212  14.503   5.968 -0.1922  0.1220  0.1150
28236ION     NA48516   6.283  10.339   2.028  0.0640 -0.2944  0.1746
28237ION     NA48517   9.961   2.844  11.043 -0.1206 -0.1255  0.2086
28238ION     NA48518   1.291  12.943  11.297  0.3766  0.0141 -0.0449
28239ION     NA48519   5.716  16.638   4.158 -0.1567 -0.1363  0.0002
28240ION     NA48520  16.512   6.142  14.640  0.1102  0.0649  0.1141
28241ION     NA48521   1.964   2.820   4.192  0.1684 -0.0236  0.0326
28242ION     NA48522   8.676   1.454  12.443 -0.2465 -0.0503  0.0840
28243ION     NA48523   5.303   8.211   2.310  0.2226 -0.2150 -0.0156
28244ION     NA48524   2.191   6.215  13.152  0.0212  0.5751  0.0220
28245ION     NA48525  13.792  17.440  15.412  0.2374  0.1060 -0.1289
28246ION     NA48526   0.833   3.110  11.138  0.3255 -0.0573 -0.1093
28247ION     NA48527  11.962  14.227  11.544  0.0664  0.0447  0.0818
28248ION     NA48528   5.046  15.645   5.857  0.1380 -0.0359  0.2784
28249ION     NA48529   2.471   7.230   5.840 -0.1225 -0.1429  0.0296
28250ION     NA48530   9.601   1.595  11.193 -0.1114 -0.3394  0.2087
28251ION     NA48531  10.520   9.777   5.720  0.1977  0.2135 -0.0387
28252ION     NA48532   2.065  13.960  11.428  0.0904  0.0231 -0.0693
28253ION     NA48533  12.820   2.867   6.374 -0.0321 -0.3981  0.1360
28254ION     NA48534   1.993  13.721   0.263 -0.2839  0.0830 -0.0124
28255ION     NA48535   1.895  15.460  11.155 -0.2717 -0.1510 -0.1091
28256ION     NA48536   7.478  11.328  11.042 -0.1458  0.3188  0.1211
28257ION     NA48537   3.436   5.361  10.953  0.2739 -0.1275  0.0275
28258ION     NA48538   5.274   8.592  11.176  0.2155 -0.0235 -0.2789
28259ION     NA48539   6.568   1.865   5.459 -0.1104 -0.1438 -0.0953
28260ION     NA48540   0.811   5.848  15.237  0.1957  0.1581 -0.0746
28261ION     NA48541   8.866  15.553   0.490 -0.1435 -0.2246 -0.1271
28262ION     NA48542   2.636  15.507   5.840 -0.2076  0.0843  0.1183
28263ION     NA48543   2.422  12.189   5.836  0.1125  0.2521  0.0167
28264ION     NA48544   8.959  12.187  16.495 -0.3519 -0.0646 -0.3758
28265ION     NA48545   7.195  17.345   5.766 -0.0786  0.1672  0.2786
28266ION     NA48546  14.191  14.222   1.493  0.2913 -0.0153  0.1095
28267ION     NA48547  15.290  13.512   6.112  0.0747 -0.1149  0.0040
28268ION     NA48548  16.554  11.443  11.122  0.2064  0.1232  0.1829
28269ION     NA48549   7.682   9.804   5.271  0.1548  0.0644  0.1471
28270ION     NA48550   7.628   2.113   2.637  0.0269  0.0040  0.4502
28271ION     NA48551   9.410  14.544   5.831 -0.2775 -0.0429  0.1433
28272ION     NA48552  13.496  16.117   5.842  0.0637  0.0212 -0.1723
28273ION     NA48553  15.384   9.846   0.612 -0.2631 -0.0088 -0.1333
28274ION     NA48554   5.237   9.515  14.896 -0.0867  0.0072 -0.1560
28275ION     NA48555   1.594   5.974  11.035  0.1119 -0.0710  0.2661
28276ION     NA48556   5.417   3.405  13.834  0.5557  0.0355  0.1321
28277ION     NA48557   7.826  10.151   3.552 -0.0053  0.1645  0.1575
28278ION     NA48558  13.958  13.213   2.941 -0.0319 -0.1546  0.0999
28279ION     NA48559   0.538   7.614  11.091 -0.0479 -0.1554 -0.0855
28280ION     NA48560   4.941   6.994  11.215  0.3771  0.1102 -0.1735
28281ION     NA48561   6.578   0.228   2.761 -0.0428 -0.0409 -0.1974
28282ION     NA48562  16.020   2.712   0.170  0.0865  0.0896 -0.0384
28283ION     NA48563  13.626  14.435  11.275 -0.0970 -0.1621  0.1075
28284ION     NA48564   0.788   1.666   5.700  0.1063  0.1922  0.2311
28285ION     NA48565   6.264  13.376   0.708  0.4188 -0.0074  0.0677
28286ION     NA48566   0.409   8.910   5.625  0.0309 -0.4819  0.0126
28287ION     NA48567   2.944  11.464  11.746 -0.1675  0.2059 -0.0619
28288ION     NA48568  16.551   3.305   5.632  0.2027  0.0084  0.3159
28289ION     NA48569   8.127   5.720  11.071  0.0447 -0.2776  0.0252
28290ION     NA48570   3.016  17.445   2.107  0.3389  0.1172  0.0529
28291ION     NA48571   6.755   8.352   5.360 -0.3828 -0.0634  0.0190
28292ION     NA48572   8.863   5.410   5.545  0.1197  0.3000 -0.1815
28293ION     NA48573  10.198   0.123   5.750  0.2078 -0.0226 -0.0585
28294ION     NA48574  15.225   8.932   5.788 -0.0233  0.0378  0.0154
28295ION     NA48575  11.657   2.600  11.234 -0.0768  0.0554 -0.4014
28296ION     NA48576  13.716  16.816   2.957 -0.1844 -0.1605  0.0733
28297ION     NA48577  14.786  15.608   5.253 -0.1164  0.0604  0.0888
28298ION     NA48578  14.352   5.703   5.742  0.1325 -0.1379  0.1818
28299ION     NA48579  10.509  13.371  11.295  0.0819  0.2374 -0.0971
28300ION     NA48580   7.217  15.414  11.626  0.0345 -0.2428  0.0415
28301ION     NA48581   2.972  12.692  13.068  0.0239 -0.0371 -0.0964
28302ION     NA48582   4.404   0.641   2.174 -0.1767  0.1144  0.0141
28303ION     NA48583   1.653  16.807  12.262  0.1162 -0.1977  0.0269
28304ION     NA48584  15.388   0.933   5.514 -0.1031 -0.1365  0.0503
28305ION     NA48585   9.309  17.706  11.104 -0.1292  0.0757  0.0980
28306ION     NA48586  10.386   3.294  13.738  0.0215  0.0050  0.0048
28307ION     NA48587  16.622   2.600  11.726 -0.1683  0.1431 -0.2368
28308ION     NA48588  11.053  17.401   2.469  0.0118 -0.1483 -0.0130
28309ION     NA48589   6.759   3.660   5.529 -0.1294 -0.0894 -0.1608
28310ION     NA48590   3.601   4.156   5.093 -0.1256  0.1276  0.1289
28311ION     NA48591  15.724  11.538  11.189 -0.0805  0.1318 -0.1818
28312ION     NA48592   3.254   9.831  11.067  0.0371  0.0991 -0.0045
28313ION     NA48593  10.524   8.065   5.579  0.2421 -0.3457 -0.2143
28314ION     NA48594  13.076  16.822   1.074 -0.1235 -0.0890  0.0710
28315ION     NA48595   8.463   6.680   5.569 -0.0402 -0.1521  0.1683
28316ION     NA48596  12.088  13.709  11.481  0.1010 -0.3284 -0.1755
28317ION     NA48597  17.400   2.171  11.324  0.4488 -0.1264 -0.4003
28318ION     NA48598  16.050   2.506   5.684  0.2189 -0.2415 -0.3070
28319ION     NA48599   8.770  15.234   5.046  0.0145 -0.1925  0.2175
28320ION     NA48600   0.509  12.714   2.031  0.1326 -0.2005 -0.2695
28321ION     NA48601  11.828   9.251  11.171  0.0898  0.1222  0.1132
28322ION     NA48602   4.711  16.593  14.742 -0.1580  0.0880  0.0695
28323ION     NA48603   9.514  15.391  11.978  0.0673 -0.1159 -0.2421
28324ION     NA48604   0.474  14.468   5.814 -0.0568 -0.1904 -0.2180
28325ION     NA48605  13.333   9.537   5.849  0.0264 -0.0315 -0.3255
28326ION     NA48606   5.349  12.098   5.536  0.4962 -0.0772  0.0373
28327ION     NA48607   7.012   5.784  11.085  0.0634  0.1970  0.2263
28328ION     NA48608   9.749  13.131   5.596 -0.3682 -0.2875  0.1322
28329ION     NA48609  15.695   1.181  11.339  0.1408 -0.0585  0.1825
28330ION     NA48610   5.250   2.776   5.691 -0.0728 -0.1706  0.0358
28331ION     NA48611   0.921   7.600   5.331 -0.0655  0.0686 -0.0496
28332ION     NA48612   8.799   1.135   5.789 -0.1190  0.0553 -0.2033
28333ION     NA48613   6.592  12.830  11.242  0.2486 -0.0110 -0.0714
28334ION     NA48614   6.469   7.268  16.505 -0.1122 -0.0044  0.0657
28335ION     NA48615   5.121   5.259   3.802  0.0929 -0.1047 -0.0088
28336ION     NA48616   0.497   1.807  11.414 -0.3160 -0.0184 -0.1317
28337ION     NA48617   5.718  15.780  11.324 -0.2302 -0.0044  0.0189
28338ION     NA48618  12.027   5.996   6.034 -0.0669 -0.0323 -0.3184
28339ION     NA48619   2.813   3.162  11.223  0.2323 -0.0330  0.1788
28340ION     NA48620  12.311  10.506   5.734 -0.0659  0.1397 -0.0961
28341ION     NA48621  16.895   7.699   5.639  0.0858 -0.0283  0.1920
28342ION     NA48622   5.065   4.996   5.701  0.0031 -0.0907  0.2686
28343ION     NA48623  14.594   9.628  14.444  0.1990 -0.2546 -0.0848
28344ION     NA48624  10.284  15.656  12.392  0.0552  0.0599  0.1054
28345ION     NA48625   6.045  13.076   5.599  0.2561  0.1368 -0.0002
28346ION     NA48626  13.603   3.128  12.531  0.3408 -0.2629  0.0662
28347ION     NA48627   9.339  14.263  12.443  0.1173 -0.0811 -0.1322
28348ION     NA48628  13.517  10.569  13.112  0.2656 -0.1434  0.0399
28349ION     NA48629   8.397   1.888   0.462  0.0423 -0.0218  0.1106
28350ION     NA48630   3.861  15.910  15.963 -0.0918  0.2562 -0.2587
28351ION     NA48631   9.017   1.423  16.101  0.0019 -0.0323  0.0227
28352ION     NA48632  12.989   1.894   6.135  0.0319  0.0730  0.1793
28353ION     NA48633   0.280  11.776   0.682 -0.1326  0.2963  0.3140
28354ION     NA48634   0.548  11.486  11.463 -0.1300 -0.0924  0.2867
28355ION     NA48635   5.140  14.145  14.002 -0.0227 -0.3205 -0.1799
28356ION     NA48636   1.566   1.117   5.622 -0.2922  0.0496 -0.2168
28357ION     NA48637   8.067   4.868   3.545 -0.2971  0.0073 -0.4945
28358ION     NA48638   8.641  12.973  12.640 -0.1015 -0.2046  0.4056
28359ION     NA48639   0.509   3.182   5.756  0.2812  0.1174 -0.2274
28360ION     NA48640   1.738   7.339   5.583 -0.1561 -0.0515  0.0407
28361ION     NA48641   7.600   1.983   5.689  0.0024 -0.1109  0.1980
28362ION     NA48642  16.662  17.558  11.272  0.0946  0.0162 -0.3423
28363ION     NA48643   1.578   5.283   4.450  0.0832  0.3384  0.0563
28364ION     NA48644   1.885  12.814   5.780 -0.0021 -0.3426  0.3882
28365ION     NA48645  12.307   9.484  11.253 -0.2746 -0.1308  0.2160
28366ION     NA48646   7.418  10.269   2.247 -0.0027  0.1083  0.1654
28367ION     NA48647   0.650   0.940  11.393 -0.1853  0.3736 -0.2777
28368ION     NA48648   2.021  14.987   5.737 -0.1340 -0.1430 -0.0280
28369ION     NA48649  11.680  14.572   5.715  0.4307 -0.1147  0.0312
28370ION     NA48650   9.828   9.010   5.739 -0.1973  0.1866  0.3124
28371ION     NA48651   1.875  12.639  11.232  0.2901 -0.1169 -0.0248
28372ION     NA48652   5.831  11.814   2.904  0.0119  0.1917  0.1165
28373ION     NA48653   2.759  13.765   2.308 -0.2391  0.0594 -0.1691
28374ION     NA48654   8.563  15.180  11.274 -0.1787 -0.2652 -0.1569
28375ION     NA48655   3.447  14.413  11.332 -0.2110 -0.3661  0.2862
28376ION     NA48656   6.190  14.997   5.729 -0.0220  0.3197 -0.1064
28377ION     NA48657   4.720   2.866   0.116  0.1917 -0.0774 -0.2285
28378ION     NA48658  13.502   0.189  11.935 -0.1494  0.1470  0.2170
28379ION     NA48659   1.949   4.688  11.612 -0.0623 -0.0625  0.2136
28380ION     NA48660  15.234   8.046   5.873 -0.2058 -0.0773 -0.1130
28381ION     NA48661   3.428   9.310   5.534 -0.0459 -0.1041  0.0261
28382ION     NA48662   6.666  16.040  11.173  0.1753  0.4520 -0.0652
28383ION     NA48663   8.744  13.350   5.494 -0.1168 -0.1952  0.0681
28384ION     NA48664  10.628   4.655  13.603 -0.0353  0.1073  0.3164
28385ION     NA48665   3.280  13.257   5.858  0.1341 -0.1334 -0.1501
28386ION     NA48666  15.350  12.315  11.314 -0.1436 -0.1122 -0.3064
28387ION     NA48667  11.993   6.878   5.999  0.0638 -0.1192 -0.0339
28388ION     NA48668  16.944  16.463  16.744  0.0120  0.2589  0.0701
28389ION     NA48669  13.993  11.069  11.273 -0.0451  0.1568  0.0241
28390ION     NA48670   5.938   5.862   5.642 -0.0508  0.0302  0.0813
28391ION     NA48671  10.254  16.525   5.981  0.1994 -0.0083  0.1489
28392ION     NA48672   5.456   0.018  16.109 -0.4088 -0.1025  0.5524
28393ION     NA48673   4.799   2.719  11.246  0.1874  0.2724  0.1509
28394ION     NA48674  13.209   0.914   3.821  0.0818 -0.0408  0.1727
28395ION     NA48675   8.930  10.291   5.462 -0.0695  0.2160 -0.2114
28396ION     NA48676   5.876   3.495   1.351 -0.0433 -0.2290  0.2383
28397ION     NA48677  13.983   4.926   5.829 -0.0338 -0.0303  0.1827
28398ION     NA48678   2.441   4.944   3.574 -0.0794  0.0397  0.0895
28399ION     NA48679  12.063  15.145  11.631 -0.0017 -0.1621  0.1245
28400ION     NA48680   0.365  10.658   0.458  0.0317  0.1554 -0.2524
28401ION     NA48681   9.400  16.389  11.446  0.0534 -0.0735  0.3072
28402ION     NA48682   1.107   6.698  11.179 -0.1367 -0.0178  0.1947
28403ION     NA48683  17.143   4.026  11.290  0.0534  0.0016 -0.0270
28404ION     NA48684   7.385   8.998  10.984 -0.0768  0.1603  0.1058
28405ION     NA48685   7.019   5.198   5.293  0.0196 -0.0633 -0.1260
28406ION     NA48686  13.689   6.512   3.075 -0.0701 -0.3399  0.1601
28407ION     NA48687  15.640  14.240   5.913 -0.1875 -0.1910 -0.2449
28408ION     NA48688   9.072   0.864  11.287 -0.0991  0.1936  0.0978
28409ION     NA48689   6.575   5.148  11.561 -0.0490  0.5311  0.2743
28410ION     NA48690  11.552   9.079   5.850 -0.0837  0.1170 -0.3235
28411ION     NA48691   2.777   4.608   5.634  0.3744 -0.0210  0.0298
28412ION     NA48692   3.523   6.882   5.807 -0.0021 -0.2370 -0.1118
28413ION     NA48693  13.533   2.108  16.372  0.1352  0.1785  0.3505
28414ION     NA48694   9.900  11.785   5.665  0.0740  0.1434 -0.0081
28415ION     NA48695  17.242  13.516  15.154  0.3170 -0.1856  0.4195
28416ION     NA48696   3.703  14.443   5.670 -0.0138  0.2240  0.0510
28417ION     NA48697   8.034   9.720  10.939 -0.0049  0.4376  0.0555
28418ION     NA48698   0.879  15.190  14.767 -0.0598 -0.1404  0.3479
28419ION     NA48699  14.195   7.286  15.438  0.1207  0.1093 -0.0020
28420ION     NA48700   4.120  14.805  13.520  0.3747 -0.1477  0.3237
28421ION     NA48701   3.267  12.156   5.880  0.0821 -0.0075  0.2039
28422ION     NA48702  10.676   7.935   1.888 -0.4226 -0.1983  0.0202
28423ION     NA48703   4.923  10.666   5.573  0.1924  0.2446 -0.0068
28424ION     NA48704  15.679   6.364  15.677  0.0025  0.1843 -0.0363
28425ION     NA48705   9.324  10.493   1.321  0.0349  0.0147  0.1402
28426ION     NA48706   1.839  10.400   5.594 -0.4390 -0.1860 -0.1097
28427ION     NA48707   2.990  16.602  12.300  0.1047  0.1016 -0.0701
28428ION     NA48708  10.379  13.136   5.085 -0.2822 -0.1078  0.3083
28429ION     NA48709   5.670  16.251   5.768 -0.1161 -0.3295 -0.1183
28430ION     NA48710   8.039   3.304  14.457 -0.0955  0.1353 -0.2535
28431ION     NA48711   5.157   4.145   5.418 -0.0841  0.1134 -0.1244
28432ION     NA48712   6.787   7.499   5.524 -0.0646 -0.2532 -0.1912
28433ION     NA48713  12.796  10.865  11.384 -0.0072 -0.0339  0.1929
28434ION     NA48714  16.684   5.876  11.386 -0.1299  0.2875  0.0369
28435ION     NA48715   7.176  16.062  15.381 -0.2556  0.2554  0.2133
28436ION     NA48716  16.742  14.290  11.528  0.0539  0.1128 -0.0074
28437ION     NA48717   1.365  14.535   5.717  0.0793 -0.1391  0.1153
28438ION     NA48718   8.558  17.419  11.392 -0.5289 -0.2249 -0.0396
28439ION     NA48719   8.160  10.649   5.585  0.0083  0.1144 -0.2327
28440ION     NA48720   1.364   5.810   5.293 -0.1165  0.2034 -0.0398
28441ION     NA48721   5.914  10.217   0.550 -0.3659  0.0142 -0.3425
28442ION     NA48722   1.211   4.906   1.150 -0.0905 -0.0719  0.2021
28443ION     NA48723  14.649   8.737  11.461 -0.1433 -0.1933 -0.1093
28444ION     NA48724  10.528   6.652  15.521 -0.2565 -0.0872 -0.0825
28445ION     NA48725   9.101   2.928   5.812 -0.4028  0.1232 -0.1400
28446ION     NA48726  13.250   2.880   6.125 -0.2171 -0.0238 -0.1446
28447ION     NA48727   7.890  11.347   5.342  0.2827 -0.1519 -0.1556
28448ION     NA48728  15.636   6.255  11.599  0.1854  0.0461  0.6103
28449ION     NA48729   4.538  10.352   3.928 -0.3802  0.0211  0.2852
28450ION     NA48730  11.112   0.632  11.311 -0.2302 -0.1509  0.0469
28451ION     NA48731  10.608   4.923   5.792  0.0211  0.1952 -0.1116
28452ION     NA48732  16.644   8.655   4.421 -0.4607 -0.0121  0.1080
28453ION     NA48733   1.705  14.175   0.943 -0.1256  0.2120 -0.3161
28454ION     NA48734   6.454   5.352  12.357 -0.0284  0.2351 -0.0119
28455ION     NA48735   8.556  16.983   5.783  0.0316  0.0839  0.0856
28456ION     NA48736   7.503   7.011   5.674 -0.1473 -0.4479  0.3080
28457ION     NA48737   0.094  17.453  14.471  0.1452  0.0423  0.2783
28458ION     NA48738  16.506   0.044   5.983  0.1697 -0.1394  0.0738
28459ION     NA48739   2.880  12.379  15.023  0.2052  0.0822 -0.0108
28460ION     NA48740   1.522   3.169   5.713  0.0733 -0.4417 -0.3415
28461ION     NA48741  16.118  16.149  11.511  0.4806  0.1134 -0.0760
28462ION     NA48742   6.450   0.497   5.472  0.1534 -0.3253  0.0119
28463ION     NA48743   7.901   4.248  11.085 -0.3103  0.0850  0.1314
28464ION     NA48744   3.763   7.958  13.142 -0.1566  0.2531 -0.0439
28465ION     NA48745   0.143  15.485  11.278 -0.0571 -0.2903  0.0677
28466ION     NA48746  10.980   2.758   3.987  0.0421 -0.0254  0.2932
28467ION     NA48747   3.170   5.328   5.527  0.0504  0.1579  0.1097
28468ION     NA48748  16.028   9.309  11.199 -0.1907  0.2999  0.1872
28469ION     NA48749  16.875  11.939   0.062  0.0520 -0.2187  0.1977
28470ION     NA48750   6.042   8.810   5.499 -0.1211  0.2040  0.0697
28471ION     NA48751  12.042  15.358   5.863  0.3744 -0.1250  0.0205
28472ION     NA48752   1.320   5.154  11.270  0.3015  0.1717 -0.0101
28473ION     NA48753  11.423   8.537  11.337 -0.2248 -0.0683  0.0270
28474ION     NA48754  13.568   7.675   2.937 -0.3944 -0.0869  0.2166
28475ION     NA48755   0.654  15.327   2.066 -0.2201  0.0905 -0.0101
28476ION     NA48756   0.802   3.579   5.839 -0.2714  0.0555 -0.0505
28477ION     NA48757   2.377  15.091  16.865 -0.0677  0.0729 -0.0338
28478ION     NA48758   1.267   4.305  11.098  0.0149  0.0196 -0.4894
28479ION     NA48759  14.046   2.998  11.493 -0.0409 -0.2685 -0.0637
28480ION     NA48760  17.034   4.008  16.346  0.0759  0.3736  0.2157
28481ION     NA48761   4.380  10.829   2.612 -0.1005  0.2498 -0.1399
28482ION     NA48762  14.930   9.736   5.940 -0.0743 -0.1525 -0.1095
28483ION     NA48763   4.354   0.986  11.483  0.1296  0.0156 -0.1220
28484ION     NA48764   0.474   5.187  11.217 -0.4148 -0.0008 -0.5172
28485ION     NA48765  16.845  16.671  11.433  0.1757 -0.1327  0.1073
28486ION     NA48766  12.603  15.149  12.502  0.0618 -0.0089  0.1965
28487ION     NA48767  11.817  11.550   3.415  0.0768 -0.0201 -0.2289
28488ION     NA48768   0.581   1.307   3.285 -0.2170  0.0427 -0.1257
28489ION     NA48769  11.208   7.679  11.348  0.1090 -0.1885  0.1465
28490ION     NA48770   8.463   2.256  11.365 -0.1095  0.0619 -0.0556
28491ION     NA48771  10.356   5.337   4.063  0.2600 -0.1067 -0.0077
28492ION     NA48772   4.185   4.727  14.451 -0.1293 -0.0898 -0.0017
28493ION     NA48773  15.154   2.959   0.533 -0.1027  0.1790 -0.0958
28494ION     NA48774  17.123   3.193  11.383 -0.0669  0.1358 -0.0450
28495ION     NA48775   8.276   7.465   5.258  0.0392 -0.0392  0.3693
28496ION     NA48776   7.062  16.848   5.823  0.0591  0.1173  0.1440
28497ION     NA48777   1.859  10.779  11.073 -0.0326  0.3540  0.0281
28498ION     NA48778  11.787  13.500   5.799  0.0652  0.1195 -0.1138
28499ION     NA48779   2.191  10.916   0.632 -0.2413  0.2442  0.4373
28500ION     NA48780   8.490   9.501  13.530  0.0366 -0.0436  0.2456
28501ION     NA48781  15.127  16.118  11.617  0.1588 -0.0230 -0.3143
28502ION     NA48782  17.430   4.562   5.718  0.2084  0.2179 -0.0818
28503ION     NA48783  17.641   0.900   0.168 -0.1445  0.1025  0.1664
28504ION     NA48784   1.024  13.769  11.343 -0.0393  0.0800 -0.1960
28505ION     NA48785  15.254   6.530   3.148 -0.1999  0.2222  0.0614
28506ION     NA48786  11.289  10.567   5.557  0.1910  0.0607 -0.1454
28507ION     NA48787  11.903   6.973  11.090  0.0406 -0.1140  0.1562
28508ION     NA48788  12.741   6.646   3.113  0.1611 -0.0200 -0.0987
28509ION     NA48789   0.152   7.161   5.586 -0.1928  0.2084  0.2938
28510ION     NA48790   3.215   5.154   1.435  0.0429  0.4308  0.0319
28511ION     NA48791   0.103   4.316  11.200 -0.2360  0.2228  0.1410
28512ION     NA48792   6.225  12.058   5.504  0.0932  0.1846  0.0812
28513ION     NA48793  11.346  13.163  11.216 -0.4262 -0.0458 -0.1242
28514ION     NA48794  10.079   7.259   5.494 -0.1563 -0.1844 -0.4156
28515ION     NA48795   4.853  10.089   5.304 -0.2037 -0.0738 -0.1477
28516ION     NA48796   6.032   1.784  11.382  0.1985 -0.0419  0.0186
28517ION     NA48797  16.710   4.789   1.015  0.0318 -0.0246 -0.1564
28518ION     NA48798   9.155   8.992  11.590  0.1849  0.0748  0.1651
28519ION     NA48799  11.014   6.488  16.743  0.0810 -0.2063  0.1788
28520ION     NA48800   9.671  13.096  11.141  0.3332  0.0070 -0.0971
28521ION     NA48801  16.839  12.143   5.945  0.0537 -0.0397 -0.0725
28522ION     NA48802   0.139  16.813   5.742 -0.1266 -0.1513 -0.0475
28523ION     NA48803  13.631   9.512  11.189  0.0224 -0.1085 -0.0921
28524ION     NA48804  15.286  14.829   2.931 -0.0123 -0.2450 -0.0582
28525ION     NA48805  11.753   3.250   5.922 -0.1617  0.1300  0.1781
28526ION     NA48806  14.185   6.113  11.176  0.1743 -0.0996  0.1417
28527ION     NA48807   9.420  16.765   5.876  0.0186  0.0239 -0.0913
28528ION     NA48808  13.022  13.752  11.513  0.2388 -0.2635 -0.1379
28529ION     NA48809   3.354   2.143   0.717 -0.1996 -0.3187 -0.0356
28530ION     NA48810  13.421   4.803   6.269 -0.1461 -0.1829 -0.1607
28531ION     NA48811  12.105   1.906  11.189 -0.1970 -0.0584 -0.0192
28532ION     NA48812  15.363   4.044  11.303 -0.0385  0.1182  0.1134
28533ION     NA48813   2.762   3.888   5.851  0.2370  0.0580  0.2657
28534ION     NA48814  11.469  10.747  14.476 -0.0692 -0.2589  0.3034
28535ION     NA48815  11.216   6.274   1.592  0.0595  0.0155 -0.1888
28536ION     NA48816   6.923  11.482   5.699  0.1789 -0.0370 -0.2236
28537ION     NA48817   5.546   0.375  11.627 -0.1024  0.0112  0.2426
28538ION     NA48818  17.682   0.072   5.618 -0.0345  0.0063  0.1682
28539ION     NA48819   2.800  12.722  15.954 -0.2187  0.1016 -0.0836
28540ION     NA48820  11.865   9.878   5.700 -0.1778  0.0933 -0.0305
28541ION     NA48821   0.656   6.464   5.623 -0.0773 -0.1900 -0.0239
28542ION     NA48822  17.451  13.013  11.353  0.1718  0.1665  0.0627
28543ION     NA48823  10.786   4.081   5.880  0.2838 -0.0714  0.4053
28544ION     NA48824  10.242  15.970  11.527  0.1963  0.1602  0.2046
28545ION     NA48825  10.222  14.868   5.817 -0.0949 -0.1366  0.3271
28546ION     NA48826   5.035  13.639  11.611 -0.0438  0.0222 -0.1313
28547ION     NA48827   0.967  10.756  11.142 -0.0152 -0.4457 -0.0142
28548ION     NA48828  12.855   5.449   5.936 -0.0579  0.1621  0.2095
28549ION     NA48829  14.809   7.687  11.442  0.1379 -0.0968 -0.0902
28550ION     NA48830  17.454   6.993  14.760  0.0461  0.3834 -0.2221
28551ION     NA48831   0.226   2.274   5.710  0.1312 -0.0052 -0.1981
28552ION     NA48832   9.392   9.792  11.411  0.3093 -0.1438 -0.0705
28553ION     NA48833  16.281  14.636  14.530  0.1143  0.0843 -0.0388
28554ION     NA48834   6.874   2.581  13.276 -0.2876  0.1069 -0.1760
28555ION     NA48835  14.128   9.173   5.834 -0.0050 -0.2191 -0.1260
28556ION     NA48836   2.865  14.683   5.717 -0.0188  0.0382  0.2849
28557ION     NA48837   1.500   8.121   2.808 -0.1513  0.0271  0.2620
28558ION     NA48838  11.924   2.729   0.016  0.3267  0.0541 -0.0609
28559ION     NA48839   2.810  15.377  11.227  0.5382 -0.1214 -0.1120
28560ION     NA48840   3.448   5.828  11.696  0.1840  0.0892 -0.0392
28561ION     NA48841   9.104   9.629  15.306  0.2054 -0.1706  0.3087
28562ION     NA48842   0.342   7.945   5.830 -0.1125 -0.2363 -0.3969
28563ION     NA48843   7.932   4.610  11.853  0.0637 -0.1634 -0.1904
28564ION     NA48844   8.420  12.525   5.376 -0.1940 -0.1518 -0.0844
28565ION     NA48845  13.518   3.309   3.291 -0.0912  0.2326  0.1575
28566ION     NA48846  15.131  11.358   6.201 -0.1961  0.0859  0.1759
28567ION     NA48847   2.988  13.710   4.002  0.2174  0.1765  0.1861
28568ION     NA48848  10.440  15.781   5.969  0.0514  0.2644 -0.2299
28569ION     NA48849   1.877  13.458  11.453  0.2691  0.1506  0.0023
28570ION     NA48850   9.526   0.689   5.932  0.3347  0.1492  0.2912
28571ION     NA48851  14.866   1.718   5.861 -0.2669 -0.1152  0.1079
28572ION     NA48852  15.774   2.551  11.210  0.2148 -0.3446 -0.0319
28573ION     NA48853  15.962   4.097   5.844 -0.1882  0.2043 -0.1220
28574ION     NA48854   6.617   2.763   5.608 -0.0407  0.0608 -0.1120
28575ION     NA48855   8.432   3.300   5.445 -0.1932  0.2627 -0.2655
28576ION     NA48856  11.143  16.363  11.485  0.1170 -0.4138 -0.3418
28577ION     NA48857  14.574   3.606  11.405  0.0956  0.1956 -0.0603
28578ION     NA48858   1.301   1.462  11.340  0.1254 -0.1157  0.1538
28579ION     NA48859   0.913   4.924   5.650 -0.2373 -0.0751 -0.3373
28580ION     NA48860   1.465  17.613   5.904 -0.1533 -0.1300 -0.0438
28581ION     NA48861   7.705   2.344  11.108  0.0233  0.2483 -0.0987
28582ION     NA48862  12.268   0.543   6.057  0.0600 -0.0572  0.0292
28583ION     NA48863   2.677   8.966   5.697 -0.1880  0.0103 -0.2404
28584ION     NA48864  15.730  15.364   5.769 -0.0846 -0.1237  0.0887
28585ION     NA48865   8.155  15.535  16.297 -0.0470  0.0769  0.0408
28586ION     NA48866  11.071   6.891  11.015  0.0245  0.1139  0.1937
28587ION     NA48867   2.881  15.823  16.226  0.3478 -0.1378  0.1661
28588ION     NA48868  17.129  15.341   5.850 -0.1069 -0.0526  0.0204
28589ION     NA48869  14.060  12.714  11.630 -0.0203  0.0871  0.3639
28590ION     NA48870  16.215  15.925   5.796  0.0254 -0.2604  0.1524
28591ION     NA48871   1.680   9.029   5.727  0.1136  0.1257 -0.2214
28592ION     NA48872   1.496  11.535  11.131  0.2900 -0.1963 -0.4751
28593ION     NA48873  10.786   8.776  14.216  0.0896 -0.1063  0.0637
28594ION     NA48874   3.240  16.828  11.379 -0.2553  0.0606  0.0659
28595ION     NA48875  10.237  16.681  11.313 -0.0543 -0.0821  0.1113
28596ION     NA48876  11.121  11.936   5.651  0.1443  0.2437 -0.3945
28597ION     NA48877   4.577   7.658   2.079 -0.0111  0.2949 -0.0568
28598ION     NA48878   7.341  17.387   3.154 -0.2214 -0.1020 -0.0775
28599ION     NA48879   7.606  15.457  12.600 -0.1146  0.1575  0.2459
28600ION     NA48880  11.868  10.842  11.437 -0.1482  0.1867  0.1976
28601ION     NA48881  10.736   7.744  11.277 -0.4012  0.1297  0.1727
28602ION     NA48882  15.197   0.160   5.795 -0.1009 -0.2183 -0.2471
28603ION     NA48883   7.254  15.960   5.957 -0.0833 -0.0478  0.4055
28604ION     NA48884   6.409   4.237  14.602 -0.4324  0.2785  0.1022
28605ION     NA48885   4.773  10.103  11.122 -0.0027 -0.1218 -0.0955
28606ION     NA48886   2.294   1.442  11.325 -0.1929 -0.0764 -0.0687
28607ION     NA48887   3.988   6.838  11.265 -0.0062  0.1450 -0.0204
28608ION     NA48888  16.911  10.817   1.491  0.0252 -0.1476 -0.2045
28609ION     NA48889   8.215   2.780   5.507  0.2845 -0.1388  0.2121
28610ION     NA48890  13.746   8.818  11.459 -0.2272 -0.1951  0.2047
28611ION     NA48891  17.104   0.778   5.806  0.1545  0.1324 -0.0036
28612ION     NA48892  11.462  15.642   5.769 -0.0299 -0.0327 -0.0702
28613ION     NA48893  11.873   4.091   6.050  0.1396  0.0379 -0.0795
28614ION     NA48894   0.999  14.124   0.064  0.3224 -0.1172 -0.0483
28615ION     NA48895  13.215   4.932  12.148  0.0617 -0.0424  0.1854
28616ION     NA48896  14.971   8.387  14.582 -0.3090  0.1105  0.2834
28617ION     NA48897  15.491   8.084  11.600  0.0671  0.1868  0.0915
28618ION     NA48898   5.825   9.200  11.135 -0.0722 -0.1163 -0.0699
28619ION     NA48899  17.048  11.412   5.280  0.0752  0.2288  0.3126
28620ION     NA48900   5.009  12.471  11.546 -0.0468  0.0796  0.4105
28621ION     NA48901   8.884  10.501  11.126  0.0659 -0.0158 -0.2621
28622ION     NA48902  15.665   3.154   5.725  0.0417  0.0350  0.0098
28623ION     NA48903  14.181   4.867  13.483  0.1696 -0.0277 -0.0054
28624ION     NA48904   1.580  13.037   1.091 -0.2876  0.6363 -0.4126
28625ION     NA48905   0.116  13.412   5.881 -0.0454 -0.2253 -0.1173
28626ION     NA48906   2.723  12.970   5.766 -0.1269  0.1178 -0.0707
28627ION     NA48907   9.057   8.645   5.505  0.1037 -0.0515  0.1731
28628ION     NA48908   1.063  15.371  11.209 -0.0622 -0.3299  0.1923
28629ION     NA48909  11.002   9.388  11.462  0.0782  0.0676 -0.1968
28630ION     NA48910  14.848  11.620  11.223 -0.4540  0.2835 -0.0063
28631ION     NA48911  14.464  17.666   5.802  0.2450  0.0472  0.0976
28632ION     NA48912   8.587   3.740   5.775  0.0203  0.1254  0.1053
28633ION     NA48913  13.014   7.922   5.601 -0.2840  0.1307 -0.0045
28634ION     NA48914   4.064   4.830   1.159 -0.0818  0.0549  0.2019
28635ION     NA48915   4.584   0.130  11.277  0.0633 -0.1690  0.0467
28636ION     NA48916   5.762   3.563  11.141  0.2054  0.0823  0.1756
28637ION     NA48917  14.677  10.524  11.504  0.0722 -0.2758 -0.1290
28638ION     NA48918   3.762   2.653   5.709 -0.0235 -0.2077  0.0035
28639ION     NA48919  13.289  12.552   1.344  0.0368  0.3301  0.0480
28640ION     NA48920   3.758   7.722  11.197  0.1518 -0.1271  0.0048
28641ION     NA48921   6.517   0.319  11.219 -0.2178  0.0025  0.1710
28642ION     NA48922   1.361   0.005  13.046 -0.0768 -0.0064  0.0553
28643ION     NA48923   9.844  10.646  11.234  0.1712  0.0041  0.0728
28644ION     NA48924  11.388   4.512  10.967  0.2431 -0.1258 -0.1692
28645ION     NA48925   1.930   7.971  11.212 -0.0591 -0.0638  0.3476
28646ION     NA48926   8.212  12.114   5.700 -0.0109  0.3217  0.1909
28647ION     NA48927  15.104  15.269  11.414 -0.1124 -0.0213 -0.2518
28648ION     NA48928  15.979   2.100  11.331  0.0623  0.0251  0.2277
28649ION     NA48929  14.125   4.108   5.959  0.0145  0.1432  0.0707
28650ION     NA48930  14.529  12.762  14.354 -0.0123 -0.1365 -0.0307
28651ION     NA48931   5.262   2.912  11.090  0.2016  0.1172 -0.1800
28652ION     NA48932   2.245  15.853   5.785  0.3581  0.0803 -0.0976
28653ION     NA48933   3.108  15.252  11.735 -0.0316 -0.0204  0.3066
28654ION     NA48934  12.523  14.647   5.588 -0.1539  0.0228 -0.2311
28655ION     NA48935  14.780   3.549  16.660  0.2234 -0.0056  0.0451
28656ION     NA48936   3.570  12.957  11.258 -0.2907  0.1116  0.1988
28657ION     NA48937   3.735  17.477  11.186 -0.0123  0.0168  0.3586
28658ION     NA48938  15.381   4.560  11.309  0.1300 -0.1467  0.3883
28659ION     NA48939  14.402  12.386  11.465 -0.3023  0.2977  0.1221
28660ION     NA48940  12.787  13.681  16.412  0.3346 -0.0570  0.1013
28661ION     NA48941  13.577  15.270  11.442 -0.0398  0.3262 -0.2256
28662ION     NA48942   4.522   4.948  15.286  0.0500 -0.0464  0.0395
28663ION     NA48943   3.175  16.530   4.543  0.0341  0.0404 -0.1119
28664ION     NA48944   6.313  10.541  11.114  0.0802 -0.2607  0.2662
28665ION     NA48945   2.513  13.683   5.578 -0.1273 -0.0062  0.2839
28666ION     NA48946  17.731  13.833   5.677 -0.0877 -0.0715 -0.2519
28667ION     NA48947  12.058  10.196  16.629 -0.2748 -0.3626 -0.3059
28668ION     NA48948   2.996   9.520  15.752 -0.0712  0.0105 -0.3015
28669ION     NA48949   0.343   6.024  11.493 -0.0595 -0.0029  0.2140
28670ION     NA48950   3.128   6.695  15.280  0.0224 -0.0545 -0.0053
28671ION     NA48951  10.016  12.366  11.301  0.1692 -0.1930  0.0238
28672ION     NA48952   7.911   0.100   4.681  0.0497 -0.0264  0.1857
28673ION     NA48953   5.835  15.344   5.557 -0.3850 -0.1537 -0.2355
28674ION     NA48954   1.544  13.538   5.352  0.1866  0.0979  0.0476
28675ION     NA48955   8.865  11.233  12.732 -0.1942  0.0198  0.1149
28676ION     NA48956   7.900   5.414   5.544 -0.0152  0.0015  0.2068
28677ION     NA48957   7.157   5.741   5.242  0.0869  0.2149 -0.0021
28678ION     NA48958   1.946   6.536   5.548  0.1306  0.0303  0.2934
28679ION     NA48959  15.528  10.440   5.931 -0.3678  0.0117 -0.0650
28680ION     NA48960   0.105   4.895  12.362 -0.0910 -0.1668 -0.1484
28681ION     NA48961  15.978   6.642   5.587 -0.1660  0.4272  0.0067
28682ION     NA48962  13.973  13.640   6.014 -0.1807 -0.2931  0.1309
28683ION     NA48963   6.655   9.121  11.139  0.0435 -0.0091  0.3554
28684ION     NA48964   0.766  16.132   5.775 -0.0107  0.0684 -0.0821
28685ION     NA48965   6.546  10.593   5.602 -0.0890  0.0231  0.0154
28686ION     NA48966  16.888   6.069  16.042 -0.1744  0.0278 -0.0292
28687ION     NA48967   0.092  11.317   5.864  0.1316  0.0459  0.0641
28688ION     NA48968   9.823   7.502  11.080 -0.3899 -0.1148 -0.2665
28689ION     NA48969   6.968   8.195  11.244 -0.1190  0.1594 -0.0965
28690ION     NA48970   7.987  13.024   5.634 -0.1087  0.4400 -0.0561
28691ION     NA48971   1.166   9.160  11.468 -0.1840 -0.0369 -0.2860
28692ION     NA48972   8.261  14.180  11.132  0.1591  0.0323 -0.0495
28693ION     NA48973   1.497   9.980  11.068 -0.1049 -0.0373 -0.3275
28694ION     NA48974   0.246  17.247  11.618  0.0618 -0.1854 -0.1520
28695ION     NA48975  13.989  16.308   5.909 -0.0642 -0.0543 -0.3891
28696ION     NA48976  11.224   9.210   4.966  0.0375  0.2476 -0.2170
28697ION     NA48977  13.634   5.515  11.049  0.1010  0.6130  0.0226
28698ION     NA48978   7.673   6.437  11.236 -0.1449 -0.2652 -0.3588
28699ION     NA48979  15.222   7.083   3.736  0.0240  0.0792  0.1967
28700ION     NA48980   7.057   5.155   3.327  0.2434 -0.2351  0.0444
28701ION     NA48981   5.158  14.827   5.856  0.2084  0.1838  0.1552
28702ION     NA48982   6.251   8.549  11.154  0.0677 -0.0993 -0.1574
28703ION     NA48983  16.200  14.537   5.861 -0.0853 -0.2409  0.0911
28704ION     NA48984   8.434   2.284   5.660 -0.1735 -0.1707 -0.0222
28705ION     NA48985   1.629   7.712  14.129  0.2131  0.0195 -0.0429
28706ION     NA48986   6.933   1.421   5.477  0.1507  0.0400 -0.0548
28707ION     NA48987  13.207  12.321  11.608  0.0338  0.1274 -0.0826
28708ION     NA48988  13.962  10.130   5.741 -0.0897 -0.3355  0.1427
28709ION     NA48989   5.165   7.587   5.390 -0.0675 -0.1844 -0.1240
28710ION     NA48990  16.543   8.428  11.348  0.3382 -0.1040 -0.0449
28711ION     NA48991  11.290   3.495  11.063 -0.2249  0.0985 -0.0180
28712ION     NA48992   5.391   9.404   5.700 -0.1201  0.2096 -0.0373
28713ION     NA48993  14.685   2.495  15.681 -0.1117 -0.1478 -0.0964
28714ION     NA48994   0.954  13.684   5.752  0.0222 -0.0586  0.1523
28715ION     NA48995   9.672   3.341  12.660 -0.2721  0.2316  0.0513
28716ION     NA48996  17.511   3.684   5.721  0.0212 -0.1808  0.0249
28717ION     NA48997  14.466   5.573   1.596 -0.1871  0.1615  0.1678
28718ION     NA48998   2.846  10.159   4.935 -0.1527 -0.1259  0.1641
28719ION     NA48999   2.482   0.508  11.473 -0.0706 -0.0849 -0.0943
28720ION     NA49000   2.522   1.720   0.947 -0.1795  0.0445  0.0964
28721ION     NA49001   9.695  17.268  11.238 -0.0551  0.1251 -0.2826
28722ION     NA49002  13.534  12.686   0.542  0.1670 -0.0024 -0.0179
28723ION     NA49003   6.280  14.754   1.407 -0.1038 -0.3895  0.0261
28724ION     NA49004   5.204   8.555   5.693  0.1168 -0.1076  0.0744
28725ION     NA49005   7.689   3.566   5.584  0.1914 -0.0459 -0.1503
28726ION     NA49006   4.669  12.792   5.628 -0.0990 -0.0127 -0.3693
28727ION     NA49007  15.186   6.227   5.676  0.1567  0.3467 -0.2304
28728ION     NA49008   2.692   0.772  15.682  0.0257 -0.0641  0.2540
28729ION     NA49009   8.363  11.237  11.076 -0.0957  0.0992  0.1533
28730ION     NA49010   4.716   2.782   5.622  0.1626  0.0618  0.2868
28731ION     NA49011   4.321  11.585   1.159  0.1289  0.0521  0.0056
28732ION     NA49012   7.088  16.601   5.287  0.1960 -0.1072 -0.1864
28733ION     NA49013   3.665   8.752   5.686  0.2051 -0.0418  0.2090
28734ION     NA49014   6.225   5.089   2.088 -0.2054  0.0721 -0.0864
28735ION     NA49015   3.072   2.351  11.166  0.2274  0.0581  0.3060
28736ION     NA49016  14.657  15.071   5.425  0.0698  0.0854  0.0742
28737ION     NA49017   8.390   0.847  11.284 -0.1152  0.0520 -0.0475
28738ION     NA49018   4.530  12.049   5.747 -0.0154 -0.2556  0.0094
28739ION     NA49019  15.125  11.805  15.097 -0.1104 -0.1160  0.3190
28740ION     NA49020   4.676   1.354  11.111  0.0220 -0.0491 -0.1387
28741ION     NA49021  13.622   0.166  11.438  0.1912 -0.0905 -0.0433
28742ION     NA49022  16.271   4.437   1.793 -0.2899 -0.1523  0.2106
28743ION     NA49023  16.672  12.501  13.815 -0.1611  0.0529  0.0970
28744ION     NA49024   9.573  14.454  11.266  0.0186  0.0317 -0.0052
28745ION     NA49025  12.353   6.472  11.025  0.4159 -0.0062 -0.0659
28746ION     NA49026   2.045   4.632  11.086  0.1351  0.0895  0.0862
28747ION     NA49027   1.360   9.710   3.947  0.2761 -0.1217 -0.1658
28748ION     NA49028  17.494   9.260   0.625  0.0127  0.0889  0.3243
28749ION     NA49029  17.674  16.336  11.395  0.0613 -0.0433 -0.3423
28750ION     NA49030   4.082  15.694  11.237 -0.2312  0.4067 -0.2543
28751ION     NA49031  12.011   1.777   5.102 -0.1414  0.3592  0.1849
28752ION     NA49032  13.255   4.622  11.160  0.0708 -0.0837 -0.0436
28753ION     NA49033   2.654   6.028   5.852  0.1176  0.1499  0.0903
28754ION     NA49034   4.447  16.854   5.820  0.0872 -0.0179 -0.0992
28755ION     NA49035   5.585   1.827   5.681 -0.0124 -0.1798 -0.0468
28756ION     NA49036   6.222   0.813  11.190  0.3167  0.0628 -0.3813
28757ION     NA49037   8.153  12.568  16.528  0.3670  0.0497  0.3134
28758ION     NA49038   2.304   7.584   2.404 -0.1633  0.0363  0.0369
28759ION     NA49039  12.013  12.730   5.754 -0.1185 -0.0815  0.3293
28760ION     NA49040   5.897   3.435   5.546 -0.0150 -0.2002  0.1919
28761ION     NA49041  16.958  13.883   6.097 -0.0926  0.4109 -0.0508
28762ION     NA49042   8.510   9.528  11.191 -0.1310 -0.0001  0.0594
28763ION     NA49043   0.524  12.925  11.240 -0.1006 -0.0512 -0.0655
28764ION     NA49044  17.396  10.650   5.754  0.1501 -0.2369  0.2659
28765ION     NA49045   2.239   5.703   5.374  0.0743  0.1643 -0.3767
28766ION     NA49046  14.358   1.736  11.607  0.1916  0.0558 -0.4045
28767ION     NA49047  14.327   7.763   5.701 -0.1054  0.2602  0.4672
28768ION     NA49048   4.484  16.973  11.306  0.1769  0.0872  0.2388
28769ION     NA49049   4.361  11.616   5.547  0.0835 -0.0247  0.1063
28770ION     NA49050  11.347  15.538  11.348  0.1948  0.0744  0.3164
28771ION     NA49051   5.543   0.191   5.677  0.2170  0.0520 -0.2606
28772ION     NA49052   7.890   1.568  11.416 -0.4192 -0.0445 -0.3596
28773ION     NA49053  11.088  17.500  11.309 -0.1886  0.0902  0.0552
28774ION     NA49054   8.624   8.913  16.589 -0.2771 -0.3651 -0.0244
28775ION     NA49055   9.191   7.172   5.440  0.2398  0.0681 -0.0845
28776ION     NA49056  13.172   6.996  11.453 -0.0541  0.1734  0.0819
28777ION     NA49057  17.644   1.114  11.313  0.3240  0.1640 -0.1896
28778ION     NA49058  15.846   0.335  11.443 -0.1236  0.1711 -0.0739
28779ION     NA49059   4.609  11.804  11.114 -0.4322  0.0124 -0.1874
28780ION     NA49060   6.910   3.987  11.175 -0.1134 -0.2589 -0.2160
28781ION     NA49061   3.199   5.973   2.872 -0.3123 -0.0163 -0.0315
28782ION     NA49062  11.468   8.219   5.651 -0.0187  0.1005  0.1671
28783ION     NA49063   8.202  14.033   4.455  0.0287  0.3464 -0.0716
28784ION     NA49064   2.859  14.421  11.545  0.1102  0.2142  0.2148
28785ION     NA49065  16.742   3.827   2.643 -0.1069 -0.0229 -0.2511
28786ION     NA49066  14.835   3.356   5.794  0.1462  0.0139  0.1986
28787ION     NA49067   3.226   3.806  11.185 -0.1259  0.0509 -0.0665
28788ION     NA49068   9.432   6.779  11.337  0.2377  0.1313 -0.0578
28789ION     NA49069  16.928   9.736   5.780 -0.1665 -0.1516  0.1541
28790ION     NA49070  10.584  10.069  11.223 -0.0449  0.0051 -0.2434
28791ION     NA49071   6.454  15.256  11.473 -0.1119  0.1152  0.1730
28792ION     NA49072  13.178  10.428   5.885  0.0754  0.3391 -0.2589
28793ION     NA49073   3.797  17.578  11.759 -0.2403  0.3105 -0.3239
28794ION     NA49074   8.582   3.601  10.987  0.0361  0.0240 -0.3521
28795ION     NA49075   2.148  14.822  11.334 -0.0039 -0.1822 -0.2086
28796ION     NA49076   2.111  14.096   5.637 -0.0674  0.2159  0.0211
28797ION     NA49077  14.470   2.503   5.837 -0.1394 -0.3633 -0.1037
28798ION     NA49078  15.170   9.005  11.526 -0.0268  0.0113 -0.0764
28799ION     NA49079   5.290  14.599  11.337 -0.2337 -0.0785  0.1503
28800ION     NA49080   6.907   1.201   5.025 -0.0806 -0.1539 -0.0898
28801ION     NA49081   9.948   1.529   5.791  0.0847 -0.1073  0.0168
28802ION     NA49082  17.284   9.001   5.689 -0.1796  0.1306  0.2196
28803ION     NA49083  17.274  14.417   5.355 -0.1851  0.0798  0.0881
28804ION     NA49084   5.558  14.676  16.462  0.1324 -0.0030 -0.0072
28805ION     NA49085   7.864  14.639  11.501  0.0661 -0.3869  0.2783
28806ION     NA49086  10.366   0.912   5.975  0.1143 -0.0723 -0.2537
28807ION     NA49087   9.471  15.436   5.771 -0.1018  0.1291  0.3551
28808ION     NA49088  11.502  13.666  15.222  0.3002  0.1013  0.0589
28809ION     NA49089   5.348  17.160   5.718 -0.1507 -0.0434  0.0627
28810ION     NA49090  11.217  11.715  11.992 -0.0481 -0.0154  0.0227
28811ION     NA49091   0.982   2.544   5.462 -0.2237 -0.0586 -0.0981
28812ION     NA49092   1.327   2.325  11.364 -0.1062  0.1449  0.2982
28813ION     NA49093   3.548   1.123   2.511 -0.0285  0.2588 -0.0986
28814ION     NA49094   9.738  15.914   4.796 -0.1290  0.1138 -0.1740
28815ION     NA49095   2.541  15.819  11.424  0.1544 -0.0903  0.1572
28816ION     NA49096   4.443   8.095   5.549 -0.0597  0.3330  0.0529
28817ION     NA49097   5.004   6.705   5.685  0.1966 -0.3676 -0.0731
28818ION     NA49098   7.650  10.529  11.222  0.0069 -0.1954  0.0268
28819ION     NA49099  15.367  16.330   5.760 -0.0665  0.0820  0.0270
28820ION     NA49100   1.187   2.079   5.627 -0.0982 -0.1929  0.0234
28821ION     NA49101  15.067  13.953  13.679 -0.2976 -0.3075  0.2608
28822ION     NA49102   1.387  16.918   5.839  0.1845  0.0750 -0.1453
28823ION     NA49103  10.700   0.697  12.675 -0.0214  0.0140  0.2921
28824ION     NA49104   8.370   0.041  16.034 -0.1252  0.1581  0.1619
28825ION     NA49105   8.141  14.088   5.438  0.1238 -0.1464 -0.2602
28826ION     NA49106   7.515   7.892   5.599 -0.0222  0.2114 -0.1728
28827ION     NA49107   0.897  12.153  11.520  0.4099  0.1259 -0.1095
28828ION     NA49108   8.081  10.245  16.058 -0.0837 -0.0450  0.2439
28829ION     NA49109  11.379   1.182   5.865 -0.0226 -0.0780  0.0287
28830ION     NA49110   1.744  13.310   5.780  0.0643 -0.0142 -0.1880
28831ION     NA49111   5.319  11.337   3.461  0.0095 -0.0379 -0.0236
28832ION     NA49112  13.016   2.182  11.316 -0.0264 -0.3051  0.1305
28833ION     NA49113   8.855   1.860  14.271  0.0911 -0.1204 -0.0635
28834ION     NA49114  10.180  14.136  16.049 -0.1762 -0.4372 -0.0032
28835ION     NA49115   5.399  16.390  12.941 -0.0702  0.0843  0.1345
28836ION     NA49116   7.228   8.748  11.953 -0.0556 -0.0115  0.1750
28837ION     NA49117   3.059   6.543  13.566 -0.0626  0.3052  0.0984
28838ION     NA49118  15.795   4.864   5.777  0.2513 -0.2357  0.0561
28839ION     NA49119   9.724   4.832   5.422 -0.0578 -0.0871  0.0921
28840ION     NA49120  13.672  13.885  14.215  0.0600 -0.1884  0.1622
28841ION     NA49121   0.954   6.690   0.196 -0.1519  0.0951 -0.2752
28842ION     NA49122  16.425   3.476  11.198 -0.1077 -0.1040 -0.0198
28843ION     NA49123   1.997  14.788   0.287  0.0024 -0.1055  0.2303
28844ION     NA49124  11.818   8.017   1.023  0.1652 -0.1090  0.0333
28845ION     NA49125  13.146   8.743   5.803 -0.0605 -0.3047  0.0904
28846ION     NA49126   1.519  15.239   1.484  0.0877 -0.1536 -0.1668
28847ION     NA49127   7.933   6.266   5.487 -0.1091 -0.1599  0.1145
28848ION     NA49128   0.260  15.294   0.049 -0.1385 -0.0193 -0.1725
28849ION     NA49129   6.647  13.717  11.273  0.0623 -0.3270 -0.1674
28850ION     NA49130  14.709  13.971   6.024  0.2196 -0.1573 -0.0057
28851ION     NA49131  17.186   6.685  11.292 -0.2372  0.2160  0.0462
28852ION     NA49132  12.069   3.648  11.582  0.0097  0.0689  0.0721
28853ION     NA49133  16.498   1.802   5.643  0.2185  0.0600  0.0217
28854ION     NA49134  13.326   7.802  11.508 -0.1989 -0.0414  0.0579
28855ION     NA49135  16.021   4.117  12.503 -0.1083 -0.2172  0.1138
28856ION     NA49136  11.186   6.288   5.873  0.1157 -0.0505 -0.0222
28857ION     NA49137  12.232  11.486  12.122  0.0829 -0.0975  0.2648
28858ION     NA49138   1.604   0.863  11.319  0.0955  0.1388 -0.2263
28859ION     NA49139   6.822   2.095  11.252 -0.2982  0.1299  0.1567
28860ION     NA49140   4.534   7.764  16.584  0.1303  0.1360  0.0835
28861ION     NA49141   7.993  11.484   4.014 -0.0385 -0.1808  0.1154
28862ION     NA49142  17.529   6.338   5.476 -0.0056  0.0200 -0.3473
28863ION     NA49143  12.518  15.781   5.863 -0.0983 -0.1147  0.2880
28864ION     NA49144   4.412   4.527   5.746  0.0698  0.0791  0.1039
28865ION     NA49145  11.374   2.475   5.795 -0.2449  0.3725  0.1618
28866ION     NA49146  10.294   0.058  11.129  0.1113 -0.1983  0.0653
28867ION     NA49147  15.002   2.642   5.794  0.0679  0.0756 -0.1221
28868ION     NA49148   6.599   2.593  11.156  0.2740  0.1698  0.0906
28869ION     NA49149   5.192  17.735  13.280 -0.0942 -0.0453  0.0467
28870ION     NA49150  12.978   3.497  16.387  0.2617  0.0295 -0.0622
28871ION     NA49151   7.345  12.431   5.700 -0.0980  0.1325  0.2096
28872ION     NA49152   7.937  16.487   5.788  0.0084  0.0387 -0.0176
28873ION     NA49153  15.087  17.541   4.738 -0.0381 -0.0175 -0.1521
28874ION     NA49154   0.277  15.300   5.869 -0.2185  0.2061 -0.0541
28875ION     NA49155   5.821   4.122  11.103 -0.2511  0.4324 -0.0824
28876ION     NA49156  14.689   3.719   1.085 -0.3946 -0.0604 -0.1105
28877ION     NA49157   5.431   5.782  11.056 -0.0755  0.3320  0.1199
28878ION     NA49158   0.663   0.233  11.248  0.2403  0.2597  0.2208
28879ION     NA49159  11.903   6.917  14.011  0.0267 -0.2102 -0.0501
28880ION     NA49160   4.108   8.921   4.392  0.1404  0.0657 -0.2871
28881ION     NA49161   9.095   2.899  11.191 -0.1350 -0.1989 -0.0249
28882ION     NA49162   5.024  12.175  14.933  0.2225 -0.2743  0.0935
28883ION     NA49163   7.920  15.651  11.251  0.1024 -0.1966 -0.0205
28884ION     NA49164  16.319  13.853  12.660  0.2246 -0.1057  0.0135
28885ION     NA49165  13.588   4.501   0.733  0.0196  0.3832 -0.0739
28886ION     NA49166  16.648  12.678  10.936  0.1092  0.0622  0.2560
28887ION     NA49167  17.674   2.566  11.233 -0.1288 -0.2835  0.1809
28888ION     NA49168  12.429  16.731  16.716  0.0066 -0.0893  0.2455
28889ION     NA49169  16.624   8.964  14.694 -0.1105  0.1346  0.2090
28890ION     NA49170   2.726   7.885  11.385  0.0700 -0.2045 -0.0420
28891ION     NA49171   8.968  14.114   1.378 -0.0912  0.3722  0.0815
28892ION     NA49172  16.548  17.106   1.533 -0.0198  0.2754 -0.0943
28893ION     NA49173   6.948   8.345   3.133 -0.1893 -0.0881 -0.0217
28894ION     NA49174  12.939  15.462   5.738 -0.0247  0.0469  0.0265
28895ION     NA49175   1.006   8.247  11.400 -0.4019  0.0589  0.2697
28896ION     NA49176   2.159   0.008  11.483 -0.0762  0.1471  0.0204
28897ION     NA49177  14.858   6.790  11.246  0.1234 -0.1306 -0.2030
28898ION     NA49178   1.362  16.911  14.920  0.0130  0.0781 -0.0393
28899ION     NA49179   6.430   4.571   4.309  0.0969 -0.1756 -0.0666
28900ION     NA49180  17.398   1.651   5.424 -0.0483 -0.0874 -0.2334
28901ION     NA49181   4.884   0.423   5.664  0.2874 -0.0735  0.1321
28902ION     NA49182   6.347  17.485   5.836  0.0790  0.1597  0.1114
28903ION     NA49183  10.485   3.594  11.070 -0.0549  0.2079 -0.0631
28904ION     NA49184  15.649  15.546  15.860  0.0840  0.3700 -0.1586
28905ION     NA49185   7.191  10.657   5.397  0.0307 -0.0504 -0.0346
28906ION     NA49186   2.819  12.542  14.008 -0.1664  0.0841  0.1615
28907ION     NA49187  16.984   4.956  11.160  0.0070 -0.3325  0.1646
28908ION     NA49188   4.155   9.604  11.043  0.1147 -0.0633  0.0914
28909ION     NA49189   9.259  17.610   5.954  0.2596  0.0708  0.2388
28910ION     NA49190   8.297   4.289   4.707 -0.1658  0.1417  0.1167
28911ION     NA49191  13.164  10.078  11.240 -0.0199  0.1917  0.1129
28912ION     NA49192   5.090   1.834   5.635  0.0848  0.1167  0.1122
28913ION     NA49193  13.435  16.160  11.463  0.0830  0.1433  0.0175
28914ION     NA49194   0.535  17.683   4.024  0.0181 -0.0878 -0.1715
28915ION     NA49195  10.083  15.141  11.342 -0.6671  0.0527  0.1783
28916ION     NA49196   3.916  10.351  11.021 -0.2766  0.4819  0.1124
28917ION     NA49197   6.477  15.448  12.313 -0.1692 -0.2535 -0.2106
28918ION     NA49198   4.293  13.436   3.213  0.0776 -0.0721  0.0391
28919ION     NA49199   3.644   3.064  11.204 -0.1230 -0.1794 -0.5780
28920ION     NA49200   2.739  16.634  11.434 -0.1500  0.1383  0.1920
28921ION     NA49201   0.527  17.112   5.721 -0.1915  0.1046  0.3724
28922ION     NA49202   6.225   6.007   2.184  0.1138 -0.2146  0.2049
28923ION     NA49203   2.013  11.329   5.684 -0.0877  0.2112 -0.0007
28924ION     NA49204  16.253   1.731  11.554 -0.2147 -0.0040 -0.1982
28925ION     NA49205   0.966   9.633   5.613  0.0535 -0.0102  0.0991
28926ION     NA49206  15.033  16.986  11.534 -0.0439  0.0964 -0.2298
28927ION     NA49207   4.477  17.473   5.666 -0.1022 -0.2889  0.0255
28928ION     NA49208  15.456  12.684   5.963 -0.1269 -0.2057 -0.4045
28929ION     NA49209   1.947  16.782   5.715 -0.1669 -0.0759 -0.1520
28930ION     NA49210  16.259  12.653   6.301 -0.1731  0.0040  0.1536
28931ION     NA49211   2.352  10.029  11.165  0.2049  0.2441  0.0295
28932ION     NA49212  14.059  10.121   0.935 -0.0459  0.0163 -0.0116
28933ION     NA49213   4.003  10.691   5.383 -0.2333  0.1278 -0.0442
28934ION     NA49214   3.259  16.085   5.771  0.0745 -0.1412  0.0880
28935ION     NA49215   5.697   0.975   5.642  0.1174 -0.2362  0.1989
28936ION     NA49216  15.730   5.836  11.339  0.1900  0.0894 -0.0353
28937ION     NA49217  16.995   2.471   5.657 -0.1759  0.4890 -0.1075
28938ION     NA49218   1.279   6.151  11.926  0.1001  0.0005  0.2163
28939ION     NA49219  17.480   5.644  11.056  0.1990 -0.1103 -0.0912
28940ION     NA49220  15.254   7.208   5.646  0.1147  0.1630 -0.1020
28941ION     NA49221   8.386  16.604  11.499  0.0612 -0.1009 -0.3443
28942ION     NA49222   9.211  12.151  11.213  0.4378  0.0062  0.3632
28943ION     NA49223  12.757  17.650   1.158  0.0384 -0.0634 -0.1431
28944ION     NA49224   6.049  14.952  11.363 -0.1003  0.0141  0.0819
28945ION     NA49225  11.136   5.017   3.651  0.1713 -0.1836 -0.2208
28946ION     NA49226   4.225   0.910  13.248  0.3762 -0.1439 -0.2270
28947ION     NA49227   3.253   1.931   5.698  0.0284 -0.0403 -0.0408
28948ION     NA49228   5.178  11.129  11.235 -0.1196 -0.0274  0.0101
28949ION     NA49229   2.669   8.353   0.456 -0.4029  0.0151 -0.0564
28950ION     NA49230   5.481  10.760  11.157 -0.4652  0.2138 -0.1269
28951ION     NA49231  14.382  14.858  11.372 -0.0918  0.1971 -0.1717
28952ION     NA49232  12.371   7.839  11.389  0.0858 -0.0654  0.0690
28953ION     NA49233   3.000  10.717  11.144 -0.0978  0.0619  0.0191
28954ION     NA49234   3.264  10.606  16.211 -0.0585 -0.0369  0.1456
28955ION     NA49235   0.231   2.639  12.019  0.0463  0.2449 -0.0807
28956ION     NA49236   5.783   7.080  15.042 -0.2612  0.1075  0.0927
28957ION     NA49237  15.336  13.242  11.281  0.2212  0.1501  0.0108
28958ION     NA49238   2.121   3.403   2.149 -0.1796  0.1412  0.2494
28959ION     NA49239   2.254   7.249  11.326  0.0464  0.2391  0.1963
28960ION     NA49240   0.707   5.902  11.076 -0.1836  0.0642 -0.2124
28961ION     NA49241  13.806   2.355  11.825 -0.3295 -0.3334 -0.0142
28962ION     NA49242   2.590  14.854   4.839 -0.2321 -0.0344 -0.1311
28963ION     NA49243  10.017   9.256  11.481 -0.1270  0.0340 -0.0186
28964ION     NA49244   7.354   4.358   5.439 -0.0902  0.0301  0.1925
28965ION     NA49245  16.655   0.517  11.249  0.1560 -0.1940  0.0309
28966ION     NA49246  14.220   3.298   5.918  0.0754 -0.0428  0.1166
28967ION     NA49247   5.534   7.676  11.068 -0.0213 -0.1322 -0.0824
28968ION     NA49248   7.488  13.169   0.283 -0.1612  0.0131 -0.2995
28969ION     NA49249   0.593  14.078   2.493  0.0219  0.2242 -0.1159
28970ION     NA49250  12.558  16.683  11.744 -0.1812  0.2833  0.1097
28971ION     NA49251   6.853  10.500   0.021 -0.2465 -0.0790  0.0044
28972ION     NA49252  16.218   4.434  11.213  0.1666  0.2468  0.2291
28973ION     NA49253  13.020   0.024   6.006 -0.2727 -0.0948 -0.2777
28974ION     NA49254  14.651  16.317  14.596  0.4137  0.2649 -0.0062
28975ION     NA49255  15.031   0.625  11.300 -0.1771 -0.3263  0.0056
28976ION     NA49256   9.734   8.399  11.123 -0.0526 -0.1316  0.1025
28977ION     NA49257   6.077  14.440  11.298  0.1550  0.0573 -0.2605
28978ION     NA49258  11.492  10.128  11.282  0.0394  0.1214  0.2854
28979ION     NA49259  10.021   4.371   5.549  0.4284  0.1964 -0.0209
28980ION     NA49260   7.956  10.728  13.034  0.2908 -0.1098  0.1596
28981ION     NA49261   3.719  15.053  11.485  0.1133 -0.1990  0.1030
28982ION     NA49262  12.931  12.572   6.013  0.1742  0.0044  0.1261
28983ION     NA49263  11.856   5.060   5.943 -0.2158  0.0518 -0.5029
28984ION     NA49264  10.232  10.512   4.902  0.2022  0.2719 -0.1463
28985ION     NA49265   1.822  11.729  11.530  0.0756  0.1026  0.0414
28986ION     NA49266  15.127  14.204  11.333  0.1692 -0.2695  0.2048
28987ION     NA49267  17.121  12.488   3.480  0.1703 -0.2180 -0.0274
28988ION     NA49268   3.359   3.921  11.658  0.1329 -0.0129  0.0709
28989ION     NA49269  16.749   7.781   2.311 -0.0200 -0.0489  0.2463
28990ION     NA49270   6.017  17.553  11.267 -0.0751 -0.2887  0.1035
28991ION     NA49271   9.949  13.944   5.414  0.2724 -0.0233 -0.1285
28992ION     NA49272  16.790   2.418  11.250 -0.1064 -0.1817 -0.1184
28993ION     NA49273   7.404  16.431  11.263 -0.3597 -0.1613  0.0431
28994ION     NA49274   4.178   5.394   5.721 -0.1088  0.1399 -0.2461
28995ION     NA49275   4.222   3.978   5.740  0.0376  0.0802  0.0853
28996ION     NA49276   3.742   4.597  11.276  0.1003 -0.1178  0.1945
28997ION     NA49277  16.099   7.930   0.878  0.0308  0.2531  0.2276
28998ION     NA49278  12.647   9.607   5.751 -0.0289  0.0191 -0.0691
28999ION     NA49279   9.288  11.564   2.665 -0.2576  0.1251 -0.2211
29000ION     NA49280   9.570   8.404   1.458  0.0501  0.0359 -0.0428
29001ION     NA49281  10.370   1.435  11.170  0.0031  0.1914  0.0801
29002ION     NA49282   4.070  15.760  11.724 -0.1642 -0.2238 -0.3547
29003ION     NA49283  16.177  13.828  15.177 -0.1636  0.0412  0.1876
29004ION     NA49284  14.301   6.195   5.847 -0.0152 -0.1485 -0.0205
29005ION     NA49285   6.818  15.650  13.915 -0.0455  0.2761  0.1414
29006ION     NA49286   8.360  11.772  10.986  0.0087 -0.1160  0.1799
29007ION     NA49287  15.578   2.133   5.693 -0.2843  0.3844 -0.0785
29008ION     NA49288   7.738   8.050  11.001 -0.4047  0.1846  0.0259
29009ION     NA49289   9.932   2.270  11.120 -0.0343  0.0257 -0.0426
29010ION     NA49290   5.540   4.955  11.262 -0.1538  0.0430 -0.0251
29011ION     NA49291   2.720   1.186  13.196  0.0730 -0.2130  0.0386
29012ION     NA49292  10.427   4.555  10.903 -0.0872 -0.2504  0.0018
29013ION     NA49293   8.253   9.037   5.155  0.0095 -0.0379 -0.2253
29014ION     NA49294   7.061   1.146  11.182 -0.0085 -0.3609  0.1037
29015ION     NA49295   4.133  16.507  11.288  0.0340 -0.0240  0.0738
29016ION     NA49296   7.225   4.651  11.152  0.0655  0.0065 -0.1210
29017ION     NA49297  13.341  14.654   5.762 -0.2872 -0.1032  0.0287
29018ION     NA49298  12.649  13.047  11.433 -0.1632  0.2270  0.2024
29019ION     NA49299  12.050   7.346   4.836  0.0444  0.1100  0.2620
29020ION     NA49300   5.091  15.174   1.637  0.1066 -0.0265  0.1177
29021ION     NA49301   6.972  11.205  11.026 -0.1145 -0.0529  0.2222
29022ION     NA49302  13.405   8.000   2.411  0.0052  0.2221 -0.0635
29023ION     NA49303  10.776   8.712   5.725  0.0495  0.3299 -0.1268
29024ION     NA49304   0.051  12.458  15.983  0.2728 -0.2371 -0.3014
29025ION     NA49305  17.524  12.092   1.918  0.1486  0.0266 -0.2256
29026ION     NA49306   8.070   7.269  11.020 -0.1401 -0.0920  0.0518
29027ION     NA49307   9.976   2.509   5.805  0.0696 -0.3123 -0.2341
29028ION     NA49308   6.034  11.388   2.008 -0.1342 -0.2700 -0.1900
29029ION     NA49309   1.773  16.369  11.316 -0.2993 -0.2323 -0.0922
29030ION     NA49310  15.238  17.076   5.736  0.4296 -0.0791 -0.0236
29031ION     NA49311  14.113  12.111   5.897 -0.1570 -0.1169 -0.1777
29032ION     NA49312   9.087  10.513  11.890  0.2201 -0.1964 -0.1389
29033ION     NA49313  16.901   6.959   5.597  0.2153 -0.1259 -0.2667
29034ION     NA49314  13.538   5.658   5.816  0.1199  0.0217  0.4034
29035ION     NA49315  12.043  16.425   5.758 -0.2362 -0.0392  0.0894
29036ION     NA49316   2.377  11.966   4.785  0.0977  0.4126 -0.0489
29037ION     NA49317   9.129   2.412  11.233  0.2021 -0.1059  0.0490
29038ION     NA49318  11.123  13.927  11.517  0.0718 -0.2426  0.0674
29039ION     NA49319  15.429   9.889  11.472 -0.0812  0.0328  0.2758
29040ION     NA49320   8.924   3.668   3.457 -0.1102 -0.2282 -0.2616
29041ION     NA49321  17.626   8.231   5.704  0.0788 -0.1364 -0.0174
29042ION     NA49322  13.051   3.301  14.740  0.0628  0.0166  0.2412
29043ION     NA49323  15.178   1.578  11.428  0.1180 -0.1051 -0.2526
29044ION     NA49324  11.143   5.700   0.855  0.0299 -0.0226  0.0943
29045ION     NA49325   1.537  11.864  12.714 -0.1756 -0.1258  0.2586
29046ION     NA49326   2.843  11.446   5.669 -0.0683  0.2070  0.1809
29047ION     NA49327  10.111   0.887  11.203 -0.2800 -0.0307  0.2070
29048ION     NA49328   7.026  13.329   5.781 -0.3714 -0.0724 -0.2131
29049ION     NA49329   3.518  15.328   5.593 -0.0113  0.2595 -0.1811
29050ION     NA49330   5.882   8.741   2.573  0.4174  0.1792 -0.1495
29051ION     NA49331  16.020  16.839   5.004  0.3836 -0.2369  0.1819
29052ION     NA49332  14.792   4.943   5.654 -0.2448  0.1878 -0.0021
29053ION     NA49333   9.492  10.930   5.730 -0.1103  0.1417 -0.0916
29054ION     NA49334  15.882   5.790   5.972 -0.0821 -0.2094  0.0967
29055ION     NA49335   2.760  12.769  11.334  0.2398 -0.1686 -0.0137
29056ION     NA49336   8.936  14.214   5.734 -0.0118 -0.1081 -0.2067
29057ION     NA49337   2.335  11.936  11.284  0.1249  0.2395 -0.2417
29058ION     NA49338  11.101  12.930   5.714  0.0353  0.1399 -0.0831
29059ION     NA49339   4.661   4.520  11.183 -0.1373  0.0932  0.0573
29060ION     NA49340   8.387  12.462  11.071  0.0877  0.1675 -0.2036
29061ION     NA49341   7.507  15.127   5.857 -0.0661 -0.3242  0.2285
29062ION     NA49342   4.711  10.366   1.879 -0.0614  0.0720 -0.2992
29063ION     NA49343  16.844  15.216  11.582  0.0851  0.1519  0.2388
29064ION     NA49344  11.210   5.464   5.966 -0.1420 -0.0080  0.0435
29065ION     NA49345   5.520  11.888  11.105  0.1713 -0.1335  0.1048
29066ION     NA49346  11.050   7.307   5.746 -0.1958  0.2113 -0.0983
29067ION     NA49347   6.141  12.275  12.271  0.0253 -0.0972  0.0358
29068ION     NA49348   4.213   2.006   5.675 -0.1227  0.0113 -0.0436
29069ION     NA49349  16.580   1.910  13.937 -0.0333 -0.0156 -0.0048
29070ION     NA49350   0.282  10.570  14.841 -0.0248 -0.0773  0.1081
29071ION     NA49351  12.778  12.012  12.690 -0.0241  0.0800  0.4100
29072ION     NA49352   9.600  12.967   4.409  0.0824 -0.0678  0.0460
29073ION     NA49353   9.623  14.594  15.292 -0.0471  0.0430  0.3862
29074ION     NA49354  13.164  16.157  13.948  0.2189 -0.2860 -0.0196
29075ION     NA49355   4.589  14.286   5.795  0.0554 -0.1316 -0.0602
29076ION     NA49356   6.533  13.459   1.499  0.0259  0.1663 -0.1637
29077ION     NA49357   6.235  11.207  11.607 -0.0643 -0.0502 -0.0528
29078ION     NA49358   8.236   2.728  11.083  0.1140 -0.1947 -0.0612
29079ION     NA49359   0.009  12.152  11.299 -0.3036  0.4213  0.2873
29080ION     NA49360  12.840   0.687  11.393  0.0040  0.1498 -0.0686
29081ION     NA49361   4.664  12.372   1.970  0.0493  0.0790  0.2057
29082ION     NA49362  14.420   6.366  16.167 -0.1523 -0.1978 -0.2400
29083ION     NA49363  14.251   0.659  11.510 -0.0520 -0.0009  0.1048
29084ION     NA49364   3.463   1.167   5.705  0.3404 -0.0095 -0.0678
29085ION     NA49365  16.788   8.231   5.633  0.1433  0.1220  0.1440
29086ION     NA49366  13.911   9.545  15.937  0.1956 -0.0280  0.2857
29087ION     NA49367  13.843   2.203   5.571  0.2048 -0.2660 -0.0205
29088ION     NA49368  12.288   5.460  10.784 -0.0540  0.0324  0.1089
29089ION     NA49369   8.650   0.323   5.475 -0.0493  0.3485 -0.2390
29090ION     NA49370   8.322  13.289  11.109  0.0420  0.2059  0.5106
29091ION     NA49371   5.775  13.589  11.073  0.0586 -0.0052  0.1051
29092ION     NA49372  14.651  15.800   5.806 -0.0098  0.3377 -0.2752
29093ION     NA49373   4.749   7.751  11.241  0.0159  0.3258 -0.1488
29094ION     NA49374  14.481   4.989  12.495 -0.1776  0.1721  0.2834
29095ION     NA49375   3.585  12.465   2.702 -0.1025  0.1484  0.2169
29096ION     NA49376  16.835  10.173   6.056 -0.0497 -0.1586  0.0696
29097ION     NA49377   4.972   9.296  11.202 -0.1645  0.1392 -0.1456
29098ION     NA49378   6.671  15.240   5.883 -0.0364  0.2589  0.2776
29099ION     NA49379  12.547  13.565   5.983 -0.1172  0.0807  0.2047
29100ION     NA49380   4.439   1.188   5.592  0.0055  0.2770  0.1641
29101ION     NA49381   8.287   1.474  13.774 -0.1610  0.0463 -0.0648
29102ION     NA49382   5.080  16.359  11.282 -0.2557  0.1552  0.0127
29103ION     NA49383   8.308   4.741   5.562  0.1974  0.2489  0.0629
29104ION     NA49384   6.113  11.286  11.094 -0.1667  0.1187 -0.0619
29105ION     NA49385   3.798   0.415   3.137 -0.1378  0.0173  0.0677
29106ION     NA49386   7.712   1.090   5.598  0.1355 -0.0361  0.1860
29107ION     NA49387  17.347  11.976  11.080  0.0279  0.1661 -0.5484
29108ION     NA49388   7.508   3.286  10.872 -0.1034  0.1042 -0.0421
29109ION     NA49389  14.117   7.169  11.380  0.1356 -0.1657 -0.2720
29110ION     NA49390   2.351  10.848  13.918 -0.2176 -0.1382  0.0788
29111ION     NA49391  12.396  11.603  11.634  0.1959 -0.0121 -0.0628
29112ION     NA49392  11.168  14.800   5.789 -0.3020 -0.0178 -0.2895
29113ION     NA49393  13.029   3.110  11.367 -0.1949 -0.0985 -0.3860
29114ION     NA49394   3.895   2.292  11.481 -0.3450  0.0895 -0.0536
29115ION     NA49395  16.602  11.028  14.812  0.3564  0.6388  0.0882
29116ION     NA49396  11.969   1.072  11.212 -0.3017  0.3548 -0.2061
29117ION     NA49397   2.921   7.416   5.548 -0.0230 -0.3418 -0.3193
29118ION     NA49398  15.909  13.123  11.295  0.1664  0.2440 -0.0542
29119ION     NA49399   7.320  13.308  11.010  0.1120  0.4114  0.1199
29120ION     NA49400   6.557   6.550   5.082  0.1334  0.1774  0.1127
29121ION     NA49401  13.611   7.662  13.787 -0.0920 -0.1455 -0.0198
29122ION     NA49402   2.395   3.068   5.741  0.2049  0.3802 -0.1472
29123ION     NA49403  16.409   9.374   5.741 -0.1833 -0.0513 -0.0886
29124ION     NA49404  15.577  10.991  13.418  0.1753 -0.2814 -0.1159
29125ION     NA49405   3.598   4.681   5.637  0.0406 -0.2036 -0.0201
29126ION     NA49406  13.769   0.425   6.031  0.0484  0.1263  0.1565
29127ION     NA49407  17.468   7.501  11.139 -0.0735  0.1184  0.1948
29128ION     NA49408  13.640   7.101   5.635 -0.0003  0.1946 -0.0006
29129ION     NA49409   0.435   4.148   5.823 -0.2224  0.0410 -0.1657
29130ION     NA49410   9.855   6.400   5.259  0.0065  0.0122  0.1047
29131ION     NA49411  17.606  16.023   5.626 -0.1829 -0.3939  0.0135
29132ION     NA49412  14.630   4.208   5.803 -0.1172  0.1291 -0.0275
29133ION     NA49413  10.466   5.852   5.665 -0.1363  0.6069 -0.0865
29134ION     NA49414  10.854   2.806  11.082  0.0375 -0.5151  0.0447
29135ION     NA49415  15.310   0.794   0.069 -0.2563  0.0586  0.0966
29136ION     NA49416  11.990   0.160  11.337 -0.1346  0.0248  0.0733
29137ION     NA49417  13.102   6.445   5.931  0.2492 -0.4256 -0.0984
29138ION     NA49418  12.271   8.609   5.871  0.0087  0.0829  0.0680
29139ION     NA49419   2.632   4.192  15.628  0.0379  0.1149 -0.1111
29140ION     NA49420   2.839  16.955   5.682  0.0095  0.0024 -0.0750
29141ION     NA49421   9.191  11.171  11.239 -0.0490  0.0952 -0.2790
29142ION     NA49422  11.671   0.430  14.105  0.1552  0.2971 -0.4373
29143ION     NA49423  15.881   1.624   5.730 -0.1419  0.0779 -0.0211
29144ION     NA49424  14.449   6.975   5.842 -0.1024 -0.0900 -0.1720
29145ION     NA49425  14.472   8.346   5.878 -0.1192 -0.1489 -0.3895
29146ION     NA49426  17.450  13.859  11.267  0.1969 -0.1415  0.1313
29147ION     NA49427  17.689  11.268   4.540  0.1696  0.1747 -0.0648
29148ION     NA49428  14.967  12.262   6.358 -0.2618  0.1700  0.1225
29149ION     NA49429   7.667  14.654   4.670 -0.1069  0.2340  0.1691
29150ION     NA49430  11.758   0.515   2.014  0.0031  0.0300 -0.0673
29151ION     NA49431  17.617  14.692  11.434  0.0295  0.1171 -0.0770
29152ION     NA49432   2.230   2.812  11.300 -0.2554 -0.3075 -0.1446
29153ION     NA49433  14.691   6.764  12.182 -0.1621  0.0490  0.0845
29154ION     NA49434  10.737  11.114  11.427  0.0045 -0.2983  0.2388
29155ION     NA49435   9.359   3.568  10.904 -0.2548  0.1520 -0.1321
29156ION     NA49436   1.526   7.003  11.094 -0.1174 -0.0554 -0.0085
29157ION     NA49437  17.449  17.022   5.563 -0.0079 -0.2548 -0.2279
29158ION     NA49438  13.835   1.315   6.077  0.0770  0.0820  0.1568
29159ION     NA49439   0.743  12.994   5.820 -0.0507  0.0834  0.0123
29160ION     NA49440   5.527   1.174  11.219  0.0017  0.2515  0.0519
29161ION     NA49441   7.404  14.266  11.108  0.4249 -0.0767  0.1105
29162ION     NA49442   7.280   2.418  16.518  0.2348  0.1232 -0.1185
29163ION     NA49443   6.315   0.457   1.199 -0.0790 -0.0135  0.2036
29164ION     NA49444  15.245  17.413  11.424 -0.1492 -0.2292  0.2330
29165ION     NA49445   5.004   5.737   0.810  0.3213  0.3423  0.1925
29166ION     NA49446  13.486  10.825  12.102 -0.0607 -0.2290  0.0047
29167ION     NA49447  13.119   1.520  15.718 -0.0528  0.0340 -0.0555
29168ION     NA49448   2.837   4.597  11.097  0.0955 -0.0584 -0.2651
29169ION     NA49449  12.553   0.013   5.855  0.4501  0.1345 -0.1332
29170ION     NA49450  12.806   9.273  11.380 -0.0676  0.0155 -0.1313
29171ION     NA49451   9.490  15.424  11.424 -0.0564 -0.0932 -0.0286
29172ION     NA49452   6.503  16.244   2.468 -0.3083  0.0611 -0.2017
29173ION     NA49453   0.585  17.469   1.156 -0.1492  0.1864 -0.1957
29174ION     NA49454  11.691  17.072  11.408  0.1407 -0.1932  0.0684
29175ION     NA49455   2.968  13.595  11.368 -0.0005  0.1079  0.0217
29176ION     NA49456   2.590   1.012   2.052  0.2701  0.1657 -0.0617
29177ION     NA49457  13.334  10.725   1.368  0.1136 -0.0570 -0.0567
29178ION     NA49458  13.650   9.795   1.274 -0.5012  0.2384 -0.0418
29179ION     NA49459   7.059   0.530   5.755  0.2756  0.0781  0.2337
29180ION     NA49460   9.140  12.976  10.943  0.1764  0.1938 -0.0458
29181ION     NA49461   3.453   7.735   1.858 -0.0376  0.1281 -0.1003
29182ION     NA49462   3.499   3.448   5.592  0.0844  0.2306 -0.0679
29183ION     NA49463  13.921   6.562  11.141  0.1888 -0.2130 -0.0276
29184ION     NA49464  15.808   5.304  11.290  0.0535 -0.2048 -0.1114
29185ION     NA49465   1.441  17.307  11.361 -0.0492 -0.0121 -0.1076
29186ION     NA49466   5.280   6.948   0.349 -0.1170 -0.0471 -0.1827
29187ION     NA49467   2.266   0.680   5.895 -0.1733  0.3138 -0.2095
29188ION     NA49468   0.513  16.949  11.331 -0.0235 -0.1804 -0.0962
29189ION     NA49469   6.806  11.965  11.260 -0.1302 -0.0874  0.1922
29190ION     NA49470  16.900  16.242   5.883  0.0521  0.0617 -0.0196
29191ION     NA49471   6.443   4.410   5.377  0.0724  0.2758  0.0778
29192ION     NA49472  10.483   6.802   5.703  0.2748  0.0783  0.1757
29193ION     NA49473   4.359  15.042   5.702 -0.1069 -0.2299 -0.0040
29194ION     NA49474   0.531   5.734   5.685  0.2110 -0.3756 -0.1131
29195ION     NA49475   2.175   8.123   5.721  0.0303  0.1272 -0.3231
29196ION     NA49476   8.193   1.137   5.776  0.2148  0.0520 -0.0906
29197ION     NA49477  13.136  10.813   4.161  0.1654  0.2139 -0.0348
29198ION     NA49478  14.542  16.772   5.917 -0.0026 -0.2838 -0.1603
29199ION     NA49479   1.138   4.508   5.831 -0.2157  0.0151 -0.0333
29200ION     NA49480   6.427  16.180  12.078 -0.0677 -0.1485 -0.3531
29201ION     NA49481   8.956   5.303  10.806 -0.2485  0.0950  0.1481
29202ION     NA49482   3.490   0.596  11.290  0.1262 -0.0501  0.0125
29203ION     NA49483  11.442   3.782  14.481  0.1422 -0.0027 -0.1085
29204ION     NA49484   9.809  11.567  11.197 -0.1994  0.0646 -0.1230
29205ION     NA49485  11.507  11.636  11.490 -0.0814 -0.3930 -0.0621
29206ION     NA49486   2.020   2.343   5.701  0.0046  0.0637 -0.0347
29207ION     NA49487  12.750   1.478  11.510  0.6596  0.0475  0.2120
29208ION     NA49488  16.218   9.418  13.751  0.0725  0.0940  0.0358
29209ION     NA49489  13.038   0.922   6.104  0.1771  0.0391 -0.0931
29210ION     NA49490   9.371   7.840  16.129  0.0777  0.0904  0.2854
29211ION     NA49491   5.478  11.189  13.551  0.2626  0.2166 -0.1746
29212ION     NA49492  16.171   0.727   5.662 -0.1373  0.2304  0.1483
29213ION     NA49493  10.553   3.085  14.664  0.0077  0.1532 -0.1307
29214ION     NA49494   7.437   8.806   5.501  0.1363 -0.2342  0.0471
29215ION     NA49495   3.666   7.822   5.643 -0.4145 -0.0270  0.2316
29216ION     NA49496   2.307   3.813  11.123 -0.0833  0.1021 -0.1949
29217ION     NA49497   8.181  17.370   5.683 -0.0682  0.1340  0.0909
29218ION     NA49498  13.746  10.786  11.594  0.0368  0.0489 -0.0215
29219ION     NA49499  17.127  12.318   1.110  0.2151 -0.3702  0.1943
29220ION     NA49500  10.920  13.830   5.789  0.1151 -0.1137  0.0479
29221ION     NA49501   9.224   1.956   5.905  0.4324 -0.1423 -0.1313
29222ION     NA49502  12.967  13.879   6.062 -0.2462 -0.0319 -0.1275
29223ION     NA49503   5.555  16.176   3.082  0.0509  0.0073 -0.0724
29224ION     NA49504   4.592   1.389  12.368  0.1456  0.0478  0.0403
29225ION     NA49505   3.423  16.071  11.564  0.2115 -0.0121 -0.1338
29226ION     NA49506  16.986  15.890  11.425 -0.2265 -0.3695 -0.0471
29227ION     NA49507  13.642   6.257   5.165  0.4940 -0.1965 -0.1102
29228ION     NA49508   1.622  16.425   0.961 -0.0781 -0.0839  0.2289
29229ION     NA49509  11.198  14.288  13.207 -0.0143 -0.0202 -0.0698
29230ION     NA49510  14.248  16.612  11.518 -0.1165  0.0605  0.2099
29231ION     NA49511   5.943   8.482  15.343  0.0066 -0.1790  0.3166
29232ION     NA49512   6.358   4.786  11.224 -0.3252  0.1785  0.2084
29233ION     NA49513   2.710  10.803  15.511 -0.0319 -0.2579  0.1847
29234ION     NA49514  12.701   4.421   6.120 -0.2390  0.1079 -0.0173
29235ION     NA49515   2.573   8.630  11.142  0.3966  0.0160  0.0072
29236ION     NA49516  12.399  15.842   0.476  0.0484  0.2411  0.0582
29237ION     NA49517  10.592   8.244   3.422 -0.1770 -0.0672  0.1848
29238ION     NA49518  17.022   0.255   2.943  0.0843  0.0640 -0.0451
29239ION     NA49519   0.089   8.304  11.330 -0.2259 -0.0567  0.4180
29240ION     NA49520  13.400  11.715   6.158 -0.1728  0.0325  0.1972
29241ION     NA49521   4.404   2.979  11.401  0.0744  0.2856 -0.0587
29242ION     NA49522  14.228   4.559  11.317  0.0221 -0.2620  0.0542
29243ION     NA49523   0.809   0.681   5.815 -0.1000  0.1441  0.0812
29244ION     NA49524   6.157   9.947  11.116  0.2679 -0.0592 -0.1610
29245ION     NA49525   6.504  16.091   5.668 -0.0803  0.0676  0.2079
29246ION     NA49526   5.263   1.955  11.245 -0.0789 -0.1972  0.2277
29247ION     NA49527   6.925   9.186   5.546  0.0405 -0.0185  0.0574
29248ION     NA49528   9.810   9.913   5.792  0.3639 -0.0937  0.3917
29249ION     NA49529   5.012  17.231   3.612 -0.1945  0.1329  0.0543
29250ION     NA49530   4.082  13.667  11.260  0.2429 -0.0504 -0.0831
29251ION     NA49531  16.588   5.187   5.627  0.2241 -0.0323 -0.2757
29252ION     NA49532  17.455  14.566   5.865 -0.0346 -0.1713  0.0515
29253ION     NA49533  15.262  14.621   5.937  0.1156  0.1139 -0.0616
29254ION     NA49534   6.747  16.913  11.153  0.0820 -0.0648 -0.3182
29255ION     NA49535  11.955  16.230  11.405  0.2847  0.2149 -0.3654
29256ION     NA49536   8.850   6.207   5.334  0.0008  0.0973 -0.3384
29257ION     NA49537  10.990  10.344  15.504  0.1153  0.0356  0.1685
29258ION     NA49538   8.299   7.349   1.890  0.3300 -0.1162  0.0453
29259ION     NA49539   8.876   7.323  11.190  0.1996  0.1587  0.0569
29260ION     NA49540   8.161   6.413   1.573  0.1585  0.1269  0.1452
29261ION     NA49541   5.355   4.244   1.819 -0.1359 -0.1204  0.1594
29262ION     NA49542  13.492  13.062  11.680  0.0167 -0.2962  0.3913
29263ION     NA49543  14.852  12.214   1.110 -0.3648 -0.2075  0.1475
29264ION     NA49544   9.644  13.765  11.141 -0.3585 -0.0430  0.0800
29265ION     NA49545   6.344   5.971  11.150  0.0137  0.1661  0.0572
29266ION     NA49546  13.111   5.934  11.211 -0.2222 -0.1398 -0.0534
29267ION     NA49547   0.578   7.948   4.116  0.4073 -0.1601 -0.0535
29268ION     NA49548   3.078   0.197   5.671 -0.0934  0.0703 -0.1580
29269ION     NA49549   4.060  12.596  11.283  0.1003  0.1904  0.2549
29270ION     NA49550  13.077   7.051   5.750 -0.0222 -0.1244  0.1102
29271ION     NA49551  14.579   0.761   5.833 -0.0764  0.1025  0.0938
29272ION     NA49552  10.376  14.382  11.209 -0.0971 -0.1037 -0.0334
29273ION     NA49553  11.097   0.195   5.575 -0.1490  0.1672  0.2322
29274ION     NA49554   1.815   7.838   5.468 -0.0506 -0.0658 -0.0734
29275ION     NA49555   2.809   9.946   5.407  0.0690 -0.0339  0.0455
29276ION     NA49556   0.343  14.476  11.264  0.1657 -0.1185  0.4207
29277ION     NA49557   8.506  15.332   5.762  0.0878 -0.1667  0.2322
29278ION     NA49558   4.629  15.164  11.276 -0.2265  0.0532 -0.1461
29279ION     NA49559   2.011   6.940   4.128  0.1035  0.2210  0.0873
29280ION     NA49560   2.252   5.221   5.543 -0.2300 -0.2077 -0.3083
29281ION     NA49561  12.361  10.083  11.199 -0.0656 -0.0516 -0.0717
29282ION     NA49562   1.357  10.554   5.756  0.0435 -0.2631 -0.0083
29283ION     NA49563   4.351   7.228   5.561 -0.0710  0.2206  0.1420
29284ION     NA49564   5.842   4.930   5.239 -0.1145  0.1209  0.2249
29285ION     NA49565   6.929   8.558  14.459 -0.0068 -0.0242 -0.2998
29286ION     NA49566   8.945  13.799  11.135  0.1125 -0.0937 -0.0703
29287ION     NA49567  11.261   1.618  11.134 -0.0239  0.0877  0.1659
29288ION     NA49568  16.674  16.820   5.942 -0.2838  0.1078 -0.2740
29289ION     NA49569  15.714  10.253  11.279 -0.2609 -0.3281 -0.5095
29290ION     NA49570   9.663   9.942   4.650 -0.0842 -0.0238  0.6002
29291ION     NA49571  15.440   3.769  14.728  0.3106 -0.0275 -0.0366
29292ION     NA49572   5.779   3.193  16.438 -0.1848  0.1306 -0.2006
29293ION     NA49573  11.856   3.824  11.147  0.2563  0.0234  0.1779
29294ION     NA49574  14.275  17.492  11.448 -0.0201 -0.2033  0.0692
29295ION     NA49575  15.479   3.995   5.696 -0.0507  0.3282 -0.1821
29296ION     NA49576  11.120   1.963  11.474  0.3423 -0.2776  0.1774
29297ION     NA49577   4.455  14.355  11.276  0.1866  0.3624 -0.3323
29298ION     NA49578  13.706  17.123   5.866  0.2232  0.1854  0.1620
29299ION     NA49579   6.954  14.617  11.205  0.0422  0.1128 -0.0870
29300ION     NA49580   6.249  16.903   5.740 -0.2912  0.1044  0.1211
29301ION     NA49581  15.885  11.166   6.188  0.0678  0.0251 -0.1333
29302ION     NA49582   5.317  10.069   3.537 -0.0524  0.0626 -0.0319
29303ION     NA49583  12.721   9.613   3.869  0.0039  0.1592 -0.0404
29304ION     NA49584  13.921  11.753  11.417 -0.0511  0.1544 -0.0124
29305ION     NA49585  12.515  12.012   5.997 -0.1110 -0.0728  0.0874
29306ION     NA49586  15.911   8.322  14.686  0.2223  0.1551 -0.0851
29307ION     NA49587  14.933   5.808  11.516 -0.0619  0.1257  0.0516
29308ION     NA49588  12.653  11.204   6.022  0.0272  0.0490 -0.0311
29309ION     NA49589   2.952   6.841  11.358 -0.1927  0.2028 -0.0142
29310ION     NA49590  10.593  15.841  14.606 -0.0577 -0.3285  0.0925
29311ION     NA49591  13.933  15.305   5.652 -0.1729  0.0456 -0.0343
29312ION     NA49592  10.486  10.183  11.830 -0.2146  0.0898  0.0775
29313ION     NA49593   1.844   4.956   5.707  0.0051 -0.0653  0.1923
29314ION     NA49594  11.257   9.315  13.075  0.0926 -0.1236 -0.1768
29315ION     NA49595   7.671   3.780  10.979 -0.0365 -0.2536 -0.1009
29316ION     NA49596   1.391  15.559   5.851 -0.0041 -0.2208  0.0681
29317ION     NA49597  12.659  17.547  11.470 -0.0769 -0.0610 -0.0779
29318ION     NA49598   4.772  10.837  10.982 -0.0706 -0.0066  0.0853
29319ION     NA49599   9.214  16.815  11.224  0.2102  0.2232  0.3434
29320ION     NA49600   5.886   7.159   5.338  0.2232 -0.0895 -0.1587
29321ION     NA49601   3.273   6.366  16.666  0.5017 -0.2105  0.1310
29322ION     NA49602  16.238  10.159  11.243  0.0635 -0.2830  0.0430
29323ION     NA49603  16.689   6.071   5.518  0.0985 -0.2638 -0.0794
29324ION     NA49604  14.099   5.351  11.721  0.0386 -0.4190 -0.0647
29325ION     NA49605  13.537   7.984   5.750  0.0142  0.2443 -0.2770
29326ION     NA49606  12.806  16.785   5.945  0.1399  0.0981 -0.0135
29327ION     NA49607   7.596  11.834  11.083 -0.1037  0.2745  0.0884
29328ION     NA49608   7.149   1.401  15.614 -0.3105 -0.0565 -0.0353
29329ION     NA49609   3.350   3.035   1.919 -0.0909  0.0429  0.0147
29330ION     NA49610   6.291   6.853   5.564  0.3359 -0.1074  0.1485
29331ION     NA49611   7.023  17.400  11.178  0.0250  0.0682 -0.0804
29332ION     NA49612   2.071   6.468  11.321 -0.3518  0.0633 -0.4635
29333ION     NA49613   9.006   3.005  14.283  0.1138  0.2186  0.0833
29334ION     NA49614  11.860   5.941   2.138 -0.0074  0.1900  0.0349
29335ION     NA49615   3.356   1.599  11.507  0.1087  0.1103  0.1029
29336ION     NA49616   1.870   9.278  11.273  0.1384  0.3506 -0.0281
29337ION     NA49617  16.290  13.293   1.696  0.1017  0.1496 -0.0753
29338ION     NA49618  14.592  10.613   6.065  0.1515 -0.1264  0.0539
29339ION     NA49619  15.603   7.258  11.155  0.3364  0.1556 -0.0453
29340ION     NA49620  14.210  11.220   5.798 -0.1476 -0.0533 -0.4282
29341ION     NA49621   4.373   9.330   5.426 -0.3968  0.1363 -0.0948
29342ION     NA49622   4.976   3.701   5.348 -0.1796 -0.0709  0.0843
29343ION     NA49623  13.774   3.904  11.398  0.3826 -0.2207  0.0711
29344ION     NA49624   8.349   8.679  11.017 -0.0069 -0.1558 -0.2664
29345ION     NA49625  14.264  11.331   6.297  0.4093 -0.0238 -0.0048
29346ION     NA49626  13.150   6.729   0.362  0.0365  0.0018  0.3126
29347ION     NA49627  15.102   7.029   0.631  0.1277 -0.2393  0.0265
29348ION     NA49628   7.024  14.381   5.660 -0.0411  0.0109  0.3007
29349ION     NA49629   5.301  11.458   5.520 -0.2349  0.1376 -0.2055
29350ION     NA49630  14.529  12.940   5.923  0.0123  0.0062  0.0861
29351ION     NA49631   0.799  16.167  11.320 -0.1294 -0.0185 -0.1124
29352ION     NA49632   6.223   9.634   5.318 -0.2468 -0.0852 -0.0981
29353ION     NA49633   5.392  10.231  11.117 -0.0799  0.4317 -0.0595
29354ION     NA49634  15.601   3.058  11.233 -0.2202 -0.0323 -0.0420
29355ION     NA49635  12.704  16.539  11.258 -0.3104  0.1039 -0.0113
29356ION     NA49636   5.578  14.281   5.577 -0.0760  0.2570 -0.1026
29357ION     NA49637  14.902   3.145  12.776  0.0739  0.0694  0.3793
29358ION     NA49638   5.957  16.765  14.420  0.1991  0.0724 -0.0571
29359ION     NA49639  15.928  15.610  11.589 -0.0624  0.2200  0.0758
29360ION     NA49640  14.311  15.729  11.446  0.0114 -0.0761 -0.1617
29361ION     NA49641  14.280  11.077  16.200 -0.1572  0.0798 -0.0692
29362ION     NA49642   1.524  13.832  15.097  0.0378 -0.0701 -0.1202
29363ION     NA49643   9.757   5.773  10.866  0.2932  0.2092  0.0490
29364ION     NA49644   9.967   9.016  11.067 -0.0090 -0.0186 -0.0694
29365ION     NA49645   5.834  11.254   5.689 -0.2841 -0.0521  0.1081
29366ION     NA49646  12.353   4.592  10.794 -0.1319  0.0131 -0.1200
29367ION     NA49647  17.732   9.780   5.621  0.0301 -0.2455  0.1355
29368ION     NA49648   3.796  10.038   5.498  0.1080  0.0385 -0.3352
29369ION     NA49649   3.721  11.791  11.170  0.1972 -0.2254  0.1422
29370ION     NA49650  11.943   1.682   6.068 -0.1837 -0.0308  0.1484
29371ION     NA49651  12.605   7.439  11.140 -0.0325 -0.5241  0.0698
29372ION     NA49652  16.010   7.643   4.708  0.1704  0.2482  0.0980
29373ION     NA49653  11.782   7.722   5.708  0.4406  0.1762 -0.0381
29374ION     NA49654   9.912   3.885   5.337  0.0835 -0.3354  0.2455
29375ION     NA49655   0.118  11.004   1.351  0.1314 -0.0972 -0.2229
29376ION     NA49656   6.340   7.610  11.173 -0.0841  0.3062 -0.3450
29377ION     NA49657   4.207  13.533   5.725  0.0188 -0.1046 -0.1138
29378ION     NA49658   4.873   6.735   4.982 -0.3540 -0.3164 -0.0500
29379ION     NA49659   5.265  17.322  11.247  0.0610 -0.3723 -0.5067
29380ION     NA49660   7.188   9.000   0.992  0.0100  0.0259 -0.1910
29381ION     NA49661   0.537  12.009   5.821 -0.2605 -0.3721  0.0480
29382ION     NA49662   9.386   2.914   4.921 -0.0412 -0.2921  0.0161
29383ION     NA49663   7.156   7.358  11.085 -0.2566  0.2372 -0.2099
29384ION     NA49664   2.553   3.143   4.842 -0.3500  0.0252 -0.0575
29385ION     NA49665   8.641  11.462   5.593 -0.1246  0.1522  0.4692
29386ION     NA49666  16.683  14.713   5.894  0.1456 -0.0811 -0.1325
29387ION     NA49667   3.202  10.886   5.495  0.2015 -0.0398  0.1704
29388ION     NA49668  16.046   8.084  11.174 -0.1222 -0.3010 -0.0257
29389ION     NA49669  13.262   3.769   6.374 -0.0068 -0.2049  0.2262
29390ION     NA49670   7.615  16.554  13.593 -0.0996  0.0615 -0.1783
29391ION     NA49671  15.978  10.056  16.579 -0.1700 -0.4152  0.0275
29392ION     NA49672  10.602   9.252   5.735  0.0083 -0.0636 -0.2288
29393ION     NA49673   0.546   6.613   1.940 -0.1494  0.1339 -0.1580
29394ION     NA49674  17.364   8.519  11.192 -0.1686  0.0779  0.0865
29395ION     NA49675   3.845  12.815   5.725 -0.0203 -0.2999 -0.0247
  17.74287  17.74287  16.88680
