INSANE! Membrane UpperLeaflet>loPI=1 LowerLeaflet>loPI=1
49675
    1loPI    C1    1   3.535   4.641  10.494 -0.0221  0.0978 -0.1648
    1loPI    C2    2   3.160   4.584  10.621  0.0762  0.0281  0.1001
    1loPI    C3    3   3.307   4.955  10.593  0.0155  0.0506  0.0772
    1loPI   PO4    4   3.629   4.530  10.223  0.2895  0.0514 -0.0977
    1loPI   GL1    5   3.616   4.616   9.799  0.1115 -0.1447 -0.1161
    1loPI   GL2    6   3.711   4.893   9.579 -0.0135  0.1863 -0.1920
    1loPI   C1A    7   3.687   4.347   9.413  0.0584  0.2294 -0.2622
    1loPI   C2A    8   3.631   4.327   9.060 -0.3226 -0.2118  0.0712
    1loPI   C3A    9   3.657   4.296   8.565  0.0238  0.1664  0.0067
    1loPI   C4A   10   3.748   4.218   8.119  0.1540 -0.0238  0.0764
    1loPI   C5A   11   3.797   4.268   7.746 -0.1167  0.2045  0.3791
    1loPI   C6A   12   3.760   4.158   7.289  0.2190  0.1858 -0.0661
    1loPI   C1B   13   3.676   4.843   9.204  0.1172  0.1451 -0.0001
    1loPI   C2B   14   3.705   4.769   8.788  0.0748  0.2499 -0.1871
    1loPI   C3B   15   3.744   4.724   8.304  0.0110  0.1380 -0.1768
    1loPI   C4B   16   3.689   4.796   7.858  0.0731 -0.1731  0.0313
    2loPI    C1   17  13.801   8.098  11.042 -0.3702 -0.0235 -0.0289
    2loPI    C2   18  13.642   7.731  11.021  0.1297 -0.2616  0.1665
    2loPI    C3   19  13.650   7.926  11.370  0.0311 -0.1391  0.1014
    2loPI   PO4   20  13.742   8.169  10.803  0.0907 -0.2295  0.0546
    2loPI   GL1   21  13.997   8.224  10.437 -0.0084  0.3839  0.1803
    2loPI   GL2   22  14.219   8.177  10.263 -0.1916  0.1067  0.0834
    2loPI   C1A   23  13.681   8.253  10.032 -0.0739 -0.0765 -0.4296
    2loPI   C2A   24  13.741   8.215   9.627 -0.3165 -0.4273  0.2367
    2loPI   C3A   25  13.732   8.185   9.210  0.1840 -0.1117  0.2884
    2loPI   C4A   26  13.732   8.091   8.714 -0.0545 -0.0641  0.0660
    2loPI   C5A   27  13.786   8.195   8.339  0.0676  0.3647 -0.0132
    2loPI   C6A   28  14.126   8.522   8.214  0.1387  0.0254 -0.0866
    2loPI   C1B   29  14.239   8.114   9.843 -0.0569 -0.1231  0.1513
    2loPI   C2B   30  14.256   8.219   9.401 -0.1239 -0.2732  0.0050
    2loPI   C3B   31  14.225   8.160   8.982 -0.0506 -0.0823  0.0576
    2loPI   C4B   32  14.215   8.146   8.605  0.0041  0.3959  0.2000
    3loPI    C1   33   2.693   1.335  10.507  0.0075 -0.3034  0.0570
    3loPI    C2   34   2.833   1.464  10.859  0.2205  0.1259 -0.1771
    3loPI    C3   35   2.985   1.134  10.692  0.0715 -0.1184  0.1599
    3loPI   PO4   36   2.685   1.447  10.300 -0.0530 -0.0475  0.0756
    3loPI   GL1   37   2.398   1.438   9.921  0.1649  0.1482 -0.0828
    3loPI   GL2   38   2.543   1.703   9.778  0.2978  0.1136 -0.1927
    3loPI   C1A   39   2.106   1.417   9.512 -0.1171 -0.3912 -0.1312
    3loPI   C2A   40   2.162   1.366   9.085 -0.2814  0.2249  0.0539
    3loPI   C3A   41   2.161   1.500   8.731 -0.0249 -0.1787 -0.0278
    3loPI   C4A   42   2.226   1.401   8.314 -0.1276  0.2108 -0.3737
    3loPI   C5A   43   1.960   1.428   7.917  0.1935 -0.3187  0.0261
    3loPI   C6A   44   1.983   1.674   7.522 -0.4022 -0.1511 -0.0066
    3loPI   C1B   45   2.584   1.547   9.324  0.0867  0.0176 -0.0237
    3loPI   C2B   46   2.691   1.594   8.856  0.1848  0.0564  0.3839
    3loPI   C3B   47   2.768   1.600   8.376 -0.0234 -0.2227 -0.2008
    3loPI   C4B   48   2.680   1.633   7.942  0.2839  0.0993 -0.0901
    4loPI    C1   49  17.000  18.066  10.858  0.1866 -0.0760 -0.0627
    4loPI    C2   50  16.968  17.814  11.167  0.1195 -0.1474 -0.1275
    4loPI    C3   51  16.886  18.202  11.217  0.2654 -0.1298 -0.0169
    4loPI   PO4   52  17.251  18.015  10.706  0.1615  0.0431 -0.0849
    4loPI   GL1   53  17.276  17.819  10.318 -0.3175  0.1188  0.2335
    4loPI   GL2   54  17.226  17.549  10.068  0.2452  0.1530 -0.1565
    4loPI   C1A   55  16.928  17.924   9.989 -0.0061  0.1148  0.1541
    4loPI   C2A   56  16.948  18.023   9.515 -0.1032 -0.1419 -0.1855
    4loPI   C3A   57  16.945  18.070   8.988  0.0508  0.0180 -0.1562
    4loPI   C4A   58  16.864  17.945   8.602 -0.0474 -0.2218  0.2771
    4loPI   C5A   59  16.846  17.979   8.146  0.4495  0.0481  0.2377
    4loPI   C6A   60  16.752  18.257   7.806 -0.1230 -0.1856 -0.0693
    4loPI   C1B   61  17.157  17.578   9.637  0.1412 -0.1949 -0.0541
    4loPI   C2B   62  16.993  17.586   9.212  0.0095  0.1789  0.1350
    4loPI   C3B   63  17.004  17.524   8.832  0.1352  0.2777  0.3051
    4loPI   C4B   64  16.958  17.449   8.394 -0.1789  0.2124 -0.0758
    5loPI    C1   65   3.160  14.933  10.522 -0.2685  0.2690  0.1172
    5loPI    C2   66   3.481  14.985  10.754  0.1008 -0.5096 -0.1819
    5loPI    C3   67   3.126  14.905  10.919  0.0588  0.2693  0.1479
    5loPI   PO4   68   3.280  14.940  10.267 -0.0017  0.1779 -0.3732
    5loPI   GL1   69   3.099  14.948   9.865  0.1620 -0.2564 -0.2521
    5loPI   GL2   70   3.235  14.651   9.711 -0.1429 -0.0400  0.0250
    5loPI   C1A   71   2.855  14.947   9.516  0.0557 -0.1359 -0.0704
    5loPI   C2A   72   2.818  14.900   9.106 -0.0202 -0.1555  0.1124
    5loPI   C3A   73   2.719  14.805   8.651 -0.2362  0.0759 -0.1789
    5loPI   C4A   74   2.802  14.709   8.264  0.2100 -0.1121  0.1475
    5loPI   C5A   75   2.674  14.555   7.950  0.1500  0.1135 -0.0071
    5loPI   C6A   76   2.552  14.369   7.572  0.1088 -0.1130 -0.2260
    5loPI   C1B   77   3.277  14.617   9.311 -0.0702  0.0779  0.1353
    5loPI   C2B   78   3.325  14.628   8.861  0.0345  0.0776  0.0771
    5loPI   C3B   79   3.271  14.581   8.412  0.2986 -0.3609 -0.2617
    5loPI   C4B   80   3.361  14.456   7.994  0.0149 -0.1344  0.1288
    6loPI    C1   81  17.059   9.572  10.856 -0.0391 -0.0711 -0.0394
    6loPI    C2   82  16.955   9.206  10.734  0.0608 -0.0605 -0.1582
    6loPI    C3   83  16.804   9.354  11.074  0.1802 -0.2927 -0.0018
    6loPI   PO4   84  17.058   9.687  10.627  0.0103  0.0027  0.1456
    6loPI   GL1   85  16.879   9.942  10.310  0.0675 -0.4829  0.2546
    6loPI   GL2   86  16.904   9.867  10.059 -0.0036 -0.0371  0.1846
    6loPI   C1A   87  16.764  10.311   9.992  0.1074 -0.1071  0.0761
    6loPI   C2A   88  16.751  10.414   9.535 -0.1610  0.1825 -0.3573
    6loPI   C3A   89  16.668  10.434   9.160  0.1618  0.0117  0.4045
    6loPI   C4A   90  16.643  10.299   8.841  0.0079 -0.0701 -0.2815
    6loPI   C5A   91  16.695  10.362   8.405 -0.1417  0.2110 -0.1787
    6loPI   C6A   92  16.992  10.387   7.967 -0.0093 -0.0245 -0.3189
    6loPI   C1B   93  16.833   9.857   9.590 -0.0779  0.0540  0.1509
    6loPI   C2B   94  16.864   9.876   9.114  0.0156 -0.0084  0.0259
    6loPI   C3B   95  16.863   9.886   8.699 -0.1800 -0.1140 -0.1197
    6loPI   C4B   96  17.043   9.916   8.297  0.0869  0.1864 -0.0331
    7loPI    C1   97   6.502  18.033   9.774 -0.0593  0.1577  0.0068
    7loPI    C2   98   6.768  18.183  10.032 -0.1468  0.0119  0.1841
    7loPI    C3   99   6.831  17.825   9.865 -0.1184  0.0807  0.0455
    7loPI   PO4  100   6.464  18.234   9.545 -0.2726  0.0366 -0.1256
    7loPI   GL1  101   6.554  18.268   9.133  0.1368 -0.0678 -0.4247
    7loPI   GL2  102   6.846  18.443   9.048 -0.0291 -0.2162 -0.0957
    7loPI   C1A  103   6.319  18.099   8.895  0.1654 -0.1361  0.1109
    7loPI   C2A  104   5.962  18.192   8.493  0.1869 -0.2949  0.1513
    7loPI   C3A  105   5.687  18.076   8.127 -0.1652 -0.3502  0.0510
    7loPI   C4A  106   5.719  18.058   7.708  0.0037  0.0820  0.0155
    7loPI   C5A  107   5.999  17.945   7.423 -0.0436 -0.0935 -0.5361
    7loPI   C6A  108   6.009  18.249   7.170  0.3152  0.1484 -0.3865
    7loPI   C1B  109   7.148  18.606   8.855 -0.1121 -0.0616  0.2023
    7loPI   C2B  110   7.373  18.821   8.598  0.0878 -0.2359  0.1534
    7loPI   C3B  111   7.356  19.075   8.325  0.1660  0.1196  0.0305
    7loPI   C4B  112   7.279  19.281   7.910  0.0360  0.1606 -0.0541
    8loPI    C1  113  16.715   5.017  10.858  0.2401 -0.2727 -0.0748
    8loPI    C2  114  16.991   4.965  11.144  0.0961 -0.3390  0.0538
    8loPI    C3  115  16.674   5.200  11.212  0.1887 -0.1533 -0.1420
    8loPI   PO4  116  16.883   4.991  10.625 -0.0330 -0.1309  0.2024
    8loPI   GL1  117  17.007   5.254  10.321  0.0267  0.1479  0.0045
    8loPI   GL2  118  16.833   5.456  10.307 -0.0904 -0.1912 -0.4293
    8loPI   C1A  119  16.991   5.215   9.798  0.3059  0.0656  0.0900
    8loPI   C2A  120  17.177   5.253   9.404  0.2587  0.0329 -0.0243
    8loPI   C3A  121  17.226   5.309   8.982  0.0274 -0.4011 -0.4672
    8loPI   C4A  122  17.183   5.174   8.562  0.3402 -0.0975 -0.2463
    8loPI   C5A  123  16.890   4.856   8.277 -0.0178 -0.2454  0.1979
    8loPI   C6A  124  16.664   4.773   7.923  0.0069  0.2627  0.0755
    8loPI   C1B  125  16.833   5.685   9.936  0.2172 -0.1945  0.1696
    8loPI   C2B  126  16.822   5.769   9.475  0.2492  0.2227  0.1436
    8loPI   C3B  127  16.889   5.659   9.063  0.2421 -0.0947 -0.1745
    8loPI   C4B  128  16.916   5.573   8.639 -0.1998 -0.1796 -0.0056
    9loPI    C1  129  13.618   4.810  10.963  0.0446 -0.0466 -0.0507
    9loPI    C2  130  13.906   4.698  11.217 -0.0206  0.1648  0.1197
    9loPI    C3  131  13.576   4.877  11.355 -0.1995 -0.0033 -0.0827
    9loPI   PO4  132  13.737   4.855  10.688 -0.2481 -0.0346 -0.0245
    9loPI   GL1  133  13.626   4.845  10.347  0.0704 -0.3527 -0.0345
    9loPI   GL2  134  13.381   4.655  10.226 -0.1177  0.0950  0.0922
    9loPI   C1A  135  13.762   5.010  10.030  0.0121  0.0697 -0.2020
    9loPI   C2A  136  13.660   5.070   9.671 -0.3611  0.1602  0.0635
    9loPI   C3A  137  13.697   5.017   9.264  0.0739 -0.0436  0.6367
    9loPI   C4A  138  13.772   4.957   8.852 -0.0367 -0.1645 -0.1446
    9loPI   C5A  139  13.742   5.188   8.525 -0.1633  0.1272  0.0017
    9loPI   C6A  140  13.674   5.188   8.046  0.5044  0.1794 -0.0586
    9loPI   C1B  141  13.490   4.618   9.861  0.1542 -0.1474  0.0843
    9loPI   C2B  142  13.463   4.642   9.453  0.0698 -0.0153  0.2134
    9loPI   C3B  143  13.505   4.591   9.035  0.3767 -0.1856 -0.0534
    9loPI   C4B  144  13.470   4.535   8.712 -0.3957 -0.0169  0.0419
   10loPI    C1  145   5.016  15.091  10.274  0.0114 -0.3316 -0.2534
   10loPI    C2  146   4.761  14.804  10.386 -0.1797  0.0010  0.1978
   10loPI    C3  147   5.048  14.925  10.637 -0.1406  0.2471  0.0374
   10loPI   PO4  148   5.069  15.026  10.059  0.0629 -0.0185  0.1428
   10loPI   GL1  149   4.956  14.816   9.731 -0.0192  0.1629  0.0529
   10loPI   GL2  150   4.651  14.984   9.747 -0.1314 -0.1773 -0.3771
   10loPI   C1A  151   5.014  14.845   9.273  0.0617 -0.2980 -0.1355
   10loPI   C2A  152   5.078  14.926   8.802  0.1068 -0.0207 -0.1662
   10loPI   C3A  153   5.054  15.080   8.355  0.3119 -0.2123 -0.0209
   10loPI   C4A  154   5.351  15.199   8.094 -0.2089 -0.0697 -0.0585
   10loPI   C5A  155   5.734  15.236   7.863  0.0513  0.0740  0.0216
   10loPI   C6A  156   5.851  15.255   7.409  0.2815  0.1113 -0.2410
   10loPI   C1B  157   4.503  14.973   9.297  0.0003  0.2046 -0.1382
   10loPI   C2B  158   4.568  15.076   8.873  0.0594  0.1886 -0.5412
   10loPI   C3B  159   4.567  15.130   8.369 -0.0197 -0.0532  0.2347
   10loPI   C4B  160   4.450  15.346   7.986  0.0592  0.3753 -0.1551
   11loPI    C1  161  11.398  16.412  10.493  0.2217  0.2642  0.0224
   11loPI    C2  162  11.702  16.640  10.619  0.2834  0.1766  0.0340
   11loPI    C3  163  11.502  16.412  10.880  0.3203  0.1015 -0.0031
   11loPI   PO4  164  11.184  16.511  10.307  0.1551 -0.3339  0.0218
   11loPI   GL1  165  11.057  16.343   9.962 -0.1569 -0.0151 -0.0337
   11loPI   GL2  166  10.999  16.084   9.798 -0.1448  0.0541  0.0785
   11loPI   C1A  167  11.119  16.649   9.562 -0.2571 -0.0643 -0.2354
   11loPI   C2A  168  11.109  16.765   9.133 -0.1288  0.0514  0.2514
   11loPI   C3A  169  11.159  16.872   8.658  0.2384  0.1513  0.0755
   11loPI   C4A  170  11.407  17.063   8.476  0.0088 -0.0156  0.0174
   11loPI   C5A  171  11.704  17.373   8.439 -0.2623 -0.0072  0.4181
   11loPI   C6A  172  12.003  17.743   8.216 -0.0423  0.1390 -0.0306
   11loPI   C1B  173  11.100  16.117   9.337 -0.0717 -0.0399 -0.2556
   11loPI   C2B  174  11.332  16.194   8.989  0.0263  0.0113 -0.1387
   11loPI   C3B  175  11.300  15.920   8.605 -0.0522  0.1080  0.0778
   11loPI   C4B  176  11.101  15.765   8.162 -0.0453 -0.1358  0.0187
   12loPI    C1  177  11.228   7.116  10.844 -0.1010 -0.3510  0.0169
   12loPI    C2  178  11.052   7.380  11.088  0.0072 -0.0960 -0.1764
   12loPI    C3  179  11.312   7.114  11.235 -0.1210 -0.1124  0.0240
   12loPI   PO4  180  10.991   7.025  10.689 -0.0491  0.0614  0.1615
   12loPI   GL1  181  10.956   6.930  10.321  0.0228  0.0558 -0.3543
   12loPI   GL2  182  10.703   7.078  10.263  0.1848 -0.1477 -0.1862
   12loPI   C1A  183  11.281   6.906   9.980  0.4417  0.2030  0.0165
   12loPI   C2A  184  11.167   6.971   9.554 -0.1822 -0.2488 -0.0702
   12loPI   C3A  185  11.217   7.037   9.184 -0.2742  0.0254 -0.3272
   12loPI   C4A  186  11.299   6.892   8.729 -0.0268  0.1061  0.2095
   12loPI   C5A  187  11.354   6.946   8.283  0.0643 -0.3629  0.1430
   12loPI   C6A  188  11.360   6.991   7.840  0.0490  0.1464  0.1949
   12loPI   C1B  189  10.776   7.017   9.835 -0.1195  0.0569 -0.2787
   12loPI   C2B  190  10.742   7.009   9.327 -0.0421  0.0633 -0.2755
   12loPI   C3B  191  10.796   6.963   8.935  0.1825 -0.2388  0.1891
   12loPI   C4B  192  10.872   7.013   8.494  0.5325 -0.2369 -0.2340
   13loPI    C1  193  16.438   9.751  10.929  0.1033 -0.1742  0.0932
   13loPI    C2  194  16.721  10.031  10.963  0.0301 -0.1058  0.1423
   13loPI    C3  195  16.649   9.782  11.267 -0.0913 -0.0002  0.2014
   13loPI   PO4  196  16.546   9.598  10.699  0.4332 -0.2438 -0.0624
   13loPI   GL1  197  16.736   9.425  10.367  0.0551  0.0877  0.1300
   13loPI   GL2  198  17.034   9.400  10.246 -0.0009  0.0152  0.0510
   13loPI   C1A  199  16.536   9.461   9.927  0.0300  0.0258 -0.3403
   13loPI   C2A  200  16.588   9.428   9.462  0.2348  0.1691  0.2415
   13loPI   C3A  201  16.640   9.297   9.003  0.0773  0.3914 -0.0740
   13loPI   C4A  202  16.509   9.130   8.616  0.4695  0.1298 -0.0225
   13loPI   C5A  203  16.659   8.810   8.186  0.0310  0.2814 -0.1456
   13loPI   C6A  204  16.784   8.818   7.753  0.0485  0.0714  0.3044
   13loPI   C1B  205  17.141   9.322   9.820 -0.0209 -0.2522 -0.3061
   13loPI   C2B  206  17.066   9.319   9.348 -0.0296  0.3735  0.0544
   13loPI   C3B  207  17.110   9.282   8.927 -0.3161 -0.1313  0.0402
   13loPI   C4B  208  16.933   9.420   8.611  0.2204 -0.5333  0.1288
   14loPI    C1  209   5.405  17.148   9.518 -0.0237  0.0204 -0.0082
   14loPI    C2  210   5.211  17.401   9.276 -0.0267 -0.0645 -0.0948
   14loPI    C3  211   5.467  17.542   9.549 -0.0923  0.0373 -0.0855
   14loPI   PO4  212   5.492  16.921   9.339  0.1346 -0.2146 -0.0947
   14loPI   GL1  213   5.636  16.896   8.911 -0.1155  0.1409  0.1785
   14loPI   GL2  214   5.414  17.189   8.885  0.0756  0.0707 -0.0663
   14loPI   C1A  215   5.275  16.759   8.636  0.1307 -0.1471 -0.3482
   14loPI   C2A  216   5.127  16.518   8.271  0.1180 -0.0066 -0.0715
   14loPI   C3A  217   5.206  16.582   7.822  0.0807  0.2390  0.1395
   14loPI   C4A  218   5.162  16.730   7.476 -0.1835 -0.2038  0.1808
   14loPI   C5A  219   5.556  16.675   7.296  0.0273  0.2057 -0.0733
   14loPI   C6A  220   5.901  16.835   7.247 -0.2149 -0.0982 -0.0635
   14loPI   C1B  221   5.509  17.178   8.497 -0.2159 -0.1910  0.1096
   14loPI   C2B  222   5.584  17.474   8.122  0.2688 -0.3241  0.1305
   14loPI   C3B  223   5.567  17.580   7.718 -0.3395  0.1656 -0.0104
   14loPI   C4B  224   5.253  17.824   7.342  0.0581  0.2218 -0.0473
   15loPI    C1  225  10.999  11.766  10.385 -0.1194 -0.2168 -0.1070
   15loPI    C2  226  10.780  11.641  10.696 -0.0495  0.0396  0.0487
   15loPI    C3  227  10.801  12.031  10.610  0.2999  0.0135  0.0013
   15loPI   PO4  228  10.892  11.586  10.176 -0.0985  0.2299  0.0141
   15loPI   GL1  229  10.947  11.369   9.725  0.0356  0.0332 -0.0587
   15loPI   GL2  230  11.126  11.561   9.547 -0.2791 -0.2484 -0.3998
   15loPI   C1A  231  10.943  11.174   9.289 -0.2839  0.3850 -0.0699
   15loPI   C2A  232  10.992  11.237   8.876 -0.1139  0.0351  0.0224
   15loPI   C3A  233  10.728  11.417   8.591  0.2734  0.1482  0.0825
   15loPI   C4A  234  10.655  11.783   8.298 -0.0275  0.1719  0.0447
   15loPI   C5A  235  10.370  12.073   7.996  0.0261 -0.1181  0.0552
   15loPI   C6A  236  10.161  12.398   7.891 -0.0661  0.1654 -0.0091
   15loPI   C1B  237  11.215  11.754   9.169 -0.0611  0.2122 -0.0949
   15loPI   C2B  238  10.977  11.874   8.801  0.1064  0.1437  0.0354
   15loPI   C3B  239  10.575  11.927   8.732 -0.0565 -0.0865  0.0675
   15loPI   C4B  240  10.397  12.183   8.471 -0.0096  0.0246 -0.1852
   16loPI    C1  241   9.252  13.986  10.159  0.0220 -0.0694 -0.0046
   16loPI    C2  242   9.553  14.222  10.276 -0.0114 -0.0371  0.0167
   16loPI    C3  243   9.396  13.957  10.531 -0.0637  0.0114  0.0352
   16loPI   PO4  244   9.340  13.871   9.988 -0.1376 -0.0688  0.0559
   16loPI   GL1  245   9.716  13.970   9.733 -0.0437  0.0512 -0.0020
   16loPI   GL2  246   9.601  14.184   9.455 -0.0226 -0.3095 -0.2777
   16loPI   C1A  247   9.846  13.743   9.321  0.3452 -0.1509 -0.0129
   16loPI   C2A  248   9.678  13.669   8.933  0.2125 -0.0343 -0.0348
   16loPI   C3A  249   9.600  13.610   8.524  0.2045 -0.0660  0.5323
   16loPI   C4A  250   9.413  13.669   8.103 -0.1304 -0.0721 -0.0610
   16loPI   C5A  251   9.545  13.871   7.666  0.2188  0.0827  0.1204
   16loPI   C6A  252   9.734  14.284   7.425 -0.0573 -0.2506  0.0426
   16loPI   C1B  253   9.748  14.165   9.041  0.1731 -0.0548 -0.4278
   16loPI   C2B  254  10.046  13.899   8.752  0.1956  0.1054  0.0321
   16loPI   C3B  255  10.580  13.769   8.850  0.0676 -0.1831  0.1288
   16loPI   C4B  256  10.737  13.345   8.971  0.1452 -0.0994  0.1984
   17loPI    C1  257  13.897  16.430  10.525  0.3187  0.0138 -0.0724
   17loPI    C2  258  13.578  16.256  10.358  0.5056 -0.0657 -0.3534
   17loPI    C3  259  13.691  16.152  10.727  0.0171  0.1987 -0.1194
   17loPI   PO4  260  14.053  16.497  10.313  0.2042  0.2867  0.1058
   17loPI   GL1  261  14.193  16.499   9.826  0.1569  0.0259 -0.1203
   17loPI   GL2  262  13.996  16.784   9.765 -0.0502 -0.2081  0.0739
   17loPI   C1A  263  14.486  16.625   9.587 -0.0504 -0.0417  0.3763
   17loPI   C2A  264  14.445  16.716   9.151 -0.1841  0.1761  0.2554
   17loPI   C3A  265  14.400  16.798   8.667  0.3352 -0.0300  0.1603
   17loPI   C4A  266  14.536  16.740   8.271  0.4188  0.0338  0.0375
   17loPI   C5A  267  14.922  16.705   8.136 -0.3351  0.1340 -0.1941
   17loPI   C6A  268  15.396  16.487   8.204 -0.0193 -0.2637  0.0125
   17loPI   C1B  269  14.020  16.589   9.356 -0.0930 -0.4137  0.0555
   17loPI   C2B  270  13.957  16.546   8.978 -0.0348  0.1973  0.2659
   17loPI   C3B  271  14.046  16.433   8.504  0.2496 -0.0329  0.2265
   17loPI   C4B  272  13.830  16.293   8.146  0.2650  0.2305 -0.3744
   18loPI    C1  273   7.821  14.708  10.209  0.1328  0.0663  0.1381
   18loPI    C2  274   7.918  14.337  10.322 -0.1081 -0.0096  0.1011
   18loPI    C3  275   7.916  14.634  10.590  0.3024  0.0126  0.0863
   18loPI   PO4  276   7.890  14.723   9.969 -0.1941 -0.1312  0.0976
   18loPI   GL1  277   7.588  14.534   9.626 -0.0967 -0.1192 -0.1973
   18loPI   GL2  278   7.792  14.881   9.489 -0.0344  0.1010  0.0234
   18loPI   C1A  279   7.417  14.456   9.260  0.3489  0.0742  0.0295
   18loPI   C2A  280   7.423  14.401   8.819  0.1000  0.1208  0.1997
   18loPI   C3A  281   7.594  14.497   8.355  0.1615 -0.3061  0.1836
   18loPI   C4A  282   7.824  14.520   7.860 -0.0286  0.0624  0.2857
   18loPI   C5A  283   8.012  14.379   7.473 -0.1467 -0.1099 -0.2581
   18loPI   C6A  284   8.315  14.401   7.175 -0.1392 -0.1125 -0.1306
   18loPI   C1B  285   7.856  14.728   9.101 -0.0983 -0.2287  0.4075
   18loPI   C2B  286   7.936  14.787   8.689 -0.0159  0.1918 -0.2476
   18loPI   C3B  287   8.072  14.673   8.331  0.3103 -0.1515  0.1731
   18loPI   C4B  288   8.323  14.586   8.092  0.1160  0.0521 -0.3046
   19loPI    C1  289   6.886  18.489   9.621  0.0728  0.2673 -0.1865
   19loPI    C2  290   6.804  18.812   9.400 -0.2716  0.2895 -0.0340
   19loPI    C3  291   6.619  18.758   9.751 -0.0100  0.0649  0.0734
   19loPI   PO4  292   7.104  18.425   9.671 -0.0069  0.0450  0.1261
   19loPI   GL1  293   7.442  18.178   9.426 -0.3142  0.1486 -0.1926
   19loPI   GL2  294   7.833  18.256   9.433  0.0084 -0.3246 -0.1792
   19loPI   C1A  295   7.470  18.133   8.988  0.0236  0.0022  0.1141
   19loPI   C2A  296   7.299  17.976   8.534 -0.0710 -0.0765  0.0521
   19loPI   C3A  297   7.126  17.995   8.108 -0.0649  0.0849 -0.0155
   19loPI   C4A  298   7.054  18.220   7.845  0.1346  0.1708  0.3686
   19loPI   C5A  299   6.645  18.432   7.991 -0.0249 -0.0692 -0.0270
   19loPI   C6A  300   6.407  18.755   7.912  0.4154 -0.3781  0.0382
   19loPI   C1B  301   7.990  18.207   9.013  0.1245  0.0465  0.1442
   19loPI   C2B  302   8.050  18.042   8.571 -0.1342  0.2563  0.1781
   19loPI   C3B  303   8.094  17.906   8.192  0.0887  0.0009  0.0114
   19loPI   C4B  304   8.278  17.834   7.845  0.2614 -0.1944  0.1147
   20loPI    C1  305   9.783   1.751  10.157 -0.3343 -0.2958  0.1717
   20loPI    C2  306   9.624   1.881  10.501  0.0492 -0.1239  0.2893
   20loPI    C3  307   9.993   1.725  10.497  0.1511  0.1139 -0.0834
   20loPI   PO4  308   9.534   1.715   9.968  0.1171  0.3053 -0.3589
   20loPI   GL1  309   9.120   1.895   9.775  0.1284 -0.2836  0.0647
   20loPI   GL2  310   8.895   2.168   9.652  0.0323  0.2369  0.2159
   20loPI   C1A  311   9.286   1.863   9.447 -0.1027  0.1670 -0.0335
   20loPI   C2A  312   9.294   1.745   9.019  0.1481 -0.0829  0.2019
   20loPI   C3A  313   9.369   1.639   8.615 -0.2742  0.1515 -0.1293
   20loPI   C4A  314   9.604   1.632   8.275 -0.4083  0.2016  0.1233
   20loPI   C5A  315   9.904   1.368   8.172 -0.0693 -0.3947  0.1939
   20loPI   C6A  316  10.258   1.311   7.851 -0.4545 -0.0332  0.1996
   20loPI   C1B  317   9.039   2.249   9.268 -0.0949 -0.1572  0.4297
   20loPI   C2B  318   9.155   2.228   8.832  0.1175 -0.0686  0.0867
   20loPI   C3B  319   9.267   2.144   8.388  0.1211 -0.1970  0.0924
   20loPI   C4B  320   9.318   2.004   8.003 -0.2318 -0.1032  0.1131
   21loPI    C1  321   4.545   3.808  10.649 -0.1815 -0.1640 -0.0332
   21loPI    C2  322   4.714   3.639  10.329  0.0208  0.1336 -0.0871
   21loPI    C3  323   4.927   3.693  10.663 -0.0996  0.1042 -0.0047
   21loPI   PO4  324   4.334   3.994  10.494  0.0066  0.3166 -0.1401
   21loPI   GL1  325   4.213   3.949  10.108 -0.0686 -0.0492 -0.1492
   21loPI   GL2  326   4.412   4.152  10.027 -0.0473 -0.0111  0.0551
   21loPI   C1A  327   3.993   4.066   9.699  0.2160  0.1863  0.3882
   21loPI   C2A  328   4.034   4.035   9.346  0.0468  0.0781 -0.1396
   21loPI   C3A  329   4.060   3.918   8.944 -0.0961 -0.4540  0.0185
   21loPI   C4A  330   4.092   3.922   8.546  0.0453 -0.0679 -0.1002
   21loPI   C5A  331   4.212   4.007   8.133  0.1720 -0.0604 -0.1203
   21loPI   C6A  332   4.474   3.957   7.765  0.0209  0.0658  0.1956
   21loPI   C1B  333   4.521   4.156   9.568 -0.5390  0.3073  0.0707
   21loPI   C2B  334   4.476   4.148   9.130 -0.2536 -0.0224  0.1502
   21loPI   C3B  335   4.479   4.159   8.722 -0.0738  0.0537  0.0964
   21loPI   C4B  336   4.580   4.196   8.405 -0.1078 -0.1357 -0.2764
   22loPI    C1  337   6.891   6.630  10.346  0.1570  0.1286 -0.0824
   22loPI    C2  338   7.182   6.657  10.619 -0.0066  0.0243  0.1052
   22loPI    C3  339   6.896   6.379  10.658 -0.0426  0.0209 -0.1634
   22loPI   PO4  340   6.807   6.848  10.245  0.0614 -0.1261 -0.2395
   22loPI   GL1  341   6.971   6.885   9.886 -0.0332  0.2599  0.2891
   22loPI   GL2  342   7.008   7.241   9.920  0.1640  0.0699  0.0461
   22loPI   C1A  343   6.900   6.905   9.440 -0.3484  0.1979  0.2904
   22loPI   C2A  344   7.013   6.958   9.024  0.1517 -0.2468 -0.1011
   22loPI   C3A  345   7.091   6.971   8.582 -0.0105  0.1757 -0.2888
   22loPI   C4A  346   7.457   6.934   8.349  0.2024  0.4129  0.0755
   22loPI   C5A  347   7.692   7.044   8.046 -0.0480 -0.0192 -0.3476
   22loPI   C6A  348   7.977   6.979   7.791  0.2527  0.2143 -0.0499
   22loPI   C1B  349   7.205   7.320   9.545  0.0890  0.0926 -0.1037
   22loPI   C2B  350   6.915   7.357   9.190  0.0207 -0.0425 -0.3031
   22loPI   C3B  351   6.725   7.285   8.762  0.2220 -0.2417 -0.0573
   22loPI   C4B  352   6.536   7.100   8.481  0.0425  0.4602  0.3894
   23loPI    C1  353  16.669  15.002  10.560 -0.0507 -0.0853  0.2940
   23loPI    C2  354  16.315  15.187  10.551 -0.0548 -0.0970  0.2133
   23loPI    C3  355  16.574  15.266  10.845 -0.0207  0.1045  0.1311
   23loPI   PO4  356  16.845  15.041  10.340 -0.3496  0.0025  0.0594
   23loPI   GL1  357  17.051  14.894  10.057 -0.1521  0.1208 -0.2591
   23loPI   GL2  358  17.282  14.762  10.019  0.2348 -0.3469  0.0409
   23loPI   C1A  359  17.048  14.762   9.529 -0.2062  0.0569  0.0304
   23loPI   C2A  360  17.066  14.717   9.110 -0.4222  0.0385  0.0805
   23loPI   C3A  361  17.105  14.698   8.680 -0.0931 -0.3886 -0.0207
   23loPI   C4A  362  16.907  14.469   8.359  0.1417  0.0842 -0.1001
   23loPI   C5A  363  16.598  14.281   8.117  0.2140  0.0320 -0.1484
   23loPI   C6A  364  16.318  14.297   7.792  0.1639  0.1034 -0.0124
   23loPI   C1B  365  17.452  14.580   9.701  0.1026 -0.0655 -0.2296
   23loPI   C2B  366  17.502  14.553   9.317 -0.2786 -0.0282 -0.0904
   23loPI   C3B  367  17.541  14.599   8.926  0.2672 -0.3228 -0.0857
   23loPI   C4B  368  17.525  14.539   8.519 -0.2316  0.0084 -0.1713
   24loPI    C1  369   0.123  10.823  11.113 -0.1201  0.0518 -0.3189
   24loPI    C2  370   0.480  10.732  10.957 -0.0582  0.1392 -0.2293
   24loPI    C3  371   0.451  11.016  11.237 -0.1649 -0.0334 -0.0622
   24loPI   PO4  372  -0.052  10.924  10.911  0.2057  0.3381 -0.0227
   24loPI   GL1  373  -0.264  11.014  10.496 -0.4531 -0.0939  0.0101
   24loPI   GL2  374  -0.218  11.325  10.560  0.1882 -0.2485  0.0624
   24loPI   C1A  375  -0.387  11.037  10.129  0.1541  0.0189 -0.0438
   24loPI   C2A  376  -0.305  11.039   9.693  0.1407 -0.1511 -0.1326
   24loPI   C3A  377  -0.197  11.098   9.299  0.0493  0.0174 -0.0452
   24loPI   C4A  378  -0.305  11.171   8.897 -0.0415 -0.1483 -0.1378
   24loPI   C5A  379  -0.098  11.257   8.510 -0.0038  0.0167  0.0119
   24loPI   C6A  380   0.182  11.581   8.340 -0.0083  0.2025  0.1018
   24loPI   C1B  381  -0.028  11.346  10.067 -0.1758 -0.1080 -0.1817
   24loPI   C2B  382   0.084  11.477   9.627  0.1573 -0.1906 -0.0301
   24loPI   C3B  383   0.235  11.417   9.283 -0.0170 -0.1983  0.2339
   24loPI   C4B  384   0.107  11.529   8.849 -0.1235 -0.0339 -0.0468
   25loPI    C1  385   2.446   2.296  10.534 -0.0822  0.1599 -0.0637
   25loPI    C2  386   2.538   2.654  10.686  0.1668  0.1254 -0.1281
   25loPI    C3  387   2.391   2.368  10.924 -0.1828  0.3171 -0.1059
   25loPI   PO4  388   2.705   2.342  10.330 -0.1194  0.1296  0.0722
   25loPI   GL1  389   2.959   2.007   9.988 -0.0061  0.0882  0.1176
   25loPI   GL2  390   3.053   1.834   9.958 -0.1269  0.0072  0.0565
   25loPI   C1A  391   2.750   2.087   9.512 -0.1260  0.1885 -0.6917
   25loPI   C2A  392   2.717   2.020   9.123 -0.1201 -0.0900 -0.5252
   25loPI   C3A  393   2.781   2.100   8.609 -0.0522 -0.0328 -0.0830
   25loPI   C4A  394   2.753   2.073   8.230  0.2431  0.1891  0.1239
   25loPI   C5A  395   2.791   2.100   7.806 -0.3237 -0.1108  0.2204
   25loPI   C6A  396   2.729   2.013   7.304 -0.0469  0.2607  0.1228
   25loPI   C1B  397   3.127   1.770   9.530  0.0184  0.3209 -0.2548
   25loPI   C2B  398   3.087   1.707   9.172 -0.3920  0.0596 -0.0360
   25loPI   C3B  399   3.155   1.795   8.742 -0.1343  0.0303  0.0013
   25loPI   C4B  400   3.209   1.836   8.341 -0.2141  0.2031 -0.0221
   26loPI    C1  401  14.158   2.689  11.037  0.0474 -0.3771  0.1099
   26loPI    C2  402  14.554   2.631  11.033  0.1400  0.2070 -0.0072
   26loPI    C3  403  14.362   2.675  11.381  0.1607 -0.1575  0.0536
   26loPI   PO4  404  14.024   2.533  10.774  0.0650 -0.1110  0.1617
   26loPI   GL1  405  13.838   2.616  10.420  0.2304  0.3502  0.1793
   26loPI   GL2  406  13.776   3.000  10.426  0.1408 -0.0248 -0.0271
   26loPI   C1A  407  14.083   2.763  10.029  0.0999  0.2141 -0.0922
   26loPI   C2A  408  14.327   2.743   9.597  0.0364  0.3522 -0.1075
   26loPI   C3A  409  14.364   2.833   9.122  0.1350 -0.2126 -0.0206
   26loPI   C4A  410  14.230   2.676   8.737  0.0622 -0.1014 -0.1205
   26loPI   C5A  411  14.300   2.450   8.323  0.3400 -0.2743  0.0018
   26loPI   C6A  412  14.540   2.677   7.968  0.2635  0.1134  0.3662
   26loPI   C1B  413  13.747   3.160   9.934  0.0721 -0.0425  0.0721
   26loPI   C2B  414  13.579   3.213   9.520 -0.2928 -0.0363 -0.1334
   26loPI   C3B  415  13.498   3.284   9.045 -0.0021 -0.1444  0.0528
   26loPI   C4B  416  13.546   3.265   8.602 -0.0891 -0.0882  0.1018
   27loPI    C1  417  10.316  13.521  10.286 -0.0256 -0.2238  0.2075
   27loPI    C2  418  10.437  13.202  10.494  0.1334 -0.1836  0.1782
   27loPI    C3  419  10.355  13.544  10.683 -0.0911 -0.2567  0.2160
   27loPI   PO4  420  10.492  13.534  10.133  0.0884 -0.2551 -0.0745
   27loPI   GL1  421  10.720  13.433   9.766  0.2490 -0.2041  0.0494
   27loPI   GL2  422  10.498  13.172   9.775 -0.1387 -0.2337  0.0600
   27loPI   C1A  423  10.527  13.560   9.406  0.3910 -0.0896  0.1210
   27loPI   C2A  424  10.226  13.538   9.096 -0.1060  0.1161  0.0028
   27loPI   C3A  425  10.198  13.361   8.673 -0.2565 -0.0876  0.0563
   27loPI   C4A  426  10.026  13.451   8.228  0.2325 -0.1717  0.1210
   27loPI   C5A  427   9.917  13.367   7.811 -0.1337 -0.1014 -0.0673
   27loPI   C6A  428   9.887  13.098   7.520  0.2518 -0.1597 -0.1444
   27loPI   C1B  429  10.778  12.958   9.331 -0.0668 -0.2326 -0.1639
   27loPI   C2B  430  10.902  12.823   8.953 -0.1633 -0.1250  0.1425
   27loPI   C3B  431  10.832  12.988   8.530  0.1494 -0.0149  0.1019
   27loPI   C4B  432  11.109  13.180   8.192 -0.0238 -0.0485  0.1838
   28loPI    C1  433  15.180  15.923  10.699 -0.1056  0.0967 -0.1000
   28loPI    C2  434  15.310  16.294  10.778 -0.0830  0.0352  0.1610
   28loPI    C3  435  15.085  16.099  11.046 -0.1260 -0.1264  0.0093
   28loPI   PO4  436  15.206  15.992  10.371 -0.2434  0.0909  0.1637
   28loPI   GL1  437  15.020  15.822  10.077 -0.0716 -0.0946 -0.1573
   28loPI   GL2  438  15.087  15.457   9.951  0.0089  0.1271 -0.2344
   28loPI   C1A  439  15.200  15.929   9.695 -0.1942 -0.2839  0.0853
   28loPI   C2A  440  15.341  15.591   9.423 -0.2711  0.0682  0.0840
   28loPI   C3A  441  15.305  15.607   9.003 -0.1484  0.0499 -0.2872
   28loPI   C4A  442  15.150  15.577   8.580  0.3713  0.2349 -0.1694
   28loPI   C5A  443  15.059  15.669   8.161 -0.3123  0.1002 -0.1910
   28loPI   C6A  444  14.819  15.526   7.829  0.0730 -0.0610  0.0776
   28loPI   C1B  445  14.902  15.436   9.616 -0.1221  0.1549 -0.4062
   28loPI   C2B  446  14.815  15.325   9.184  0.2219 -0.1567  0.2768
   28loPI   C3B  447  14.742  15.300   8.792 -0.0606 -0.0881 -0.0680
   28loPI   C4B  448  14.704  14.905   8.613  0.2235  0.0767  0.0843
   29loPI    C1  449  11.982   8.151  10.962 -0.1751 -0.1475  0.2145
   29loPI    C2  450  11.701   8.422  11.050  0.0047  0.1199 -0.0154
   29loPI    C3  451  11.901   8.239  11.344 -0.0467  0.3140  0.1425
   29loPI   PO4  452  12.163   8.277  10.822 -0.1597 -0.0089  0.1446
   29loPI   GL1  453  12.386   8.085  10.499 -0.1973 -0.0884 -0.1114
   29loPI   GL2  454  12.403   8.384  10.350 -0.0225 -0.2284 -0.2206
   29loPI   C1A  455  12.369   7.948  10.156  0.0053  0.0444 -0.3001
   29loPI   C2A  456  12.373   7.856   9.723 -0.4054  0.1598  0.0099
   29loPI   C3A  457  12.326   7.817   9.191  0.0434  0.0731  0.1144
   29loPI   C4A  458  12.518   7.746   8.746  0.2386  0.0187 -0.0413
   29loPI   C5A  459  12.453   7.905   8.415  0.2095 -0.0169  0.0876
   29loPI   C6A  460  12.457   8.160   7.965 -0.2271 -0.0512  0.2204
   29loPI   C1B  461  12.682   8.348   9.984 -0.2495 -0.0790 -0.0411
   29loPI   C2B  462  12.739   8.288   9.568 -0.0955 -0.0691  0.0184
   29loPI   C3B  463  12.755   8.164   9.150  0.0414  0.2031  0.0338
   29loPI   C4B  464  12.854   8.132   8.713  0.1802  0.2514  0.0836
   30loPI    C1  465  14.411   6.641  11.086  0.1725  0.2801  0.0370
   30loPI    C2  466  14.672   6.403  11.273 -0.0139  0.0595  0.0202
   30loPI    C3  467  14.467   6.676  11.481  0.2774  0.2814  0.0223
   30loPI   PO4  468  14.412   6.459  10.840 -0.2868 -0.1231 -0.0385
   30loPI   GL1  469  14.494   6.332  10.429  0.0786 -0.1215  0.3998
   30loPI   GL2  470  14.163   6.480  10.434 -0.2761 -0.3011  0.0927
   30loPI   C1A  471  14.601   6.473  10.032 -0.1768  0.1943  0.2645
   30loPI   C2A  472  14.569   6.418   9.614 -0.0539  0.0564 -0.0103
   30loPI   C3A  473  14.658   6.306   9.192 -0.0537 -0.0748 -0.0764
   30loPI   C4A  474  14.618   6.238   8.848 -0.1999 -0.0109 -0.1136
   30loPI   C5A  475  14.630   6.295   8.386 -0.0908 -0.0043 -0.1110
   30loPI   C6A  476  14.568   6.120   7.993  0.0637  0.0515  0.3151
   30loPI   C1B  477  14.015   6.431   9.953  0.0320  0.0326 -0.0124
   30loPI   C2B  478  14.122   6.366   9.452  0.2056  0.1272  0.2762
   30loPI   C3B  479  14.154   6.259   8.992 -0.0068 -0.1399 -0.0451
   30loPI   C4B  480  14.161   6.393   8.659 -0.0469 -0.0856 -0.1164
   31loPI    C1  481  15.994  17.774  10.446 -0.0068 -0.0898 -0.0425
   31loPI    C2  482  16.214  17.522  10.664  0.1329  0.0554 -0.0136
   31loPI    C3  483  15.940  17.753  10.841  0.0771 -0.0010 -0.0259
   31loPI   PO4  484  16.022  17.805  10.240  0.0894  0.0786  0.1120
   31loPI   GL1  485  16.211  17.563   9.872 -0.1509  0.0057  0.3855
   31loPI   GL2  486  16.076  17.344   9.808 -0.0251 -0.1425 -0.0512
   31loPI   C1A  487  15.993  17.731   9.495 -0.1196 -0.2209 -0.0607
   31loPI   C2A  488  16.021  17.852   9.117  0.0551  0.2114 -0.0514
   31loPI   C3A  489  15.970  18.183   8.853 -0.0787  0.1915 -0.0263
   31loPI   C4A  490  15.942  18.338   8.494  0.0856 -0.1692 -0.1016
   31loPI   C5A  491  16.225  18.622   8.327  0.1249 -0.0159 -0.1441
   31loPI   C6A  492  16.148  19.022   8.105 -0.1970 -0.2252 -0.0867
   31loPI   C1B  493  16.135  17.278   9.442 -0.0617 -0.1803  0.0429
   31loPI   C2B  494  16.121  17.269   9.044 -0.1268 -0.1522 -0.0331
   31loPI   C3B  495  16.065  17.498   8.711  0.1394  0.0782 -0.2211
   31loPI   C4B  496  15.992  17.856   8.497 -0.0271 -0.2072  0.1312
   32loPI    C1  497   5.390   6.523  10.732 -0.1842 -0.1753  0.0186
   32loPI    C2  498   5.379   6.762  11.053 -0.0677 -0.1212 -0.0174
   32loPI    C3  499   5.431   6.368  11.099  0.0942 -0.0959  0.0232
   32loPI   PO4  500   5.212   6.525  10.556  0.2986 -0.0013 -0.1497
   32loPI   GL1  501   5.144   6.570  10.156 -0.2132 -0.0529 -0.4238
   32loPI   GL2  502   4.926   6.808   9.963  0.2106 -0.0992  0.4037
   32loPI   C1A  503   5.094   6.515   9.610 -0.1622 -0.0614  0.0020
   32loPI   C2A  504   5.262   6.352   9.289 -0.1266 -0.1915 -0.0320
   32loPI   C3A  505   5.221   5.991   9.026  0.3935 -0.0172 -0.0060
   32loPI   C4A  506   5.199   5.903   8.653  0.1913  0.0696 -0.1007
   32loPI   C5A  507   5.095   5.902   8.205  0.1601 -0.1804 -0.0839
   32loPI   C6A  508   4.887   5.785   7.914 -0.3119 -0.0035  0.3156
   32loPI   C1B  509   4.785   7.200   9.635  0.0448  0.0045  0.0015
   32loPI   C2B  510   4.689   7.080   9.215  0.1615 -0.1526 -0.2071
   32loPI   C3B  511   4.757   6.841   8.904  0.2294 -0.1570  0.1336
   32loPI   C4B  512   4.811   6.678   8.479  0.2267  0.0096  0.3969
   33loPI    C1  513   4.588  14.279  10.255 -0.2253  0.1099  0.0523
   33loPI    C2  514   4.615  14.382  10.640 -0.2605 -0.1315  0.1208
   33loPI    C3  515   4.377  14.080  10.530  0.0154 -0.2925 -0.0453
   33loPI   PO4  516   4.790  14.364   9.982 -0.2861 -0.1960 -0.1981
   33loPI   GL1  517   4.606  14.511   9.588 -0.3490 -0.0582  0.1836
   33loPI   GL2  518   4.707  14.211   9.551 -0.2841  0.1662  0.5240
   33loPI   C1A  519   4.673  14.546   9.123  0.2388 -0.0681 -0.0504
   33loPI   C2A  520   4.633  14.658   8.633  0.3071 -0.1546 -0.1850
   33loPI   C3A  521   4.781  14.662   8.285 -0.1950  0.0771 -0.2276
   33loPI   C4A  522   4.835  14.997   7.935  0.2083 -0.2185  0.1505
   33loPI   C5A  523   4.897  15.445   7.838 -0.1671 -0.1640 -0.1050
   33loPI   C6A  524   4.566  15.779   7.873  0.0799 -0.0192 -0.2503
   33loPI   C1B  525   4.774  14.084   9.174  0.1698 -0.3613 -0.0103
   33loPI   C2B  526   4.765  14.127   8.682  0.0296  0.0974 -0.4857
   33loPI   C3B  527   4.769  14.111   8.295  0.1983  0.1464 -0.0839
   33loPI   C4B  528   4.860  14.019   7.908  0.2998 -0.1260 -0.1165
   34loPI    C1  529   4.867  17.248   9.630  0.0660  0.0422  0.2206
   34loPI    C2  530   5.138  17.346   9.908  0.0203  0.3568  0.1580
   34loPI    C3  531   4.763  17.483   9.937 -0.0556  0.1673  0.0848
   34loPI   PO4  532   4.972  16.926   9.596 -0.0721  0.1005 -0.0475
   34loPI   GL1  533   5.034  16.837   9.127  0.1741 -0.2376 -0.2660
   34loPI   GL2  534   5.052  16.516   9.242  0.0800 -0.0853 -0.2138
   34loPI   C1A  535   4.885  17.039   8.669  0.1460  0.1314  0.3440
   34loPI   C2A  536   4.939  16.969   8.277 -0.0266  0.1071 -0.0231
   34loPI   C3A  537   4.689  17.057   7.935 -0.0345  0.1353  0.0019
   34loPI   C4A  538   4.839  17.199   7.498  0.0311  0.0788  0.0099
   34loPI   C5A  539   5.275  17.176   7.293 -0.0219 -0.0611 -0.0828
   34loPI   C6A  540   5.603  16.988   7.628  0.0700  0.0421  0.2167
   34loPI   C1B  541   5.171  16.324   8.912 -0.1282  0.0272  0.0035
   34loPI   C2B  542   5.424  16.203   8.535  0.2949 -0.2551  0.0927
   34loPI   C3B  543   5.460  16.155   8.067 -0.2673 -0.0737 -0.0100
   34loPI   C4B  544   5.675  16.478   7.704  0.2080  0.2057  0.0781
   35loPI    C1  545  14.414   5.463  10.660 -0.0991  0.2303  0.0119
   35loPI    C2  546  14.639   5.400  10.985 -0.1134  0.0581 -0.0106
   35loPI    C3  547  14.250   5.485  11.024 -0.1347 -0.0502  0.0147
   35loPI   PO4  548  14.381   5.287  10.501 -0.0099  0.1142 -0.0830
   35loPI   GL1  549  14.569   5.124  10.169 -0.1322 -0.1501 -0.1607
   35loPI   GL2  550  14.479   5.409   9.937  0.0855  0.1513  0.0722
   35loPI   C1A  551  14.761   4.960   9.779 -0.0019  0.0306  0.2145
   35loPI   C2A  552  14.685   4.893   9.348  0.1016 -0.1118 -0.0368
   35loPI   C3A  553  14.813   4.772   8.959 -0.0818 -0.1314 -0.0459
   35loPI   C4A  554  14.736   4.864   8.550 -0.2398 -0.1379  0.1486
   35loPI   C5A  555  14.711   4.578   8.244  0.3903 -0.2262  0.5448
   35loPI   C6A  556  14.944   4.388   7.837 -0.1334  0.0074 -0.2837
   35loPI   C1B  557  14.520   5.363   9.546  0.2055 -0.2415 -0.0130
   35loPI   C2B  558  14.564   5.328   9.186 -0.0260 -0.0789  0.1694
   35loPI   C3B  559  14.597   5.372   8.811 -0.0811 -0.0688 -0.1283
   35loPI   C4B  560  14.600   5.339   8.349  0.1392  0.2844 -0.3217
   36loPI    C1  561   2.474  15.562  10.352  0.0025  0.1125 -0.0133
   36loPI    C2  562   2.268  15.548  10.009 -0.1111 -0.0662  0.0607
   36loPI    C3  563   2.106  15.719  10.333 -0.1870 -0.2979  0.1469
   36loPI   PO4  564   2.729  15.568  10.193  0.0436  0.0617 -0.0357
   36loPI   GL1  565   2.761  15.366   9.802 -0.0878 -0.0501  0.0620
   36loPI   GL2  566   2.527  15.167   9.846 -0.0151 -0.0968 -0.1719
   36loPI   C1A  567   2.723  15.477   9.324 -0.1314 -0.1776  0.3678
   36loPI   C2A  568   2.676  15.305   8.742 -0.3743 -0.0003 -0.0928
   36loPI   C3A  569   2.754  15.221   8.306 -0.4030 -0.2424  0.2019
   36loPI   C4A  570   2.604  15.052   7.852 -0.1207 -0.3463  0.1806
   36loPI   C5A  571   2.788  15.065   7.556 -0.0399  0.0525 -0.1203
   36loPI   C6A  572   3.165  15.006   7.352 -0.0389 -0.1893 -0.1913
   36loPI   C1B  573   2.400  15.057   9.382  0.0443  0.1198 -0.3407
   36loPI   C2B  574   2.378  15.003   8.947 -0.0203  0.2010  0.1782
   36loPI   C3B  575   2.136  14.931   8.586 -0.0613 -0.1449  0.0942
   36loPI   C4B  576   1.835  14.677   8.424 -0.0041 -0.2980  0.0058
   37loPI    C1  577   1.370  16.014  10.887 -0.0617  0.0772 -0.0804
   37loPI    C2  578   1.130  15.984  11.206 -0.2379  0.0039 -0.2181
   37loPI    C3  579   1.506  15.848  11.225 -0.2504 -0.0092 -0.0456
   37loPI   PO4  580   1.290  16.097  10.743  0.1911 -0.1087 -0.1034
   37loPI   GL1  581   1.196  16.212  10.219  0.1094 -0.0727  0.0295
   37loPI   GL2  582   1.203  15.977  10.113 -0.1772  0.3189 -0.2363
   37loPI   C1A  583   1.265  16.527   9.763 -0.0968  0.2131 -0.4377
   37loPI   C2A  584   1.247  16.421   9.358  0.1527 -0.2361 -0.0842
   37loPI   C3A  585   1.256  16.337   8.888  0.0818 -0.2996 -0.2543
   37loPI   C4A  586   1.182  16.395   8.501  0.1884  0.0661 -0.2252
   37loPI   C5A  587   1.142  16.432   8.142 -0.1628 -0.1684  0.1123
   37loPI   C6A  588   1.091  16.584   7.788  0.1725 -0.0659 -0.0319
   37loPI   C1B  589   1.246  15.917   9.593  0.1921  0.1530  0.0207
   37loPI   C2B  590   1.365  15.877   9.196 -0.1927  0.0008 -0.0385
   37loPI   C3B  591   1.270  15.866   8.761 -0.2817  0.0095 -0.1817
   37loPI   C4B  592   1.138  15.919   8.285  0.2168 -0.0821 -0.3779
   38loPI    C1  593  15.235  13.375  10.780  0.0951  0.3996  0.0793
   38loPI    C2  594  15.100  13.461  11.146 -0.1752 -0.0140  0.0830
   38loPI    C3  595  15.399  13.199  11.099 -0.0930  0.0923  0.0112
   38loPI   PO4  596  14.976  13.297  10.636  0.1974 -0.1397  0.2932
   38loPI   GL1  597  14.976  13.088  10.225  0.1786  0.0658 -0.0971
   38loPI   GL2  598  15.055  13.439  10.159  0.1567  0.2212 -0.2067
   38loPI   C1A  599  15.011  13.028   9.848  0.1161  0.1439 -0.1352
   38loPI   C2A  600  14.992  12.745   9.427 -0.0813 -0.1059 -0.0919
   38loPI   C3A  601  14.986  12.645   8.965  0.0269  0.0847  0.0707
   38loPI   C4A  602  14.895  12.925   8.510  0.2536  0.1075 -0.0987
   38loPI   C5A  603  14.859  12.913   8.074  0.1068 -0.0803  0.0923
   38loPI   C6A  604  15.018  12.615   7.837 -0.0352  0.0626 -0.0881
   38loPI   C1B  605  15.439  13.345   9.967 -0.0594 -0.2959  0.0895
   38loPI   C2B  606  15.440  13.121   9.616  0.2643 -0.2584 -0.1903
   38loPI   C3B  607  15.220  13.218   9.233  0.0786 -0.0362 -0.1203
   38loPI   C4B  608  14.800  13.098   8.978 -0.0660 -0.0562 -0.0964
   39loPI    C1  609  14.985  16.554  10.538 -0.2887 -0.0964 -0.0504
   39loPI    C2  610  15.005  16.949  10.597 -0.0832 -0.0931 -0.1317
   39loPI    C3  611  14.880  16.708  10.892 -0.0267  0.0147 -0.0191
   39loPI   PO4  612  14.909  16.502  10.390 -0.1652  0.2802  0.0987
   39loPI   GL1  613  14.997  16.326  10.000 -0.0713 -0.2840 -0.0385
   39loPI   GL2  614  15.379  16.274   9.984  0.2150  0.0333  0.1603
   39loPI   C1A  615  14.916  16.342   9.545 -0.0461 -0.0759 -0.0720
   39loPI   C2A  616  14.683  16.330   9.224 -0.0967  0.4121 -0.1036
   39loPI   C3A  617  14.506  16.311   8.743  0.4213  0.2489  0.0406
   39loPI   C4A  618  14.445  16.230   8.244  0.0144 -0.1714 -0.0287
   39loPI   C5A  619  14.296  16.163   7.826 -0.1409 -0.1297 -0.1055
   39loPI   C6A  620  14.060  16.283   7.503 -0.4593 -0.0373  0.2359
   39loPI   C1B  621  15.554  16.266   9.579  0.1477  0.0464  0.0110
   39loPI   C2B  622  15.223  16.100   9.224  0.4248  0.3204  0.0759
   39loPI   C3B  623  15.187  16.274   8.861 -0.0669 -0.0686  0.1683
   39loPI   C4B  624  15.393  16.709   8.832 -0.0880  0.0174  0.0325
   40loPI    C1  625  16.747   3.813  10.501  0.0356  0.1256 -0.0052
   40loPI    C2  626  16.876   4.019  10.819  0.1130  0.0257  0.0284
   40loPI    C3  627  16.844   3.621  10.838 -0.1078  0.0406 -0.0119
   40loPI   PO4  628  16.471   4.006  10.402 -0.0348 -0.0220  0.3118
   40loPI   GL1  629  16.429   4.480  10.204  0.1463 -0.4138  0.1283
   40loPI   GL2  630  16.034   4.508  10.298 -0.0677 -0.3282  0.1285
   40loPI   C1A  631  16.426   4.380   9.771 -0.1472 -0.1928 -0.0611
   40loPI   C2A  632  16.495   4.442   9.288 -0.0318 -0.1674 -0.0767
   40loPI   C3A  633  16.703   4.355   8.913  0.0865  0.0174 -0.0394
   40loPI   C4A  634  16.987   4.380   8.577  0.1947 -0.2571 -0.0172
   40loPI   C5A  635  17.135   4.129   8.328  0.2405  0.0769 -0.0857
   40loPI   C6A  636  17.246   3.662   8.099 -0.1876 -0.1618 -0.1104
   40loPI   C1B  637  15.913   4.480   9.926  0.1593  0.0587 -0.2653
   40loPI   C2B  638  15.982   4.489   9.475  0.0823 -0.0802  0.1379
   40loPI   C3B  639  15.940   4.442   9.062 -0.1103  0.0670 -0.0909
   40loPI   C4B  640  16.046   4.214   8.754 -0.1534 -0.1885  0.0316
   41loPI    C1  641  10.209  18.228  10.253 -0.0188 -0.5573 -0.1331
   41loPI    C2  642   9.943  18.324  10.536  0.1810 -0.0139 -0.1184
   41loPI    C3  643  10.042  17.941  10.477 -0.1138 -0.1649  0.3153
   41loPI   PO4  644  10.064  18.420  10.000 -0.3275  0.1407 -0.0521
   41loPI   GL1  645   9.841  18.551   9.697 -0.2417 -0.0808  0.1175
   41loPI   GL2  646   9.952  18.212   9.569 -0.0826  0.0611  0.0930
   41loPI   C1A  647  10.038  18.724   9.430  0.4416  0.1266  0.1683
   41loPI   C2A  648   9.926  18.688   9.037 -0.0942 -0.0560 -0.1668
   41loPI   C3A  649   9.748  18.709   8.643  0.1121  0.2794 -0.1033
   41loPI   C4A  650   9.713  18.899   8.262 -0.1342 -0.0244 -0.1434
   41loPI   C5A  651   9.566  18.750   7.898  0.1633  0.0345  0.2216
   41loPI   C6A  652   9.673  18.647   7.549  0.1138 -0.0788  0.1517
   41loPI   C1B  653   9.827  18.108   9.259 -0.0813 -0.2208  0.2115
   41loPI   C2B  654   9.881  18.171   8.810 -0.0779 -0.0571  0.1807
   41loPI   C3B  655   9.931  18.204   8.362  0.1800 -0.3143  0.1315
   41loPI   C4B  656   9.872  18.329   7.926  0.2116 -0.3409 -0.5244
   42loPI    C1  657  16.179   8.902  11.294 -0.0295 -0.2008 -0.1152
   42loPI    C2  658  16.370   8.666  11.553 -0.0818  0.1003  0.2052
   42loPI    C3  659  16.058   8.884  11.674 -0.2069  0.1259 -0.1522
   42loPI   PO4  660  16.201   8.808  11.078 -0.1898  0.1675  0.0189
   42loPI   GL1  661  16.013   8.866  10.612  0.0030  0.2327  0.0341
   42loPI   GL2  662  16.075   8.653  10.271 -0.1713  0.0283 -0.1601
   42loPI   C1A  663  15.808   9.084  10.196 -0.2794 -0.1086 -0.2388
   42loPI   C2A  664  15.750   9.043   9.708  0.1021  0.0480 -0.1491
   42loPI   C3A  665  15.772   9.024   9.341 -0.0604 -0.0627  0.0122
   42loPI   C4A  666  15.832   8.846   8.926 -0.1377  0.2367 -0.4916
   42loPI   C5A  667  15.616   8.779   8.532  0.0428  0.2609 -0.0875
   42loPI   C6A  668  15.321   8.864   8.157 -0.0875  0.0238  0.0969
   42loPI   C1B  669  16.022   8.628   9.806 -0.1108  0.0699 -0.1527
   42loPI   C2B  670  16.030   8.529   9.323 -0.0494 -0.2579 -0.1113
   42loPI   C3B  671  16.102   8.470   8.919  0.1189 -0.0398  0.0572
   42loPI   C4B  672  15.933   8.296   8.435 -0.1860 -0.3915 -0.2241
   43loPI    C1  673  16.074  15.598  10.760 -0.0552 -0.1662  0.2719
   43loPI    C2  674  16.452  15.718  10.708 -0.1447 -0.0445 -0.1343
   43loPI    C3  675  16.203  15.934  10.935 -0.0445  0.0192 -0.0839
   43loPI   PO4  676  15.982  15.630  10.484 -0.1812 -0.1065 -0.3091
   43loPI   GL1  677  16.008  15.586  10.039  0.0810  0.1980  0.1332
   43loPI   GL2  678  16.242  15.530   9.880  0.1062  0.1375 -0.2173
   43loPI   C1A  679  15.731  15.586   9.728 -0.1399  0.1227  0.0573
   43loPI   C2A  680  15.683  15.272   9.307 -0.4218  0.0785 -0.1446
   43loPI   C3A  681  15.619  14.866   9.015 -0.2093  0.2343  0.3815
   43loPI   C4A  682  15.455  14.661   8.745  0.3052 -0.2792 -0.1570
   43loPI   C5A  683  15.244  14.557   8.389 -0.3860  0.0157 -0.1532
   43loPI   C6A  684  15.389  14.814   8.030  0.1077 -0.1014 -0.1410
   43loPI   C1B  685  16.014  15.086   9.707 -0.0402 -0.1210 -0.0892
   43loPI   C2B  686  15.660  14.871   9.545 -0.2084  0.0329  0.2271
   43loPI   C3B  687  15.682  14.465   9.332 -0.2624  0.0264 -0.2606
   43loPI   C4B  688  15.718  14.380   8.980 -0.0199 -0.1006 -0.0132
   44loPI    C1  689   4.642  11.414  10.431 -0.0394  0.0834  0.0172
   44loPI    C2  690   4.463  11.624  10.720 -0.0247 -0.1758  0.2183
   44loPI    C3  691   4.697  11.314  10.814  0.1341 -0.1453 -0.0651
   44loPI   PO4  692   4.494  11.465  10.203  0.0257  0.0636  0.0616
   44loPI   GL1  693   4.303  11.325   9.798 -0.2351  0.0923 -0.3031
   44loPI   GL2  694   4.078  11.492   9.793 -0.0745 -0.0666  0.0315
   44loPI   C1A  695   4.393  11.236   9.354  0.3290  0.1156  0.5980
   44loPI   C2A  696   4.305  10.908   9.043  0.2355 -0.1015  0.0741
   44loPI   C3A  697   4.333  10.902   8.487 -0.2331  0.0953 -0.3361
   44loPI   C4A  698   4.318  10.840   8.109  0.1079  0.2960  0.0180
   44loPI   C5A  699   4.632  10.792   7.774 -0.0392 -0.2201  0.2381
   44loPI   C6A  700   4.674  10.964   7.287 -0.2285 -0.1178  0.1629
   44loPI   C1B  701   3.909  11.448   9.385 -0.2891  0.0337 -0.1436
   44loPI   C2B  702   4.071  11.478   9.008  0.0106  0.0475 -0.1573
   44loPI   C3B  703   4.201  11.351   8.632 -0.0496  0.1464  0.2798
   44loPI   C4B  704   4.229  11.320   8.161  0.2176 -0.0413  0.2059
   45loPI    C1  705  15.094  10.496  10.768  0.0493 -0.1730  0.0878
   45loPI    C2  706  14.858  10.514  11.090 -0.0051  0.0426  0.0373
   45loPI    C3  707  15.180  10.278  11.092 -0.2085 -0.2394  0.1139
   45loPI   PO4  708  14.951  10.423  10.555  0.0084  0.0482  0.1107
   45loPI   GL1  709  15.026  10.456  10.139 -0.3270  0.0296  0.4061
   45loPI   GL2  710  14.822  10.212  10.077 -0.3222 -0.1023 -0.0432
   45loPI   C1A  711  15.343  10.604   9.765 -0.0673  0.2168 -0.0088
   45loPI   C2A  712  15.636  10.412   9.533  0.1143 -0.1606  0.0100
   45loPI   C3A  713  15.703  10.278   9.172  0.0968  0.0429 -0.0088
   45loPI   C4A  714  15.650  10.190   8.679 -0.2814 -0.4373  0.0069
   45loPI   C5A  715  15.699  10.439   8.370 -0.3892 -0.2666 -0.1594
   45loPI   C6A  716  15.622  10.868   8.278  0.0907  0.2184  0.3574
   45loPI   C1B  717  14.657  10.183   9.782  0.3374  0.0829 -0.1102
   45loPI   C2B  718  14.780   9.952   9.511  0.2854  0.0436 -0.0248
   45loPI   C3B  719  14.893  10.011   9.047 -0.0984  0.3568  0.2086
   45loPI   C4B  720  15.066   9.959   8.564 -0.1682  0.0965  0.1307
   46loPI    C1  721  14.452   9.840  10.933 -0.1029  0.0991  0.1815
   46loPI    C2  722  14.768  10.065  10.837  0.0869 -0.2015  0.0872
   46loPI    C3  723  14.701   9.967  11.219 -0.1770  0.2718  0.1705
   46loPI   PO4  724  14.462   9.630  10.763  0.0145 -0.1454 -0.1250
   46loPI   GL1  725  14.473   9.398  10.378  0.2241  0.4191 -0.2052
   46loPI   GL2  726  14.239   9.193  10.480  0.3545 -0.2094 -0.2713
   46loPI   C1A  727  14.712   9.100  10.118  0.0492 -0.2285 -0.2147
   46loPI   C2A  728  14.799   9.029   9.667  0.0974  0.0654 -0.3318
   46loPI   C3A  729  14.805   8.955   9.177 -0.0293 -0.0707  0.2901
   46loPI   C4A  730  14.771   9.056   8.802  0.1890 -0.2899 -0.0017
   46loPI   C5A  731  14.493   9.167   8.376 -0.0720 -0.0207 -0.0713
   46loPI   C6A  732  14.218   9.015   8.123 -0.1247 -0.1899  0.0155
   46loPI   C1B  733  14.117   9.126  10.070  0.1968  0.3920 -0.1912
   46loPI   C2B  734  14.279   9.099   9.674  0.0046  0.0587 -0.0701
   46loPI   C3B  735  14.222   9.043   9.219 -0.3521 -0.0296 -0.2020
   46loPI   C4B  736  14.265   9.097   8.797 -0.2458 -0.2534  0.2527
   47loPI    C1  737   6.040   7.002  10.279  0.1059  0.1114 -0.2437
   47loPI    C2  738   6.019   7.355  10.466  0.0159 -0.0672  0.0932
   47loPI    C3  739   6.371   7.167  10.430  0.0529  0.0239 -0.0272
   47loPI   PO4  740   5.945   6.979  10.109 -0.2436  0.1122 -0.1335
   47loPI   GL1  741   5.724   6.822   9.762 -0.0681 -0.1117  0.2928
   47loPI   GL2  742   5.438   6.876   9.943 -0.4169  0.0299  0.0144
   47loPI   C1A  743   5.704   6.639   9.345 -0.0447 -0.1625  0.3703
   47loPI   C2A  744   5.766   6.609   8.948  0.0087 -0.2018  0.0953
   47loPI   C3A  745   5.749   6.707   8.491  0.1793 -0.3278 -0.2281
   47loPI   C4A  746   5.716   6.545   8.214 -0.0112 -0.0454  0.2268
   47loPI   C5A  747   5.569   6.491   7.826 -0.0790 -0.1503 -0.1420
   47loPI   C6A  748   5.253   6.185   7.857  0.2215  0.1031  0.0696
   47loPI   C1B  749   5.236   7.048   9.641 -0.5484  0.0782 -0.0575
   47loPI   C2B  750   5.253   6.849   9.194 -0.1714 -0.0504 -0.2683
   47loPI   C3B  751   5.253   6.827   8.700  0.0175  0.1582  0.0116
   47loPI   C4B  752   5.350   6.880   8.242  0.3127 -0.0880  0.1012
   48loPI    C1  753   4.337  18.821   9.892 -0.1785 -0.1492  0.0323
   48loPI    C2  754   4.405  18.835  10.286  0.0883  0.0317 -0.0172
   48loPI    C3  755   4.567  18.543  10.066  0.0554  0.0115 -0.0148
   48loPI   PO4  756   4.093  18.913   9.830  0.1265 -0.3277 -0.1401
   48loPI   GL1  757   3.964  18.861   9.430  0.1119 -0.2028 -0.4025
   48loPI   GL2  758   3.714  18.701   9.511  0.2960 -0.3191  0.1169
   48loPI   C1A  759   3.779  19.195   9.191 -0.0809 -0.0225  0.0416
   48loPI   C2A  760   3.904  19.175   8.760  0.0214 -0.1652  0.0516
   48loPI   C3A  761   4.178  19.213   8.377 -0.0479 -0.1001 -0.0885
   48loPI   C4A  762   4.437  19.074   8.035 -0.1929  0.1849  0.0517
   48loPI   C5A  763   4.690  19.067   7.712  0.3607 -0.1573  0.0944
   48loPI   C6A  764   4.751  19.427   7.483  0.0503  0.1129 -0.0479
   48loPI   C1B  765   3.622  18.710   9.064 -0.0665  0.0149 -0.1924
   48loPI   C2B  766   3.451  18.652   8.679  0.2454 -0.1995  0.1446
   48loPI   C3B  767   3.457  18.544   8.293  0.1436  0.2561 -0.0685
   48loPI   C4B  768   3.284  18.548   7.874 -0.1082  0.1455 -0.1858
   49loPI    C1  769   7.841   7.863  10.947  0.0772  0.2461 -0.1683
   49loPI    C2  770   8.212   7.755  10.842  0.0647  0.1046 -0.0704
   49loPI    C3  771   8.130   7.844  11.223  0.0178  0.2218 -0.1074
   49loPI   PO4  772   7.816   7.992  10.742 -0.0493 -0.1589 -0.0819
   49loPI   GL1  773   7.944   8.378  10.478  0.1263  0.1932  0.1268
   49loPI   GL2  774   8.218   8.539  10.283  0.0561  0.4637 -0.2502
   49loPI   C1A  775   7.776   8.303  10.081 -0.0663 -0.3052 -0.1232
   49loPI   C2A  776   7.769   8.205   9.689 -0.1702  0.0120 -0.0254
   49loPI   C3A  777   7.562   8.175   9.323  0.1911 -0.1602  0.0565
   49loPI   C4A  778   7.472   7.900   8.873  0.0770 -0.0373 -0.3250
   49loPI   C5A  779   7.385   7.845   8.455 -0.1657 -0.3105  0.0073
   49loPI   C6A  780   7.377   7.850   8.099  0.0136  0.0188  0.1235
   49loPI   C1B  781   8.129   8.622   9.845  0.0331  0.0975 -0.0447
   49loPI   C2B  782   8.012   8.644   9.459  0.0839 -0.2029  0.1888
   49loPI   C3B  783   8.049   8.706   9.143  0.1642  0.1552 -0.3460
   49loPI   C4B  784   8.079   8.598   8.747  0.1055 -0.1036 -0.0679
   50loPI    C1  785   7.541  16.301  10.462 -0.1065 -0.1719 -0.1872
   50loPI    C2  786   7.475  16.396  10.845  0.2493  0.0394 -0.1741
   50loPI    C3  787   7.468  16.013  10.730 -0.0806 -0.0095 -0.0032
   50loPI   PO4  788   7.505  16.371  10.324  0.3082 -0.2977 -0.1596
   50loPI   GL1  789   7.436  16.537   9.974  0.2463 -0.0699  0.0796
   50loPI   GL2  790   7.274  16.723   9.790  0.0878  0.0420  0.2854
   50loPI   C1A  791   7.605  16.408   9.546 -0.1508 -0.0560 -0.1579
   50loPI   C2A  792   7.603  16.595   9.118 -0.2012 -0.1122 -0.2098
   50loPI   C3A  793   7.531  16.582   8.646  0.0147 -0.4500  0.0436
   50loPI   C4A  794   7.432  16.435   8.300 -0.0078 -0.0668  0.1692
   50loPI   C5A  795   7.517  16.383   7.884 -0.1017 -0.0808  0.3701
   50loPI   C6A  796   7.685  16.301   7.465  0.1454  0.1951  0.1377
   50loPI   C1B  797   7.198  16.695   9.424  0.1923  0.0257 -0.1171
   50loPI   C2B  798   7.165  16.509   8.981  0.0147  0.0950  0.1258
   50loPI   C3B  799   7.096  16.237   8.627  0.2712  0.0762  0.2098
   50loPI   C4B  800   6.873  16.172   8.312 -0.0197  0.0135  0.0393
   51loPI    C1  801  17.934  17.274  10.672  0.2676 -0.0151 -0.0543
   51loPI    C2  802  17.825  16.955  10.886  0.1730 -0.0945 -0.2195
   51loPI    C3  803  17.923  17.295  11.071 -0.2926 -0.0390 -0.0613
   51loPI   PO4  804  18.153  17.188  10.509 -0.2758  0.1399  0.1234
   51loPI   GL1  805  18.265  17.101  10.101 -0.1786  0.0151  0.1172
   51loPI   GL2  806  18.326  16.751  10.031  0.0764  0.1636  0.0489
   51loPI   C1A  807  18.054  17.222   9.645  0.0183  0.1682 -0.1037
   51loPI   C2A  808  18.010  17.224   9.217  0.1232 -0.3668  0.1289
   51loPI   C3A  809  18.032  17.128   8.765 -0.2413  0.1589 -0.2368
   51loPI   C4A  810  18.043  17.128   8.364  0.0382 -0.2281 -0.2323
   51loPI   C5A  811  18.024  17.152   7.906  0.1002  0.1562  0.1378
   51loPI   C6A  812  17.820  17.032   7.461  0.2739  0.0077  0.0537
   51loPI   C1B  813  18.662  16.607   9.815 -0.0326 -0.0102 -0.2820
   51loPI   C2B  814  18.691  16.508   9.349  0.1616 -0.0383 -0.2240
   51loPI   C3B  815  18.610  16.430   8.946  0.1256 -0.1597 -0.0553
   51loPI   C4B  816  18.611  16.388   8.562  0.2339  0.1510 -0.0660
   52loPI    C1  817   4.158  16.431  10.125  0.0261 -0.0777  0.0553
   52loPI    C2  818   4.119  16.406  10.522 -0.0003  0.1811  0.0703
   52loPI    C3  819   4.366  16.157  10.330  0.0663  0.1010  0.2570
   52loPI   PO4  820   3.908  16.462   9.970  0.2050 -0.3591 -0.0137
   52loPI   GL1  821   3.960  16.627   9.606 -0.2323  0.0787 -0.3119
   52loPI   GL2  822   3.940  16.886   9.492  0.1287 -0.0234  0.0798
   52loPI   C1A  823   3.940  16.249   9.392  0.1554  0.1303  0.0245
   52loPI   C2A  824   3.604  16.001   9.118  0.5552  0.0323 -0.0819
   52loPI   C3A  825   3.257  15.805   9.051  0.2069 -0.2639 -0.1314
   52loPI   C4A  826   3.173  15.590   8.661  0.1363  0.0110  0.2033
   52loPI   C5A  827   3.025  15.584   8.233  0.1864 -0.2229  0.2919
   52loPI   C6A  828   2.993  15.387   7.854 -0.1986  0.2757 -0.0283
   52loPI   C1B  829   4.140  16.621   9.113  0.2132 -0.0968 -0.0101
   52loPI   C2B  830   4.118  16.664   8.696 -0.2185 -0.0731 -0.1671
   52loPI   C3B  831   3.821  16.469   8.363 -0.0305 -0.1175  0.0112
   52loPI   C4B  832   3.439  16.457   8.022  0.3295 -0.3282 -0.3987
   53loPI    C1  833  14.436   0.814  10.734 -0.1761 -0.2301  0.2128
   53loPI    C2  834  14.641   1.091  10.937 -0.0692 -0.0859 -0.0864
   53loPI    C3  835  14.730   0.704  10.982  0.0798 -0.0426 -0.0015
   53loPI   PO4  836  14.479   0.846  10.480 -0.0740 -0.0246  0.0111
   53loPI   GL1  837  14.510   0.752  10.070  0.3148 -0.0496 -0.0032
   53loPI   GL2  838  14.215   0.774  10.026  0.1286 -0.0510  0.0379
   53loPI   C1A  839  14.786   0.909   9.798 -0.2013  0.0446  0.2271
   53loPI   C2A  840  15.122   0.818   9.552 -0.4537  0.2867  0.0733
   53loPI   C3A  841  15.028   0.525   9.312  0.0927 -0.4187  0.1047
   53loPI   C4A  842  14.834   0.252   9.101 -0.1891  0.2559 -0.0192
   53loPI   C5A  843  14.667   0.307   8.749  0.1503 -0.2760  0.0427
   53loPI   C6A  844  14.626   0.187   8.306  0.0574 -0.1963 -0.2474
   53loPI   C1B  845  14.042   0.776   9.595 -0.2305 -0.2080  0.2464
   53loPI   C2B  846  14.165   0.914   9.183 -0.2229 -0.1544  0.0849
   53loPI   C3B  847  14.160   1.113   8.792 -0.0001 -0.0057  0.0949
   53loPI   C4B  848  14.146   0.983   8.442  0.4060 -0.3332  0.5191
   54loPI    C1  849   1.801  11.677  10.744  0.0812  0.0581  0.1511
   54loPI    C2  850   1.896  12.004  10.955 -0.0024  0.0618  0.1837
   54loPI    C3  851   1.731  11.689  11.138  0.1752 -0.0399  0.1713
   54loPI   PO4  852   1.742  11.773  10.517  0.0744 -0.0738 -0.1898
   54loPI   GL1  853   1.610  11.820  10.068  0.2095  0.0595 -0.2773
   54loPI   GL2  854   1.413  12.032   9.931  0.0248  0.1917  0.2488
   54loPI   C1A  855   1.550  11.478   9.802 -0.1164  0.0579 -0.4596
   54loPI   C2A  856   1.582  11.492   9.356 -0.0794  0.1926 -0.0888
   54loPI   C3A  857   1.561  11.465   8.929  0.0294 -0.2685  0.2205
   54loPI   C4A  858   1.611  11.548   8.489  0.1120 -0.1711 -0.4353
   54loPI   C5A  859   1.530  11.453   8.038  0.0071 -0.0037 -0.1888
   54loPI   C6A  860   1.438  11.568   7.666  0.2337  0.0640 -0.1491
   54loPI   C1B  861   1.418  12.059   9.553 -0.3120 -0.0625  0.0977
   54loPI   C2B  862   1.383  12.026   9.159 -0.1259  0.1230  0.4276
   54loPI   C3B  863   1.466  11.967   8.689  0.0216  0.0219  0.1778
   54loPI   C4B  864   1.437  11.947   8.195 -0.1398 -0.0355  0.1852
   55loPI    C1  865  14.298  18.665  10.565  0.0682 -0.0857  0.0138
   55loPI    C2  866  14.537  18.933  10.740 -0.0902  0.0830 -0.0255
   55loPI    C3  867  14.470  18.580  10.915  0.1123  0.0715  0.0308
   55loPI   PO4  868  14.472  18.588  10.269 -0.0954  0.0052  0.1744
   55loPI   GL1  869  14.543  18.614   9.880 -0.1311 -0.1871  0.1143
   55loPI   GL2  870  14.442  18.986   9.904  0.1070 -0.0243  0.0282
   55loPI   C1A  871  14.521  18.772   9.466 -0.3286 -0.1256  0.1272
   55loPI   C2A  872  14.372  18.799   9.033 -0.3864  0.2436 -0.0114
   55loPI   C3A  873  14.201  18.724   8.625  0.0614 -0.0369 -0.0292
   55loPI   C4A  874  14.179  18.702   8.162  0.1687  0.0074 -0.2029
   55loPI   C5A  875  14.215  19.016   7.846 -0.1678  0.3493 -0.0549
   55loPI   C6A  876  14.003  19.375   7.457 -0.0810 -0.3670 -0.2191
   55loPI   C1B  877  14.126  18.987   9.671  0.1232  0.0183 -0.2308
   55loPI   C2B  878  14.105  19.119   9.301  0.0477 -0.0191 -0.1606
   55loPI   C3B  879  14.193  19.236   8.852  0.0023  0.3773  0.0918
   55loPI   C4B  880  14.146  19.192   8.373  0.2509 -0.0389  0.1285
   56loPI    C1  881  10.054   8.960  10.824 -0.0730 -0.0823  0.0074
   56loPI    C2  882   9.948   8.955  11.209  0.0821 -0.1510  0.0500
   56loPI    C3  883  10.055   8.615  11.027 -0.0573 -0.1301 -0.0731
   56loPI   PO4  884   9.865   9.193  10.775  0.0235  0.0386  0.1443
   56loPI   GL1  885   9.885   9.191  10.335  0.3366 -0.0948 -0.4250
   56loPI   GL2  886   9.807   8.861  10.283 -0.1318 -0.1097  0.2147
   56loPI   C1A  887  10.290   9.013  10.101  0.2789 -0.2777  0.0281
   56loPI   C2A  888  10.500   8.844   9.786  0.1331 -0.1950 -0.1609
   56loPI   C3A  889  10.422   8.796   9.357 -0.1386  0.1119 -0.1749
   56loPI   C4A  890  10.435   8.792   8.837 -0.2451 -0.0875  0.1456
   56loPI   C5A  891  10.411   8.657   8.390 -0.2705 -0.0717  0.1372
   56loPI   C6A  892  10.081   8.419   8.230 -0.1790  0.0238 -0.0863
   56loPI   C1B  893   9.869   8.841   9.899 -0.1135  0.3090  0.3725
   56loPI   C2B  894   9.920   8.813   9.475 -0.5814 -0.1505  0.0644
   56loPI   C3B  895   9.989   8.881   9.115  0.0215 -0.1212  0.0824
   56loPI   C4B  896   9.948   8.850   8.631  0.2393  0.1097  0.2204
   57loPI    C1  897   5.134  15.688  10.557  0.4283 -0.1159  0.2942
   57loPI    C2  898   4.868  15.416  10.683 -0.1006  0.0847 -0.3280
   57loPI    C3  899   4.971  15.721  10.921 -0.1006 -0.2224  0.0776
   57loPI   PO4  900   5.041  15.683  10.307 -0.2619 -0.1810  0.1298
   57loPI   GL1  901   4.952  15.532   9.923  0.0854 -0.0852  0.2141
   57loPI   GL2  902   5.079  15.351   9.626  0.0665 -0.3486  0.0263
   57loPI   C1A  903   4.852  15.828   9.559  0.0100  0.0706  0.2090
   57loPI   C2A  904   4.998  16.034   9.269 -0.1237 -0.0192 -0.0188
   57loPI   C3A  905   4.700  15.950   8.964  0.0358  0.3157 -0.3901
   57loPI   C4A  906   4.333  16.165   8.841 -0.3299  0.1216 -0.0770
   57loPI   C5A  907   3.933  16.233   8.858 -0.0687  0.2449  0.1508
   57loPI   C6A  908   3.535  16.170   8.583  0.0711  0.1177 -0.1385
   57loPI   C1B  909   4.923  15.349   9.270 -0.0148  0.2515  0.1890
   57loPI   C2B  910   4.915  15.384   8.770 -0.1845  0.0790  0.1960
   57loPI   C3B  911   4.897  15.536   8.322  0.0163 -0.0241  0.1673
   57loPI   C4B  912   5.016  15.937   8.065 -0.1998  0.1463 -0.2064
   58loPI    C1  913   6.324   7.777  10.445 -0.0133  0.2245 -0.1017
   58loPI    C2  914   6.389   7.557  10.773 -0.1202  0.1388 -0.1373
   58loPI    C3  915   6.070   7.798  10.754 -0.1541  0.0889 -0.2066
   58loPI   PO4  916   6.410   7.616  10.180  0.0952  0.0615  0.0118
   58loPI   GL1  917   6.528   7.302   9.962  0.1652  0.0736 -0.1686
   58loPI   GL2  918   6.730   7.651   9.808 -0.1804 -0.1889  0.2098
   58loPI   C1A  919   6.531   7.328   9.510 -0.1607  0.2910 -0.2352
   58loPI   C2A  920   6.485   7.020   9.148  0.1555 -0.0166 -0.0480
   58loPI   C3A  921   6.169   7.187   8.773  0.1840  0.1376 -0.2098
   58loPI   C4A  922   6.086   7.381   8.410 -0.0513  0.2601 -0.2798
   58loPI   C5A  923   5.903   7.671   8.103  0.1739 -0.0955  0.2429
   58loPI   C6A  924   5.861   7.566   7.749  0.3477 -0.1796 -0.0475
   58loPI   C1B  925   6.447   7.813   9.468  0.0531 -0.2589  0.2406
   58loPI   C2B  926   6.436   7.598   9.138  0.1053  0.2031  0.2829
   58loPI   C3B  927   6.404   7.730   8.797 -0.1997 -0.3187 -0.1240
   58loPI   C4B  928   6.075   7.976   8.596 -0.3414  0.0830 -0.1247
   59loPI    C1  929  10.522   5.619  10.793  0.0987  0.0208 -0.2984
   59loPI    C2  930  10.898   5.692  10.909  0.0096 -0.1487  0.1182
   59loPI    C3  931  10.791   5.323  10.799  0.0340 -0.0380 -0.2948
   59loPI   PO4  932  10.524   5.755  10.601  0.2306  0.2963  0.1457
   59loPI   GL1  933  10.367   5.720  10.212 -0.2205  0.0246  0.4146
   59loPI   GL2  934  10.643   5.739  10.090 -0.0783  0.1069 -0.2609
   59loPI   C1A  935  10.217   5.711   9.789 -0.1984 -0.3313 -0.3292
   59loPI   C2A  936  10.240   5.709   9.414  0.1893 -0.4951  0.3924
   59loPI   C3A  937  10.351   5.761   8.978 -0.2561 -0.2241 -0.1361
   59loPI   C4A  938  10.449   5.760   8.576 -0.0802 -0.0246 -0.0433
   59loPI   C5A  939  10.473   5.677   8.128  0.2874  0.1364  0.2184
   59loPI   C6A  940  10.734   5.757   7.742  0.3546 -0.1606  0.0768
   59loPI   C1B  941  10.834   5.651   9.718 -0.1209 -0.1251  0.1153
   59loPI   C2B  942  10.969   5.650   9.227 -0.3805 -0.0646  0.0371
   59loPI   C3B  943  10.949   5.632   8.805  0.1550  0.2782  0.0727
   59loPI   C4B  944  10.953   5.633   8.325  0.4220 -0.0316  0.0013
   60loPI    C1  945  11.675   3.156  10.646  0.0169  0.2139  0.0625
   60loPI    C2  946  11.945   2.962  10.870 -0.1469  0.0502  0.1211
   60loPI    C3  947  11.908   3.359  10.900  0.1445  0.0853  0.0503
   60loPI   PO4  948  11.765   3.148  10.391 -0.1755  0.1373 -0.1003
   60loPI   GL1  949  11.898   3.268  10.102 -0.1068 -0.0667  0.1276
   60loPI   GL2  950  11.668   2.923   9.913 -0.0091 -0.0299 -0.0787
   60loPI   C1A  951  12.035   3.270   9.664 -0.0982 -0.2218  0.1054
   60loPI   C2A  952  12.077   3.376   9.240 -0.0089 -0.0637  0.0392
   60loPI   C3A  953  12.043   3.365   8.831  0.0830 -0.2108  0.0732
   60loPI   C4A  954  11.987   3.392   8.395 -0.2273  0.2263 -0.1822
   60loPI   C5A  955  12.074   3.255   7.864  0.1019 -0.2564  0.2646
   60loPI   C6A  956  12.586   3.476   7.660  0.1113  0.1331 -0.1758
   60loPI   C1B  957  11.712   2.995   9.436 -0.5049  0.2948 -0.3270
   60loPI   C2B  958  11.791   2.927   9.075 -0.3193  0.3544 -0.0070
   60loPI   C3B  959  11.773   2.946   8.685 -0.0727 -0.2600  0.1103
   60loPI   C4B  960  11.711   3.013   8.267  0.0842  0.0552 -0.0400
   61loPI    C1  961  16.784   8.033  10.992  0.0094 -0.1999  0.0044
   61loPI    C2  962  16.458   7.951  10.775  0.0191  0.2430 -0.1867
   61loPI    C3  963  16.431   7.982  11.173 -0.1054 -0.0398 -0.1711
   61loPI   PO4  964  16.958   7.868  10.839  0.1633 -0.0805 -0.1167
   61loPI   GL1  965  16.957   7.887  10.351 -0.1874 -0.3415 -0.0258
   61loPI   GL2  966  16.695   7.707  10.424  0.0269 -0.2890 -0.0083
   61loPI   C1A  967  16.772   8.085  10.025  0.0833  0.2074 -0.0168
   61loPI   C2A  968  16.858   8.044   9.660 -0.1900 -0.1139  0.2078
   61loPI   C3A  969  16.806   8.017   9.214 -0.4076 -0.0287  0.2661
   61loPI   C4A  970  16.781   7.974   8.822  0.1663  0.0822  0.2116
   61loPI   C5A  971  16.712   7.837   8.422 -0.1191 -0.0264  0.2588
   61loPI   C6A  972  16.744   7.706   7.985 -0.3465 -0.0747  0.2841
   61loPI   C1B  973  16.532   7.622  10.009  0.0026  0.0503 -0.1216
   61loPI   C2B  974  16.578   7.665   9.606 -0.1627 -0.4091 -0.1216
   61loPI   C3B  975  16.530   7.574   9.179  0.0758  0.2418  0.1080
   61loPI   C4B  976  16.524   7.480   8.743  0.1516 -0.3723 -0.0516
   62loPI    C1  977  16.024   9.293  11.027 -0.0295  0.0352 -0.0687
   62loPI    C2  978  16.068   9.643  11.215 -0.1458  0.1229 -0.2027
   62loPI    C3  979  16.347   9.359  11.254 -0.1651  0.1417  0.0958
   62loPI   PO4  980  15.992   9.349  10.773  0.0044 -0.0500  0.0039
   62loPI   GL1  981  16.107   9.425  10.382  0.1204 -0.0224  0.0053
   62loPI   GL2  982  16.294   9.154  10.300 -0.3158  0.1524 -0.2566
   62loPI   C1A  983  16.068   9.533   9.948 -0.0594  0.2313 -0.2643
   62loPI   C2A  984  16.099   9.402   9.525 -0.3683 -0.1172 -0.0904
   62loPI   C3A  985  16.101   9.383   9.068  0.2669  0.1899 -0.2530
   62loPI   C4A  986  16.039   9.202   8.634 -0.0368  0.0052  0.1665
   62loPI   C5A  987  16.237   9.127   8.201  0.2099 -0.0341  0.2901
   62loPI   C6A  988  16.354   9.221   7.791 -0.1700  0.0771  0.0396
   62loPI   C1B  989  16.245   9.079   9.877 -0.0129  0.1459  0.0475
   62loPI   C2B  990  16.259   8.956   9.493  0.3210 -0.2855  0.1247
   62loPI   C3B  991  16.318   8.894   9.024 -0.0087 -0.3765 -0.0800
   62loPI   C4B  992  16.295   8.695   8.471  0.0777  0.1093  0.0507
   63loPI    C1  993   6.459   9.105  10.409 -0.1492  0.0300 -0.0890
   63loPI    C2  994   6.318   9.409  10.628 -0.2074  0.0093 -0.0976
   63loPI    C3  995   6.707   9.392  10.537 -0.1505 -0.0741  0.1522
   63loPI   PO4  996   6.303   9.130  10.227  0.0698  0.3065  0.0577
   63loPI   GL1  997   6.272   8.840   9.833 -0.0636 -0.0376 -0.2898
   63loPI   GL2  998   6.642   8.881   9.918  0.2540  0.0859 -0.0325
   63loPI   C1A  999   6.388   9.118   9.482 -0.2780  0.1331 -0.2008
   63loPI   C2A 1000   6.267   9.317   9.147  0.0950 -0.0502  0.1754
   63loPI   C3A 1001   6.273   9.434   8.691 -0.0870 -0.0986 -0.1946
   63loPI   C4A 1002   6.353   9.763   8.362 -0.2537  0.1868 -0.0878
   63loPI   C5A 1003   6.528   9.758   7.972  0.2296 -0.1265 -0.1651
   63loPI   C6A 1004   6.565   9.907   7.650  0.3476 -0.1040 -0.0274
   63loPI   C1B 1005   6.726   8.675   9.580 -0.3586  0.0013  0.0845
   63loPI   C2B 1006   6.602   8.650   9.084  0.1633 -0.0556 -0.0460
   63loPI   C3B 1007   6.587   8.720   8.602 -0.0435  0.2186  0.1242
   63loPI   C4B 1008   6.799   8.934   8.123 -0.0873  0.1198 -0.3745
   64loPI    C1 1009   6.988  14.212  10.688  0.0660 -0.2906  0.0216
   64loPI    C2 1010   6.649  14.263  10.893 -0.0411  0.1535 -0.2500
   64loPI    C3 1011   6.805  13.897  10.851 -0.3402 -0.0212  0.1009
   64loPI   PO4 1012   6.949  14.321  10.459 -0.3931 -0.1209 -0.0540
   64loPI   GL1 1013   6.724  14.372  10.038 -0.0560  0.1205  0.0201
   64loPI   GL2 1014   7.026  14.316   9.950  0.2902 -0.0218 -0.1208
   64loPI   C1A 1015   6.526  14.414   9.570  0.1778  0.3968 -0.1974
   64loPI   C2A 1016   6.600  14.424   9.221 -0.1906 -0.0542 -0.0866
   64loPI   C3A 1017   6.539  14.392   8.760 -0.1754  0.1745  0.0020
   64loPI   C4A 1018   6.652  14.340   8.289 -0.0050 -0.1600  0.1004
   64loPI   C5A 1019   6.416  14.451   7.869  0.0078 -0.2084 -0.2723
   64loPI   C6A 1020   5.994  14.450   7.776 -0.1342 -0.0938  0.1293
   64loPI   C1B 1021   6.999  14.201   9.527 -0.2117  0.1116 -0.0234
   64loPI   C2B 1022   7.033  14.206   9.101 -0.1648  0.2233 -0.1713
   64loPI   C3B 1023   6.934  14.121   8.670 -0.2114 -0.2361  0.4603
   64loPI   C4B 1024   7.083  14.106   8.296 -0.0158 -0.1110 -0.2428
   65loPI    C1 1025  12.660  13.635  10.459  0.1184 -0.3143  0.2869
   65loPI    C2 1026  12.458  13.462  10.757 -0.2355 -0.0983  0.1787
   65loPI    C3 1027  12.506  13.859  10.752 -0.0009 -0.1262  0.0839
   65loPI   PO4 1028  12.589  13.537  10.158  0.1809 -0.0022  0.1926
   65loPI   GL1 1029  12.481  13.286   9.852  0.1509 -0.1293  0.0511
   65loPI   GL2 1030  12.737  13.010  10.018 -0.1615 -0.1293  0.1381
   65loPI   C1A 1031  12.634  13.186   9.431 -0.1737 -0.1776 -0.1332
   65loPI   C2A 1032  12.918  13.154   9.048 -0.0868  0.0707 -0.5600
   65loPI   C3A 1033  13.048  13.144   8.608 -0.3794 -0.0133 -0.2420
   65loPI   C4A 1034  13.076  12.975   8.307  0.2676 -0.1052  0.0441
   65loPI   C5A 1035  12.899  12.745   7.957  0.0665  0.0163  0.1359
   65loPI   C6A 1036  12.690  12.439   7.848 -0.0867 -0.2201  0.0439
   65loPI   C1B 1037  12.722  12.793   9.656 -0.0047  0.1300 -0.0233
   65loPI   C2B 1038  12.712  12.742   9.241 -0.1512 -0.1712  0.0657
   65loPI   C3B 1039  12.850  12.718   8.811 -0.2867 -0.0817 -0.0360
   65loPI   C4B 1040  12.770  12.555   8.399  0.0582 -0.0462 -0.2052
   66loPI    C1 1041  14.951   1.916  10.551 -0.1371 -0.1183 -0.0768
   66loPI    C2 1042  15.271   2.078  10.726 -0.0597 -0.1310 -0.2052
   66loPI    C3 1043  15.100   1.753  10.884  0.0840 -0.2153 -0.2210
   66loPI   PO4 1044  15.019   1.811  10.267 -0.0912 -0.1535 -0.0454
   66loPI   GL1 1045  14.834   1.912   9.947 -0.0633  0.0613  0.2915
   66loPI   GL2 1046  14.794   2.169   9.850 -0.1205 -0.0211  0.2685
   66loPI   C1A 1047  14.827   1.819   9.366  0.0011  0.0733 -0.0804
   66loPI   C2A 1048  14.701   1.740   8.896  0.0977 -0.0060  0.0962
   66loPI   C3A 1049  14.741   1.577   8.473  0.2018 -0.1364 -0.3936
   66loPI   C4A 1050  14.456   1.380   8.259 -0.2184 -0.0273 -0.0892
   66loPI   C5A 1051  14.144   1.693   8.022 -0.0116 -0.0713  0.1054
   66loPI   C6A 1052  13.883   1.775   7.706  0.1427  0.0729 -0.0286
   66loPI   C1B 1053  14.568   2.249   9.513 -0.0467  0.0331  0.1006
   66loPI   C2B 1054  14.481   2.226   9.103  0.3089 -0.2839 -0.2769
   66loPI   C3B 1055  14.420   2.183   8.793 -0.2336  0.1112  0.1138
   66loPI   C4B 1056  14.544   2.006   8.448  0.2253 -0.0600 -0.0627
   67loPI    C1 1057  17.364  13.535  10.929  0.0976 -0.2628 -0.0938
   67loPI    C2 1058  17.533  13.386  11.260 -0.0679 -0.0305  0.0988
   67loPI    C3 1059  17.137  13.446  11.247 -0.0304  0.1943 -0.0504
   67loPI   PO4 1060  17.409  13.333  10.692 -0.1571  0.0491 -0.2129
   67loPI   GL1 1061  17.356  13.531  10.286 -0.1187 -0.1507 -0.0431
   67loPI   GL2 1062  17.640  13.748  10.231  0.1878 -0.2086 -0.2679
   67loPI   C1A 1063  17.202  13.774   9.912 -0.1017 -0.0603 -0.1154
   67loPI   C2A 1064  17.258  13.691   9.546 -0.0541  0.0243 -0.0678
   67loPI   C3A 1065  17.200  13.695   9.099 -0.0532  0.1729  0.2292
   67loPI   C4A 1066  17.281  13.596   8.747 -0.0579  0.2068 -0.1329
   67loPI   C5A 1067  17.254  13.598   8.309  0.1291 -0.0865  0.3058
   67loPI   C6A 1068  17.154  13.324   7.955  0.1899  0.2750 -0.0676
   67loPI   C1B 1069  17.670  13.530   9.829  0.0128 -0.0127  0.0055
   67loPI   C2B 1070  17.705  13.501   9.430 -0.3585  0.0199 -0.1621
   67loPI   C3B 1071  17.705  13.476   9.020 -0.0477 -0.0280 -0.4480
   67loPI   C4B 1072  17.726  13.472   8.577  0.4101  0.1236 -0.2379
   68loPI    C1 1073  15.642  12.769  11.062  0.0915  0.0440  0.1179
   68loPI    C2 1074  15.940  12.636  11.293 -0.0924 -0.4084  0.1043
   68loPI    C3 1075  15.597  12.431  11.271 -0.3131 -0.0299 -0.0788
   68loPI   PO4 1076  15.678  12.823  10.814 -0.0598 -0.1494  0.1720
   68loPI   GL1 1077  15.554  13.049  10.463  0.3434 -0.2062 -0.3554
   68loPI   GL2 1078  15.817  13.017  10.340  0.0769  0.0992 -0.1858
   68loPI   C1A 1079  15.389  12.753  10.096 -0.0727  0.0756 -0.0451
   68loPI   C2A 1080  15.424  12.657   9.678  0.0625 -0.0497 -0.2860
   68loPI   C3A 1081  15.404  12.723   9.196 -0.0658 -0.1254 -0.0343
   68loPI   C4A 1082  15.411  12.923   8.787 -0.0291  0.1137 -0.1629
   68loPI   C5A 1083  15.442  12.908   8.326  0.1409  0.2918  0.2142
   68loPI   C6A 1084  15.329  13.250   8.006 -0.0983  0.0307 -0.0666
   68loPI   C1B 1085  15.834  12.878   9.919 -0.4003  0.0071 -0.1721
   68loPI   C2B 1086  15.838  12.791   9.475 -0.4713 -0.1203 -0.1120
   68loPI   C3B 1087  16.006  12.823   9.073 -0.1264  0.3319 -0.0986
   68loPI   C4B 1088  15.974  12.487   8.818 -0.2130 -0.1558  0.0920
   69loPI    C1 1089  10.674  10.198  10.717  0.0921 -0.4395 -0.2994
   69loPI    C2 1090  10.953  10.381  10.937 -0.1174 -0.1107 -0.3010
   69loPI    C3 1091  10.740  10.081  11.093  0.0997 -0.2331 -0.2356
   69loPI   PO4 1092  10.753  10.142  10.522 -0.4478  0.1642  0.1195
   69loPI   GL1 1093  10.789  10.055  10.049 -0.1420  0.2531  0.0532
   69loPI   GL2 1094  10.750  10.385  10.099  0.2405 -0.2800  0.2732
   69loPI   C1A 1095  10.806  10.232   9.610  0.1511  0.1340  0.1573
   69loPI   C2A 1096  10.760  10.211   9.099 -0.1336  0.1962 -0.2091
   69loPI   C3A 1097  10.808  10.088   8.637  0.2101 -0.0487 -0.0560
   69loPI   C4A 1098  10.804   9.919   8.139  0.0953  0.0347  0.0100
   69loPI   C5A 1099  10.640   9.753   7.769 -0.0756  0.1164 -0.2189
   69loPI   C6A 1100  10.642   9.307   7.598  0.0231  0.2172  0.3724
   69loPI   C1B 1101  10.454  10.538   9.854  0.1083 -0.0557  0.0222
   69loPI   C2B 1102  10.599  10.599   9.437 -0.1509  0.0210  0.3677
   69loPI   C3B 1103  10.785  10.733   9.011  0.0215 -0.0649  0.1824
   69loPI   C4B 1104  11.091  10.568   8.725  0.1056  0.0641 -0.2325
   70loPI    C1 1105  14.844  12.541  11.100  0.1232 -0.0934 -0.0315
   70loPI    C2 1106  15.185  12.713  11.220 -0.0268  0.2089 -0.0318
   70loPI    C3 1107  15.037  12.401  11.421  0.3389 -0.0355 -0.1338
   70loPI   PO4 1108  14.836  12.450  10.870 -0.0905  0.4401  0.0536
   70loPI   GL1 1109  14.928  12.453  10.493  0.2052  0.3268  0.0807
   70loPI   GL2 1110  14.907  12.629  10.207 -0.1996 -0.2517 -0.1371
   70loPI   C1A 1111  15.177  12.166  10.227 -0.1400  0.1383  0.0722
   70loPI   C2A 1112  15.277  11.981   9.828  0.0189  0.0160 -0.0448
   70loPI   C3A 1113  15.484  11.849   9.479  0.3409 -0.3083 -0.0102
   70loPI   C4A 1114  15.563  11.812   8.966 -0.0109 -0.1362 -0.1092
   70loPI   C5A 1115  15.647  11.972   8.623  0.2256  0.1297  0.0959
   70loPI   C6A 1116  15.487  12.110   8.271 -0.0431  0.0770  0.1726
   70loPI   C1B 1117  15.009  12.423   9.840  0.1262 -0.0446  0.1982
   70loPI   C2B 1118  15.184  12.243   9.416  0.1563  0.1876  0.0017
   70loPI   C3B 1119  15.193  12.082   8.950 -0.0393 -0.2568 -0.0940
   70loPI   C4B 1120  15.154  11.940   8.551  0.1940  0.0261  0.4431
   71loPI    C1 1121   0.601   2.004  10.395  0.0332  0.0466  0.0800
   71loPI    C2 1122   0.367   2.204  10.651  0.1232  0.1894  0.0519
   71loPI    C3 1123   0.517   1.847  10.753 -0.2603  0.0081 -0.0035
   71loPI   PO4 1124   0.435   2.001  10.144 -0.4516 -0.1813  0.0353
   71loPI   GL1 1125   0.131   1.844  10.020 -0.2738 -0.1335  0.2149
   71loPI   GL2 1126  -0.055   1.947   9.897 -0.1896  0.2164  0.3488
   71loPI   C1A 1127   0.277   1.747   9.546  0.0597 -0.2894  0.0097
   71loPI   C2A 1128   0.152   1.585   9.111 -0.0200  0.3412  0.0096
   71loPI   C3A 1129   0.229   1.376   8.736  0.2417  0.1406  0.2485
   71loPI   C4A 1130   0.265   1.123   8.288 -0.1769  0.2302 -0.3770
   71loPI   C5A 1131   0.022   1.005   7.985  0.0787 -0.1284 -0.0876
   71loPI   C6A 1132  -0.284   0.878   7.799 -0.0617  0.0607 -0.0317
   71loPI   C1B 1133  -0.029   2.118   9.472  0.0379 -0.0250 -0.2909
   71loPI   C2B 1134  -0.159   2.152   9.089  0.0496 -0.2317  0.4175
   71loPI   C3B 1135  -0.106   1.811   8.750  0.1207 -0.3422  0.1837
   71loPI   C4B 1136  -0.090   1.669   8.365  0.2001 -0.0059 -0.0941
   72loPI    C1 1137   1.021   0.449  10.696 -0.1386  0.1007 -0.1130
   72loPI    C2 1138   1.112   0.809  10.844 -0.0543  0.0576 -0.0589
   72loPI    C3 1139   1.185   0.480  11.059 -0.0938  0.0054 -0.1249
   72loPI   PO4 1140   0.988   0.462  10.441  0.0201 -0.3586 -0.1593
   72loPI   GL1 1141   1.172   0.316  10.095  0.1201 -0.0024  0.1437
   72loPI   GL2 1142   1.060   0.074   9.949  0.1672 -0.0366  0.0301
   72loPI   C1A 1143   1.194   0.492   9.630  0.1367 -0.1342  0.1464
   72loPI   C2A 1144   0.905   0.758   9.439  0.4010 -0.3931 -0.2599
   72loPI   C3A 1145   0.814   1.055   9.123 -0.1306  0.3264  0.3919
   72loPI   C4A 1146   1.037   1.060   8.741 -0.0383  0.1136  0.0384
   72loPI   C5A 1147   1.325   1.043   8.517 -0.3446  0.2650 -0.0838
   72loPI   C6A 1148   1.579   1.075   8.087  0.0046 -0.3684 -0.1289
   72loPI   C1B 1149   1.117  -0.027   9.574  0.3603 -0.0768  0.4067
   72loPI   C2B 1150   1.035  -0.173   9.150 -0.1335  0.0109  0.0414
   72loPI   C3B 1151   0.856  -0.268   8.716 -0.0925  0.0106  0.3264
   72loPI   C4B 1152   0.576  -0.165   8.299  0.0057  0.2681 -0.0655
   73loPI    C1 1153  18.208   2.263  10.786  0.0198 -0.2300  0.2147
   73loPI    C2 1154  18.576   2.418  10.780 -0.1123  0.0878  0.1259
   73loPI    C3 1155  18.303   2.561  11.035 -0.1732 -0.1541  0.1992
   73loPI   PO4 1156  18.163   2.240  10.483  0.1697  0.2488 -0.1911
   73loPI   GL1 1157  18.341   2.348  10.131 -0.1455 -0.0693 -0.0456
   73loPI   GL2 1158  18.009   2.496  10.086 -0.0046  0.0060  0.0750
   73loPI   C1A 1159  18.225   2.127   9.712 -0.1531 -0.0941  0.1849
   73loPI   C2A 1160  18.157   1.970   9.269  0.0956  0.0647  0.4055
   73loPI   C3A 1161  18.165   1.853   8.858 -0.0665 -0.0319  0.0063
   73loPI   C4A 1162  18.061   1.705   8.506  0.3127  0.1245 -0.0211
   73loPI   C5A 1163  17.733   1.543   8.177 -0.1689 -0.2262  0.1173
   73loPI   C6A 1164  17.320   1.452   7.885 -0.0590 -0.1117  0.2041
   73loPI   C1B 1165  17.907   2.671   9.658  0.1947  0.3735 -0.1524
   73loPI   C2B 1166  17.826   2.725   9.230  0.2090  0.1129 -0.0780
   73loPI   C3B 1167  17.937   2.762   8.827 -0.0008 -0.0266 -0.4757
   73loPI   C4B 1168  18.139   2.583   8.437  0.1961 -0.1958 -0.3685
   74loPI    C1 1169   5.964  15.431  10.620  0.1713  0.0176 -0.0896
   74loPI    C2 1170   5.687  15.663  10.790  0.0380 -0.0502 -0.2125
   74loPI    C3 1171   6.039  15.608  10.971  0.0355  0.1712 -0.1368
   74loPI   PO4 1172   5.864  15.395  10.386  0.3978  0.2114 -0.3922
   74loPI   GL1 1173   5.848  15.366   9.943 -0.0951 -0.0617  0.0811
   74loPI   GL2 1174   5.639  15.598   9.704  0.0344 -0.0155 -0.1551
   74loPI   C1A 1175   6.021  15.087   9.604  0.0505  0.4217  0.1382
   74loPI   C2A 1176   5.888  15.167   9.180  0.1121  0.1058 -0.0219
   74loPI   C3A 1177   5.898  15.140   8.791  0.0708  0.1741 -0.0123
   74loPI   C4A 1178   5.827  15.304   8.329 -0.0769 -0.0509 -0.2470
   74loPI   C5A 1179   5.995  15.587   8.165  0.3148  0.2863 -0.1651
   74loPI   C6A 1180   5.819  15.874   7.871  0.0509 -0.1771  0.4199
   74loPI   C1B 1181   5.335  15.697   9.411 -0.0010  0.3151 -0.1223
   74loPI   C2B 1182   5.287  15.773   8.965  0.0402 -0.1339  0.2283
   74loPI   C3B 1183   5.073  15.855   8.670  0.1868 -0.0641  0.0403
   74loPI   C4B 1184   4.794  16.223   8.574 -0.2801  0.3910  0.1203
   75loPI    C1 1185  11.539   3.993  10.420 -0.0410  0.2338 -0.1128
   75loPI    C2 1186  11.558   4.028  10.818  0.0888  0.1421 -0.1106
   75loPI    C3 1187  11.531   3.666  10.650  0.2982  0.1645 -0.1954
   75loPI   PO4 1188  11.744   4.232  10.439  0.0947 -0.1017 -0.1154
   75loPI   GL1 1189  12.080   4.305  10.157  0.2711 -0.3622 -0.0020
   75loPI   GL2 1190  11.992   4.597  10.044 -0.2122  0.2003  0.1013
   75loPI   C1A 1191  12.140   4.167   9.799 -0.1071 -0.1369  0.0741
   75loPI   C2A 1192  12.012   4.299   9.446 -0.1730  0.2273 -0.1842
   75loPI   C3A 1193  12.085   4.259   9.029 -0.0729 -0.0741 -0.1396
   75loPI   C4A 1194  12.119   4.225   8.719  0.1414 -0.0518 -0.0694
   75loPI   C5A 1195  12.122   4.243   8.296 -0.0015 -0.5474 -0.0801
   75loPI   C6A 1196  12.111   4.457   7.897  0.0710  0.1556 -0.3232
   75loPI   C1B 1197  11.934   4.800   9.663  0.0380  0.0548  0.1579
   75loPI   C2B 1198  11.905   4.828   9.189  0.2995  0.0383 -0.1777
   75loPI   C3B 1199  11.873   4.749   8.768  0.0362 -0.1484  0.1050
   75loPI   C4B 1200  11.785   4.652   8.406 -0.1566 -0.0689  0.0132
   76loPI    C1 1201  16.329   0.389  10.523 -0.1063 -0.0495  0.0711
   76loPI    C2 1202  16.540   0.107  10.713 -0.0371 -0.0394  0.0097
   76loPI    C3 1203  16.192   0.232  10.865 -0.0461 -0.1253  0.0608
   76loPI   PO4 1204  16.400   0.339  10.303 -0.1742  0.0857 -0.0931
   76loPI   GL1 1205  16.309   0.409   9.782  0.1477 -0.0546 -0.0635
   76loPI   GL2 1206  16.594   0.336   9.888  0.0272  0.0393  0.2600
   76loPI   C1A 1207  16.264   0.692   9.384 -0.2050 -0.0733 -0.6769
   76loPI   C2A 1208  16.027   0.931   9.137  0.2412 -0.3326  0.1119
   76loPI   C3A 1209  15.898   0.994   8.837 -0.1270  0.1219  0.1197
   76loPI   C4A 1210  16.004   1.124   8.439  0.0955 -0.3334  0.2351
   76loPI   C5A 1211  15.891   1.157   8.019  0.0410  0.1011  0.1585
   76loPI   C6A 1212  15.898   1.319   7.638  0.4379  0.1181 -0.0975
   76loPI   C1B 1213  16.721   0.460   9.464  0.1398 -0.4630  0.0704
   76loPI   C2B 1214  16.766   0.529   9.053 -0.2918  0.2115  0.1617
   76loPI   C3B 1215  17.148   0.689   8.795 -0.0959 -0.2651  0.2282
   76loPI   C4B 1216  17.460   0.906   8.780  0.1064 -0.0593 -0.0569
   77loPI    C1 1217   7.565  18.618   9.630 -0.1379  0.0425 -0.0270
   77loPI    C2 1218   7.569  18.870   9.941  0.1939 -0.1138  0.1010
   77loPI    C3 1219   7.529  18.477  10.003  0.0594 -0.1284 -0.0702
   77loPI   PO4 1220   7.489  18.727   9.409  0.0773  0.1465 -0.1354
   77loPI   GL1 1221   7.203  19.049   9.099  0.0137 -0.1248  0.1753
   77loPI   GL2 1222   7.319  19.313   9.193  0.0263 -0.1366  0.2514
   77loPI   C1A 1223   7.130  19.313   8.702  0.0997 -0.0816 -0.1929
   77loPI   C2A 1224   6.893  19.356   8.358 -0.0559 -0.1678  0.0204
   77loPI   C3A 1225   6.880  19.648   8.101  0.0133  0.1651  0.2823
   77loPI   C4A 1226   6.716  19.875   7.786  0.0768  0.0295  0.1412
   77loPI   C5A 1227   6.841  20.061   7.426 -0.0677 -0.1063  0.2537
   77loPI   C6A 1228   6.772  20.026   6.976 -0.0519 -0.1900  0.0711
   77loPI   C1B 1229   7.562  19.217   8.846 -0.2868  0.4417  0.0571
   77loPI   C2B 1230   7.733  19.258   8.515  0.0207 -0.2496  0.0397
   77loPI   C3B 1231   7.725  19.475   8.188  0.2357  0.0370 -0.0386
   77loPI   C4B 1232   7.586  19.702   7.860 -0.2335  0.1027 -0.1166
   78loPI    C1 1233   0.255  17.322  10.613  0.1962 -0.1819 -0.1511
   78loPI    C2 1234   0.565  17.255  10.856 -0.0301  0.0967  0.2239
   78loPI    C3 1235   0.211  17.087  10.933 -0.1571  0.3521  0.2097
   78loPI   PO4 1236   0.332  17.294  10.338  0.2162  0.0655 -0.0365
   78loPI   GL1 1237   0.097  17.466   9.919 -0.4038  0.0164  0.0471
   78loPI   GL2 1238   0.107  17.783   9.762 -0.3272 -0.1401  0.0878
   78loPI   C1A 1239  -0.122  17.124   9.707 -0.2091  0.1367  0.0188
   78loPI   C2A 1240  -0.229  16.950   9.414 -0.0312 -0.3512 -0.0919
   78loPI   C3A 1241  -0.261  16.973   8.967 -0.1253  0.1198 -0.1620
   78loPI   C4A 1242  -0.256  16.885   8.566 -0.0597 -0.2568  0.0010
   78loPI   C5A 1243  -0.296  16.887   8.186  0.0831 -0.2162 -0.1171
   78loPI   C6A 1244  -0.450  16.730   7.783  0.0687 -0.1802 -0.3482
   78loPI   C1B 1245   0.275  17.891   9.344 -0.1579  0.1687  0.0114
   78loPI   C2B 1246   0.083  17.757   8.963 -0.0578 -0.1286 -0.1299
   78loPI   C3B 1247   0.003  17.763   8.525 -0.0094 -0.0055  0.0984
   78loPI   C4B 1248   0.001  17.696   8.066 -0.2013  0.2017  0.1751
   79loPI    C1 1249   9.640  10.961  10.629 -0.1693  0.1755 -0.2954
   79loPI    C2 1250   9.247  10.967  10.704 -0.1160 -0.0739  0.0220
   79loPI    C3 1251   9.465  11.300  10.749 -0.1661 -0.1046  0.5669
   79loPI   PO4 1252   9.601  10.818  10.371 -0.3176 -0.3750  0.3340
   79loPI   GL1 1253   9.510  10.555  10.085  0.3462 -0.0424 -0.0813
   79loPI   GL2 1254   9.537  10.268  10.063  0.0889 -0.2304 -0.3093
   79loPI   C1A 1255   9.573  10.680   9.643 -0.0983 -0.1042  0.1358
   79loPI   C2A 1256   9.666  10.672   9.225  0.0673  0.0048  0.0382
   79loPI   C3A 1257   9.584  10.857   8.943  0.2577  0.2467 -0.0672
   79loPI   C4A 1258   9.623  10.812   8.508 -0.5930 -0.0610 -0.0505
   79loPI   C5A 1259   9.699  10.790   8.078  0.1068 -0.2676 -0.1412
   79loPI   C6A 1260   9.515  10.597   7.768 -0.1806  0.0233  0.0965
   79loPI   C1B 1261   9.750  10.206   9.713  0.0598 -0.1828 -0.0213
   79loPI   C2B 1262   9.831  10.211   9.321  0.2022  0.1352  0.1359
   79loPI   C3B 1263   9.743  10.414   8.819 -0.1004  0.0076  0.0393
   79loPI   C4B 1264   9.809  10.363   8.422  0.0702 -0.2147 -0.1004
   80loPI    C1 1265   8.165  12.152  10.465 -0.2096  0.1351  0.0571
   80loPI    C2 1266   8.265  12.330  10.809  0.0410  0.2558 -0.0752
   80loPI    C3 1267   8.260  11.931  10.785  0.0635  0.2469  0.0560
   80loPI   PO4 1268   8.210  12.292  10.312 -0.1039  0.1744  0.1111
   80loPI   GL1 1269   8.121  12.471  10.000  0.1791  0.0996 -0.1350
   80loPI   GL2 1270   8.248  12.777  10.124 -0.0917 -0.1958 -0.4661
   80loPI   C1A 1271   8.329  12.652   9.629  0.1113 -0.0988 -0.0856
   80loPI   C2A 1272   8.381  13.023   9.341  0.1066  0.3127 -0.0896
   80loPI   C3A 1273   8.397  12.980   8.927 -0.4178 -0.2999 -0.1007
   80loPI   C4A 1274   8.303  12.832   8.515  0.2527 -0.3102 -0.0668
   80loPI   C5A 1275   8.258  12.823   8.101 -0.1828  0.0009  0.1040
   80loPI   C6A 1276   8.432  13.075   7.794 -0.2026 -0.1464  0.0614
   80loPI   C1B 1277   8.034  13.040   9.758  0.0995  0.0169  0.0944
   80loPI   C2B 1278   7.789  13.124   9.458  0.0364  0.0911  0.1924
   80loPI   C3B 1279   7.538  13.342   9.113 -0.0655  0.0890 -0.0424
   80loPI   C4B 1280   7.668  13.406   8.678  0.1569 -0.2217 -0.0355
   81loPI    C1 1281   8.996   4.572  10.834  0.0267 -0.2999  0.0921
   81loPI    C2 1282   9.007   4.342  11.161 -0.0540 -0.2724  0.1142
   81loPI    C3 1283   8.668   4.528  11.057  0.0614 -0.0064  0.2054
   81loPI   PO4 1284   9.081   4.322  10.632  0.2391 -0.0388 -0.2496
   81loPI   GL1 1285   9.260   4.276  10.298  0.3526  0.0552  0.3658
   81loPI   GL2 1286   9.476   4.368  10.084 -0.1337  0.1088 -0.3071
   81loPI   C1A 1287   8.998   4.330   9.962  0.1176 -0.0677  0.2722
   81loPI   C2A 1288   8.948   4.441   9.523  0.1779  0.0527 -0.0111
   81loPI   C3A 1289   8.962   4.431   9.049 -0.1041  0.0941 -0.3889
   81loPI   C4A 1290   9.019   4.461   8.590 -0.1127 -0.1137 -0.2578
   81loPI   C5A 1291   9.132   4.483   8.145 -0.2429  0.1353 -0.5076
   81loPI   C6A 1292   9.235   4.452   7.722 -0.1984 -0.1579  0.1572
   81loPI   C1B 1293   9.449   4.361   9.612 -0.2977 -0.0023 -0.0252
   81loPI   C2B 1294   9.546   4.420   9.219  0.0802 -0.1279 -0.1079
   81loPI   C3B 1295   9.455   4.411   8.778  0.1339  0.3100 -0.0326
   81loPI   C4B 1296   9.540   4.432   8.379 -0.1644  0.0838  0.1301
   82loPI    C1 1297   1.880   0.897  10.657  0.0949 -0.0763  0.2442
   82loPI    C2 1298   1.758   1.257  10.532  0.3206 -0.0147  0.1965
   82loPI    C3 1299   1.565   1.072  10.830 -0.0857 -0.0633 -0.0895
   82loPI   PO4 1300   1.888   0.782  10.405  0.2636 -0.0925  0.0682
   82loPI   GL1 1301   1.780   0.930  10.004  0.0742  0.1285  0.1301
   82loPI   GL2 1302   1.430   0.943   9.805  0.3436  0.0421  0.2145
   82loPI   C1A 1303   1.972   0.947   9.677 -0.1635  0.0882 -0.2428
   82loPI   C2A 1304   2.010   0.920   9.262  0.0964 -0.1841 -0.3343
   82loPI   C3A 1305   2.123   0.848   8.908 -0.1407  0.0081  0.2005
   82loPI   C4A 1306   2.183   0.911   8.531  0.2028  0.1216 -0.0634
   82loPI   C5A 1307   2.081   0.970   8.166  0.2251  0.0225 -0.0445
   82loPI   C6A 1308   2.118   0.915   7.781 -0.0857 -0.1979 -0.0342
   82loPI   C1B 1309   1.347   0.894   9.271  0.1311  0.2632  0.1296
   82loPI   C2B 1310   1.343   0.368   9.141 -0.3066  0.0906  0.0394
   82loPI   C3B 1311   1.254   0.074   8.759  0.1551 -0.3203  0.2072
   82loPI   C4B 1312   1.010   0.049   8.297 -0.2709 -0.0628 -0.0016
   83loPI    C1 1313   3.085   9.502  10.131  0.1337  0.0470 -0.1767
   83loPI    C2 1314   2.839   9.791  10.005 -0.0102 -0.0669 -0.1591
   83loPI    C3 1315   3.235   9.845   9.988 -0.0353  0.3222  0.2848
   83loPI   PO4 1316   3.038   9.321   9.936  0.1270 -0.0727 -0.0387
   83loPI   GL1 1317   2.979   9.442   9.487  0.0968 -0.1635 -0.1797
   83loPI   GL2 1318   3.026   9.727   9.542  0.0053  0.0216  0.2256
   83loPI   C1A 1319   2.962   9.200   9.079 -0.1102  0.1759  0.1738
   83loPI   C2A 1320   2.678   9.096   8.722  0.1332  0.1344  0.1033
   83loPI   C3A 1321   2.507   9.044   8.297 -0.1154  0.0295 -0.1715
   83loPI   C4A 1322   2.259   8.904   7.955 -0.3950  0.1278 -0.2568
   83loPI   C5A 1323   2.134   9.052   7.546  0.0541  0.0544 -0.4310
   83loPI   C6A 1324   1.952   9.417   7.380  0.1783  0.1288 -0.1915
   83loPI   C1B 1325   2.999   9.754   9.124 -0.1448  0.1485  0.0060
   83loPI   C2B 1326   2.746   9.598   8.774 -0.0303 -0.2234 -0.0764
   83loPI   C3B 1327   2.596   9.508   8.346 -0.1134  0.1759  0.1556
   83loPI   C4B 1328   2.334   9.424   7.919 -0.1726 -0.2885  0.0722
   84loPI    C1 1329   7.660   7.024  10.671  0.0042  0.1783 -0.1721
   84loPI    C2 1330   7.495   6.813  10.969  0.0512  0.0569 -0.2312
   84loPI    C3 1331   7.300   7.125  10.812  0.0504  0.1558 -0.0361
   84loPI   PO4 1332   7.664   6.831  10.536 -0.1913  0.2239  0.1127
   84loPI   GL1 1333   7.354   6.705  10.148  0.0762 -0.0888 -0.0097
   84loPI   GL2 1334   7.625   6.481  10.184  0.4893  0.0357 -0.0721
   84loPI   C1A 1335   7.418   6.904   9.743 -0.3379  0.0158 -0.1240
   84loPI   C2A 1336   7.453   6.903   9.285  0.1604 -0.1595 -0.0557
   84loPI   C3A 1337   7.557   6.934   8.895 -0.1014  0.0933  0.2095
   84loPI   C4A 1338   7.699   7.279   8.659 -0.1066  0.2272 -0.0731
   84loPI   C5A 1339   7.653   7.474   8.242 -0.3434  0.0350 -0.0187
   84loPI   C6A 1340   7.722   7.525   7.924 -0.1060  0.2722  0.0980
   84loPI   C1B 1341   7.683   6.411   9.677 -0.3556  0.1154  0.1730
   84loPI   C2B 1342   7.623   6.473   9.201  0.0287 -0.0083  0.1147
   84loPI   C3B 1343   7.717   6.371   8.699 -0.1759  0.1194  0.0103
   84loPI   C4B 1344   7.733   6.508   8.304  0.1548  0.3033 -0.2173
   85loPI    C1 1345  15.019  18.131  10.377  0.0672  0.3988  0.0222
   85loPI    C2 1346  14.754  18.156  10.676 -0.2060  0.1516 -0.1939
   85loPI    C3 1347  15.117  18.001  10.743 -0.2761  0.0689  0.0031
   85loPI   PO4 1348  15.117  18.232  10.300  0.1667 -0.0919 -0.0553
   85loPI   GL1 1349  15.281  18.226   9.807  0.0367  0.0914  0.1825
   85loPI   GL2 1350  14.944  18.286   9.872  0.0015 -0.1289 -0.0546
   85loPI   C1A 1351  15.128  17.870   9.495 -0.2900  0.0465  0.2912
   85loPI   C2A 1352  15.120  17.701   8.998 -0.2715  0.0491  0.0500
   85loPI   C3A 1353  15.105  17.639   8.623  0.1208  0.1188  0.0930
   85loPI   C4A 1354  15.110  17.520   8.239 -0.0161  0.1330 -0.2892
   85loPI   C5A 1355  15.475  17.610   7.919  0.2403  0.0491 -0.0814
   85loPI   C6A 1356  15.867  17.260   7.631  0.0546 -0.1407  0.2327
   85loPI   C1B 1357  14.792  18.334   9.449  0.0989 -0.0270  0.0392
   85loPI   C2B 1358  14.806  18.529   9.030  0.1593 -0.0314  0.0753
   85loPI   C3B 1359  14.923  18.601   8.600  0.3303 -0.0848 -0.0477
   85loPI   C4B 1360  14.860  18.447   8.174 -0.2412  0.2060 -0.1153
   86loPI    C1 1361   5.137  17.846   9.875 -0.1505  0.0100  0.0652
   86loPI    C2 1362   5.498  17.809  10.043 -0.1146  0.2886  0.0533
   86loPI    C3 1363   5.280  18.138  10.107 -0.2859  0.2065 -0.0956
   86loPI   PO4 1364   5.030  17.811   9.633 -0.1075 -0.4282 -0.0424
   86loPI   GL1 1365   5.042  17.953   9.201 -0.4755  0.0937  0.0463
   86loPI   GL2 1366   5.380  17.910   9.149 -0.2586  0.2365 -0.3268
   86loPI   C1A 1367   5.155  18.260   8.946  0.4136 -0.0784 -0.0942
   86loPI   C2A 1368   4.926  18.615   8.741 -0.0030 -0.0145  0.2169
   86loPI   C3A 1369   4.838  18.946   8.264  0.2589  0.0926  0.0352
   86loPI   C4A 1370   5.043  19.335   8.013  0.2248  0.0256 -0.0629
   86loPI   C5A 1371   5.259  19.477   7.610  0.2944  0.0303 -0.0112
   86loPI   C6A 1372   5.399  19.381   7.160 -0.0300 -0.0302  0.2395
   86loPI   C1B 1373   5.206  17.688   8.814  0.0518 -0.0075  0.0206
   86loPI   C2B 1374   5.139  17.531   8.454  0.1342 -0.0803  0.1972
   86loPI   C3B 1375   5.051  17.447   8.133  0.0809 -0.1659  0.1736
   86loPI   C4B 1376   5.075  17.551   7.729  0.2868 -0.0080  0.1229
   87loPI    C1 1377  13.983   6.294  10.853  0.1594 -0.0018  0.1960
   87loPI    C2 1378  13.994   6.472  11.211  0.1552  0.0378  0.1764
   87loPI    C3 1379  14.152   6.107  11.164  0.1285  0.0199  0.2258
   87loPI   PO4 1380  13.750   6.455  10.772  0.2581  0.0015  0.3261
   87loPI   GL1 1381  13.430   6.398  10.526  0.0114 -0.0063  0.1074
   87loPI   GL2 1382  13.671   6.149  10.397 -0.0358 -0.1536 -0.1199
   87loPI   C1A 1383  13.403   6.385  10.075  0.0233 -0.3584 -0.1278
   87loPI   C2A 1384  13.583   6.443   9.708 -0.1083  0.1248 -0.0130
   87loPI   C3A 1385  13.549   6.452   9.224 -0.4460 -0.1398 -0.0727
   87loPI   C4A 1386  13.702   6.378   8.858  0.3089 -0.0568  0.0753
   87loPI   C5A 1387  13.757   6.416   8.422  0.0118 -0.1146 -0.1641
   87loPI   C6A 1388  13.797   6.497   8.013 -0.1790 -0.2190 -0.3364
   87loPI   C1B 1389  13.722   5.993   9.942  0.0365 -0.1234 -0.0440
   87loPI   C2B 1390  13.755   6.008   9.497  0.0337  0.2004 -0.0548
   87loPI   C3B 1391  13.798   5.816   9.068 -0.1046 -0.1258  0.1371
   87loPI   C4B 1392  13.849   5.914   8.601  0.1823  0.1042 -0.1450
   88loPI    C1 1393  18.439   8.330  11.137 -0.4237 -0.0073  0.1616
   88loPI    C2 1394  18.690   8.586  11.315 -0.2404  0.1165 -0.2622
   88loPI    C3 1395  18.326   8.523  11.469 -0.0656  0.1675  0.1869
   88loPI   PO4 1396  18.412   8.423  10.875  0.4217 -0.0955  0.1339
   88loPI   GL1 1397  18.229   8.362  10.464  0.2458  0.1031 -0.2087
   88loPI   GL2 1398  18.469   8.249  10.162  0.0298  0.1853  0.4243
   88loPI   C1A 1399  18.000   8.324  10.054 -0.0473 -0.0086 -0.0485
   88loPI   C2A 1400  18.071   8.237   9.683 -0.2256  0.1789  0.0397
   88loPI   C3A 1401  18.114   8.275   9.260 -0.0978  0.1952  0.1168
   88loPI   C4A 1402  18.020   8.343   8.883 -0.1952  0.1181  0.0491
   88loPI   C5A 1403  17.725   8.307   8.564  0.0788  0.2420  0.3262
   88loPI   C6A 1404  17.631   8.156   8.129  0.0513  0.5554 -0.0224
   88loPI   C1B 1405  18.532   8.162   9.722  0.2012 -0.0197 -0.0531
   88loPI   C2B 1406  18.595   8.289   9.305 -0.0413  0.1410  0.1116
   88loPI   C3B 1407  18.685   8.346   8.924  0.3421  0.0650  0.2195
   88loPI   C4B 1408  18.635   8.385   8.508 -0.0621 -0.1398 -0.3787
   89loPI    C1 1409  18.740   6.681  10.475  0.0359  0.2611 -0.0581
   89loPI    C2 1410  18.385   6.530  10.578  0.0353  0.2200 -0.1195
   89loPI    C3 1411  18.708   6.454  10.802  0.0484  0.0696 -0.1888
   89loPI   PO4 1412  18.621   6.876  10.330  0.0595 -0.0378 -0.0915
   89loPI   GL1 1413  18.283   6.736  10.125  0.0614 -0.2807 -0.0673
   89loPI   GL2 1414  18.393   6.535  10.032  0.3080 -0.2503  0.0903
   89loPI   C1A 1415  18.038   6.700   9.739  0.1083  0.3366 -0.0981
   89loPI   C2A 1416  18.258   6.838   9.405  0.3095 -0.2846  0.1886
   89loPI   C3A 1417  18.275   6.890   9.014  0.0611  0.1390 -0.1726
   89loPI   C4A 1418  18.409   7.004   8.605 -0.1207  0.1666 -0.2043
   89loPI   C5A 1419  18.524   7.066   8.254 -0.0122  0.3686  0.1292
   89loPI   C6A 1420  18.382   6.854   7.784  0.1680  0.0281 -0.1298
   89loPI   C1B 1421  18.688   6.648   9.667  0.1119  0.4765  0.1531
   89loPI   C2B 1422  18.729   6.593   9.127  0.1707 -0.1890  0.2119
   89loPI   C3B 1423  18.835   6.550   8.664  0.1479 -0.1487 -0.1430
   89loPI   C4B 1424  18.935   6.661   8.312 -0.2958 -0.0354 -0.2006
   90loPI    C1 1425  11.491  11.685  10.193  0.1256  0.2872 -0.2197
   90loPI    C2 1426  11.440  11.512  10.550  0.1883 -0.0344 -0.3632
   90loPI    C3 1427  11.684  11.827  10.513 -0.0396  0.1824 -0.0717
   90loPI   PO4 1428  11.480  11.533  10.015 -0.0151 -0.1635 -0.2778
   90loPI   GL1 1429  11.641  11.320   9.839  0.4099 -0.1527  0.3091
   90loPI   GL2 1430  11.415  11.177   9.663  0.3605 -0.0531  0.0296
   90loPI   C1A 1431  11.870  11.037   9.613  0.2098  0.1375  0.1798
   90loPI   C2A 1432  11.885  10.915   9.141 -0.0298 -0.0079 -0.1364
   90loPI   C3A 1433  11.893  10.869   8.611 -0.0582  0.2476  0.0993
   90loPI   C4A 1434  11.888  11.211   8.436 -0.2005 -0.0535 -0.1772
   90loPI   C5A 1435  11.836  11.660   8.635 -0.1387  0.1898  0.4708
   90loPI   C6A 1436  11.875  12.190   8.526  0.1028  0.1586  0.5022
   90loPI   C1B 1437  11.450  11.270   9.287 -0.5442 -0.1039 -0.0327
   90loPI   C2B 1438  11.531  11.266   8.870 -0.1507 -0.0285  0.2393
   90loPI   C3B 1439  11.337  11.385   8.521  0.0839  0.1535 -0.2317
   90loPI   C4B 1440  11.152  11.729   8.349  0.0378 -0.1356  0.4359
   91loPI    C1 1441  16.267  14.082  10.950  0.0304  0.1308  0.1101
   91loPI    C2 1442  16.621  14.084  11.137 -0.0197  0.3496  0.2066
   91loPI    C3 1443  16.289  13.983  11.337  0.0012  0.0335  0.0869
   91loPI   PO4 1444  16.304  14.144  10.708 -0.0327  0.0235 -0.0761
   91loPI   GL1 1445  16.455  14.399  10.368 -0.4745  0.1781 -0.2766
   91loPI   GL2 1446  16.781  14.579  10.325 -0.0225 -0.0129  0.4261
   91loPI   C1A 1447  16.279  14.215   9.949 -0.4146  0.0146 -0.2448
   91loPI   C2A 1448  16.135  14.199   9.457 -0.1297  0.3717  0.2313
   91loPI   C3A 1449  16.169  14.048   9.006  0.0157 -0.1237 -0.2663
   91loPI   C4A 1450  15.932  13.966   8.657 -0.0352 -0.0606 -0.2953
   91loPI   C5A 1451  15.701  14.211   8.524 -0.1870  0.1029 -0.1147
   91loPI   C6A 1452  15.538  14.267   8.048  0.0959 -0.0195  0.2442
   91loPI   C1B 1453  16.720  14.535   9.912  0.0829  0.1580 -0.4646
   91loPI   C2B 1454  16.661  14.503   9.472 -0.2349  0.3334 -0.1828
   91loPI   C3B 1455  16.526  14.369   9.097 -0.0691 -0.3265  0.0745
   91loPI   C4B 1456  16.588  14.210   8.718  0.1477 -0.3395  0.0552
   92loPI    C1 1457   5.661  16.945   9.890  0.0069  0.3417  0.3126
   92loPI    C2 1458   5.571  16.877  10.273 -0.0181 -0.1956  0.2186
   92loPI    C3 1459   5.808  16.622  10.075  0.2113  0.2186 -0.0537
   92loPI   PO4 1460   5.842  17.314   9.795  0.1044  0.2102  0.0173
   92loPI   GL1 1461   5.996  17.395   9.438 -0.2331  0.1588  0.0784
   92loPI   GL2 1462   5.734  17.464   9.156 -0.0173  0.1481 -0.1681
   92loPI   C1A 1463   6.102  17.105   9.068 -0.0121 -0.1148 -0.2065
   92loPI   C2A 1464   6.259  16.912   8.604  0.1968  0.1531 -0.3249
   92loPI   C3A 1465   6.391  16.717   8.342  0.1196 -0.0551  0.0903
   92loPI   C4A 1466   6.528  16.509   8.022 -0.1184  0.0157  0.2688
   92loPI   C5A 1467   6.632  16.382   7.635 -0.0254 -0.1536  0.1848
   92loPI   C6A 1468   7.097  16.518   7.575  0.2181  0.0946  0.2107
   92loPI   C1B 1469   5.864  17.375   8.761  0.0789 -0.1172  0.2587
   92loPI   C2B 1470   5.996  17.267   8.293 -0.0186 -0.1582 -0.2817
   92loPI   C3B 1471   6.033  17.003   7.884 -0.0579  0.1139  0.2668
   92loPI   C4B 1472   6.165  16.669   7.671  0.1232  0.2581 -0.0779
   93loPI    C1 1473  10.508   4.631  10.870 -0.1307  0.2570 -0.1739
   93loPI    C2 1474  10.207   4.750  11.105  0.1170  0.2202  0.1698
   93loPI    C3 1475  10.539   4.597  11.267  0.1459 -0.1546 -0.2240
   93loPI   PO4 1476  10.548   4.824  10.719  0.2125 -0.1764 -0.0234
   93loPI   GL1 1477  10.375   4.949  10.286  0.0880 -0.1137 -0.3074
   93loPI   GL2 1478  10.688   5.197  10.309 -0.3412 -0.0213  0.1083
   93loPI   C1A 1479  10.275   4.676   9.855 -0.0572 -0.0731  0.1667
   93loPI   C2A 1480  10.261   4.690   9.394 -0.0522  0.0002  0.2014
   93loPI   C3A 1481  10.297   4.835   8.931 -0.0028 -0.1125 -0.2495
   93loPI   C4A 1482  10.333   4.791   8.501  0.0790  0.0701  0.3112
   93loPI   C5A 1483  10.422   4.814   8.094  0.0307 -0.0874  0.0591
   93loPI   C6A 1484  10.772   4.723   7.768  0.0129 -0.1658  0.0310
   93loPI   C1B 1485  10.570   5.201   9.873  0.2091 -0.0600  0.1101
   93loPI   C2B 1486  10.592   5.211   9.405 -0.0703 -0.1917 -0.2812
   93loPI   C3B 1487  10.589   5.280   8.905  0.1136  0.1575  0.0467
   93loPI   C4B 1488  10.589   5.189   8.432  0.1477  0.0608  0.0676
   94loPI    C1 1489   5.074  18.686   9.836  0.0615  0.3140 -0.0680
   94loPI    C2 1490   4.902  18.924  10.108 -0.2089 -0.0287  0.0679
   94loPI    C3 1491   5.086  18.588  10.223  0.0388  0.0338 -0.1365
   94loPI   PO4 1492   5.189  18.910   9.704 -0.0872 -0.4823  0.2586
   94loPI   GL1 1493   5.405  19.099   9.392 -0.0609  0.1181 -0.0558
   94loPI   GL2 1494   5.248  19.353   9.198  0.0156 -0.1826  0.0755
   94loPI   C1A 1495   5.331  18.858   9.012 -0.0201 -0.2122 -0.1944
   94loPI   C2A 1496   5.342  18.958   8.560 -0.0654  0.2006 -0.0384
   94loPI   C3A 1497   5.530  18.985   8.193  0.0631  0.0247 -0.0399
   94loPI   C4A 1498   5.586  18.602   7.857 -0.3816  0.0288  0.2149
   94loPI   C5A 1499   5.994  18.557   7.612  0.1178  0.3457 -0.1727
   94loPI   C6A 1500   6.418  18.530   7.390  0.0405  0.2420  0.0940
   94loPI   C1B 1501   5.566  19.325   8.919  0.0241  0.1107  0.0930
   94loPI   C2B 1502   5.697  19.487   8.594 -0.0213 -0.1390 -0.0224
   94loPI   C3B 1503   5.908  19.317   8.251 -0.0920  0.1578  0.1567
   94loPI   C4B 1504   5.925  19.084   7.876  0.2308  0.0158 -0.2919
   95loPI    C1 1505  11.103   2.374  10.096 -0.0510  0.0610  0.0363
   95loPI    C2 1506  10.954   2.156  10.397 -0.1894 -0.0616 -0.1193
   95loPI    C3 1507  11.286   2.373  10.452 -0.2114 -0.0861  0.1198
   95loPI   PO4 1508  10.929   2.550  10.073 -0.2455  0.2887 -0.2379
   95loPI   GL1 1509  10.939   2.763   9.745  0.0040 -0.0888  0.0852
   95loPI   GL2 1510  11.205   2.974   9.833 -0.0744 -0.1642 -0.2401
   95loPI   C1A 1511  10.707   3.010   9.353  0.1506 -0.3991  0.1580
   95loPI   C2A 1512  10.786   2.980   9.026 -0.0788  0.0600  0.0130
   95loPI   C3A 1513  10.623   3.036   8.572 -0.0727 -0.1301  0.1844
   95loPI   C4A 1514  10.684   2.979   8.080 -0.1330 -0.0128 -0.0600
   95loPI   C5A 1515  10.824   3.319   7.806 -0.2367 -0.1163 -0.1814
   95loPI   C6A 1516  11.050   3.277   7.456 -0.2581  0.1591  0.1467
   95loPI   C1B 1517  11.206   2.960   9.442 -0.2979 -0.0720 -0.0694
   95loPI   C2B 1518  11.298   2.945   8.985 -0.0280  0.0725  0.1530
   95loPI   C3B 1519  11.226   2.974   8.506 -0.3107  0.0366 -0.0815
   95loPI   C4B 1520  11.193   2.925   8.109  0.0625 -0.1176 -0.2506
   96loPI    C1 1521   0.976  12.491  10.744  0.0166 -0.1854 -0.1154
   96loPI    C2 1522   0.928  12.094  10.734  0.0932 -0.2001  0.0650
   96loPI    C3 1523   0.895  12.291  11.080 -0.0302 -0.0374 -0.0376
   96loPI   PO4 1524   1.245  12.541  10.645  0.0042  0.0643 -0.2018
   96loPI   GL1 1525   1.216  12.540  10.174 -0.2283 -0.2601 -0.0663
   96loPI   GL2 1526   0.932  12.788  10.213  0.1754  0.0617 -0.2790
   96loPI   C1A 1527   1.434  12.535   9.776  0.0834 -0.0460 -0.0028
   96loPI   C2A 1528   1.359  12.554   9.397  0.0688  0.0630 -0.1000
   96loPI   C3A 1529   1.294  12.509   9.018 -0.1617  0.0365 -0.0006
   96loPI   C4A 1530   1.278  12.413   8.562  0.2525  0.0892  0.0732
   96loPI   C5A 1531   1.166  12.374   8.107  0.3204  0.0441  0.1946
   96loPI   C6A 1532   1.089  12.458   7.720  0.2834 -0.3911  0.0272
   96loPI   C1B 1533   0.781  12.707   9.853 -0.1218 -0.2217  0.1951
   96loPI   C2B 1534   0.841  12.656   9.428 -0.0887  0.0730  0.0581
   96loPI   C3B 1535   0.785  12.714   9.016 -0.2796  0.0070 -0.1320
   96loPI   C4B 1536   0.806  12.663   8.562 -0.0832  0.4360  0.2159
   97loPI    C1 1537  15.033  10.999  10.906  0.0339  0.3724 -0.1676
   97loPI    C2 1538  14.886  11.361  10.994  0.2575  0.3389  0.3834
   97loPI    C3 1539  15.089  11.155  11.270  0.2185 -0.1706  0.0457
   97loPI   PO4 1540  14.885  10.975  10.695 -0.1937 -0.1199  0.2592
   97loPI   GL1 1541  15.086  11.165  10.168  0.1994 -0.2276  0.0129
   97loPI   GL2 1542  15.022  10.909  10.023  0.0719 -0.1860  0.0956
   97loPI   C1A 1543  14.772  11.237   9.703 -0.0727 -0.0483  0.0832
   97loPI   C2A 1544  14.644  11.281   9.222 -0.1365 -0.0138  0.0052
   97loPI   C3A 1545  14.401  11.376   8.799  0.0424 -0.0511  0.1269
   97loPI   C4A 1546  14.657  11.309   8.390 -0.0334  0.1824  0.2079
   97loPI   C5A 1547  14.674  10.811   8.329 -0.1350  0.2500 -0.4150
   97loPI   C6A 1548  14.387  10.494   8.398  0.0533 -0.1840 -0.2138
   97loPI   C1B 1549  14.895  10.765   9.629  0.1457 -0.0720 -0.2462
   97loPI   C2B 1550  14.877  10.827   9.169  0.0474  0.0906  0.3034
   97loPI   C3B 1551  14.563  10.888   8.840  0.1773 -0.0384  0.1172
   97loPI   C4B 1552  14.238  10.984   8.599  0.1538 -0.1964  0.2091
   98loPI    C1 1553   4.616   9.159  10.370  0.1362 -0.1152  0.1410
   98loPI    C2 1554   4.935   9.366  10.493  0.1488 -0.1122  0.1027
   98loPI    C3 1555   4.640   9.284  10.750  0.0255  0.1717  0.0561
   98loPI   PO4 1556   4.618   9.303  10.051  0.2047 -0.1053  0.1851
   98loPI   GL1 1557   4.817   9.310   9.673  0.1775 -0.0780 -0.2312
   98loPI   GL2 1558   5.001   9.572   9.522  0.1579  0.1651 -0.0122
   98loPI   C1A 1559   4.755   9.340   9.187  0.0445  0.0139  0.0440
   98loPI   C2A 1560   5.103   9.235   8.878 -0.1205  0.0652 -0.0491
   98loPI   C3A 1561   5.405   9.259   8.661 -0.2201  0.2748 -0.0967
   98loPI   C4A 1562   5.709   9.297   8.529 -0.2505  0.1459 -0.0690
   98loPI   C5A 1563   5.973   9.401   8.224 -0.0528  0.0890  0.0439
   98loPI   C6A 1564   6.073   9.648   7.779  0.3835 -0.0018  0.0575
   98loPI   C1B 1565   5.130   9.716   9.218 -0.2476  0.4230  0.2477
   98loPI   C2B 1566   4.841   9.726   8.873 -0.0034  0.0181  0.1965
   98loPI   C3B 1567   5.108   9.674   8.519  0.0600 -0.2407  0.3396
   98loPI   C4B 1568   5.455   9.595   8.225  0.2310 -0.0728  0.1786
   99loPI    C1 1569  12.206   2.455  10.396 -0.1818  0.1580  0.2185
   99loPI    C2 1570  12.356   2.744  10.628  0.0782  0.0851  0.1448
   99loPI    C3 1571  12.197   2.835  10.273  0.1330  0.1410  0.1345
   99loPI   PO4 1572  12.448   2.278  10.339 -0.1068 -0.0963  0.0159
   99loPI   GL1 1573  12.736   2.316   9.956  0.3002 -0.0375  0.0168
   99loPI   GL2 1574  12.421   2.448   9.863 -0.3439  0.2458 -0.0989
   99loPI   C1A 1575  12.942   2.318   9.563 -0.0020 -0.1424  0.1569
   99loPI   C2A 1576  13.039   2.375   9.144 -0.2063  0.1444 -0.3055
   99loPI   C3A 1577  12.998   2.441   8.687 -0.2371  0.3006 -0.1049
   99loPI   C4A 1578  12.954   2.479   8.258 -0.1442  0.0428  0.0517
   99loPI   C5A 1579  12.756   2.555   7.879  0.0811 -0.0558 -0.3365
   99loPI   C6A 1580  12.378   2.488   7.676 -0.4235 -0.0045  0.2185
   99loPI   C1B 1581  12.432   2.362   9.402 -0.0550  0.2312  0.2058
   99loPI   C2B 1582  12.580   2.520   9.016 -0.2907  0.2360  0.0148
   99loPI   C3B 1583  12.521   2.490   8.575 -0.0957 -0.0931  0.1454
   99loPI   C4B 1584  12.406   2.332   8.207 -0.1064  0.1654  0.2458
  100loPI    C1 1585   3.449  11.439  10.370  0.0975  0.1009  0.0317
  100loPI    C2 1586   3.622  11.106  10.509  0.1544  0.0812 -0.0856
  100loPI    C3 1587   3.505  11.392  10.763 -0.1388 -0.1449  0.0393
  100loPI   PO4 1588   3.535  11.441  10.107 -0.0272  0.0160  0.1138
  100loPI   GL1 1589   3.196  11.512   9.777  0.1574  0.0795  0.0168
  100loPI   GL2 1590   3.033  11.186   9.720 -0.1952  0.0271  0.1816
  100loPI   C1A 1591   3.379  11.606   9.457  0.0457  0.2802  0.0025
  100loPI   C2A 1592   3.553  11.461   9.011  0.0329  0.0368  0.0620
  100loPI   C3A 1593   3.691  11.600   8.585  0.0641  0.0777 -0.2699
  100loPI   C4A 1594   3.737  11.531   8.113  0.0574 -0.0001  0.2514
  100loPI   C5A 1595   3.496  11.431   7.709 -0.1854  0.1259 -0.0514
  100loPI   C6A 1596   3.183  11.711   7.434 -0.1824 -0.0748 -0.1484
  100loPI   C1B 1597   2.924  11.350   9.341  0.2789  0.0715  0.1191
  100loPI   C2B 1598   3.075  11.532   9.064 -0.0544  0.0651  0.3097
  100loPI   C3B 1599   3.191  11.710   8.728  0.2550  0.3782  0.0330
  100loPI   C4B 1600   3.259  11.689   8.263  0.0471  0.0630  0.2437
  101loPI    C1 1601  14.287   8.792  11.006 -0.2685  0.0061  0.0670
  101loPI    C2 1602  14.108   8.464  11.149 -0.3329  0.0022 -0.0216
  101loPI    C3 1603  13.991   8.825  11.273 -0.1963 -0.0113  0.1495
  101loPI   PO4 1604  14.281   8.813  10.808  0.2332 -0.0234  0.3018
  101loPI   GL1 1605  14.128   8.678  10.425  0.0228  0.0422  0.0951
  101loPI   GL2 1606  13.851   8.812  10.369  0.0484 -0.1354  0.1229
  101loPI   C1A 1607  14.474   8.661  10.114 -0.2616  0.1958  0.1292
  101loPI   C2A 1608  14.510   8.520   9.794 -0.0585 -0.0128  0.1252
  101loPI   C3A 1609  14.534   8.607   9.425 -0.0935 -0.0375 -0.0420
  101loPI   C4A 1610  14.503   8.608   9.003 -0.1823 -0.0480  0.2181
  101loPI   C5A 1611  14.514   8.673   8.584 -0.0177 -0.1788  0.1601
  101loPI   C6A 1612  14.797   8.744   8.261  0.0151 -0.0345  0.0528
  101loPI   C1B 1613  14.020   8.635   9.898  0.2628 -0.1242  0.0871
  101loPI   C2B 1614  13.967   8.658   9.486  0.0460 -0.0509  0.2467
  101loPI   C3B 1615  14.016   8.630   9.166  0.1177  0.0221 -0.1802
  101loPI   C4B 1616  14.017   8.584   8.755 -0.1664 -0.1110 -0.0250
  102loPI    C1 1617  12.768   0.280  10.257  0.0361  0.1335  0.0361
  102loPI    C2 1618  12.374   0.250  10.313  0.0450 -0.0273  0.0148
  102loPI    C3 1619  12.598   0.450  10.576 -0.0523  0.0757  0.0200
  102loPI   PO4 1620  12.848   0.346  10.059 -0.1658 -0.1083 -0.1727
  102loPI   GL1 1621  12.968   0.205   9.652  0.2005  0.0568  0.2940
  102loPI   GL2 1622  13.140  -0.054   9.549  0.1554  0.0586 -0.1261
  102loPI   C1A 1623  12.676   0.323   9.340 -0.0078 -0.1231  0.2285
  102loPI   C2A 1624  12.473   0.214   8.976  0.2684  0.0530 -0.3722
  102loPI   C3A 1625  12.138   0.274   8.658 -0.1684  0.2487  0.4272
  102loPI   C4A 1626  12.045   0.252   8.247 -0.0753 -0.3045  0.3504
  102loPI   C5A 1627  11.724  -0.048   7.986 -0.2668  0.0708  0.2452
  102loPI   C6A 1628  11.658  -0.412   8.111  0.2381  0.1969 -0.0547
  102loPI   C1B 1629  13.001  -0.014   9.156 -0.0468 -0.4636  0.0850
  102loPI   C2B 1630  13.005  -0.162   8.739  0.0811 -0.3421  0.0473
  102loPI   C3B 1631  12.910  -0.188   8.388  0.1795  0.4057  0.0118
  102loPI   C4B 1632  12.716  -0.145   7.973  0.0254 -0.1299 -0.0678
  103loPI    C1 1633   6.992  16.433  10.160  0.0808  0.0795  0.1138
  103loPI    C2 1634   6.883  16.810  10.082 -0.2201 -0.0107  0.0842
  103loPI    C3 1635   6.705  16.608  10.378 -0.0208 -0.1119  0.1365
  103loPI   PO4 1636   6.976  16.285   9.939  0.3610 -0.0342 -0.2667
  103loPI   GL1 1637   7.041  16.135   9.535 -0.1444 -0.1048 -0.1299
  103loPI   GL2 1638   7.333  15.978   9.575 -0.0526 -0.2271  0.0223
  103loPI   C1A 1639   6.725  16.249   9.140 -0.3316 -0.3314  0.0001
  103loPI   C2A 1640   6.521  16.274   8.766  0.2180  0.0089 -0.1027
  103loPI   C3A 1641   6.375  16.193   8.430 -0.0156 -0.2784  0.0612
  103loPI   C4A 1642   6.388  16.032   7.994 -0.1016 -0.0320 -0.0791
  103loPI   C5A 1643   6.123  16.206   7.596  0.1933 -0.1119 -0.3832
  103loPI   C6A 1644   5.887  16.247   7.326  0.2002  0.0786 -0.1048
  103loPI   C1B 1645   7.432  16.046   9.142  0.1487 -0.0961  0.0936
  103loPI   C2B 1646   7.471  15.949   8.623  0.0405  0.1549  0.0479
  103loPI   C3B 1647   7.363  15.955   8.205  0.0455  0.1125 -0.1406
  103loPI   C4B 1648   7.090  16.109   7.818  0.2702  0.0027  0.1673
  104loPI    C1 1649   7.233   4.487  10.756 -0.0136 -0.0562 -0.1250
  104loPI    C2 1650   7.000   4.681  11.017  0.0161 -0.0174 -0.1271
  104loPI    C3 1651   7.274   4.882  10.806  0.1300 -0.0813 -0.0409
  104loPI   PO4 1652   7.042   4.341  10.516 -0.0570 -0.2155 -0.2227
  104loPI   GL1 1653   6.942   4.587  10.091 -0.3819 -0.2350  0.3866
  104loPI   GL2 1654   6.958   4.277  10.030  0.0393  0.0165  0.2436
  104loPI   C1A 1655   6.920   4.624   9.638  0.2718  0.1098  0.1431
  104loPI   C2A 1656   6.905   4.596   9.119  0.0242 -0.0492  0.1492
  104loPI   C3A 1657   6.953   4.646   8.758  0.4842 -0.0427 -0.1025
  104loPI   C4A 1658   6.878   4.601   8.300 -0.2518 -0.1261  0.1447
  104loPI   C5A 1659   6.986   4.836   7.986  0.1835  0.2892  0.2573
  104loPI   C6A 1660   7.132   5.146   7.613  0.0960  0.0772  0.0069
  104loPI   C1B 1661   7.110   4.145   9.668 -0.1065 -0.0352  0.1073
  104loPI   C2B 1662   7.105   4.154   9.306  0.1115  0.2424 -0.3414
  104loPI   C3B 1663   7.067   4.081   8.869  0.1674 -0.0520 -0.2500
  104loPI   C4B 1664   7.192   4.209   8.442  0.2552  0.0768  0.1095
  105loPI    C1 1665  17.370  16.450  10.462  0.1407 -0.1874 -0.0474
  105loPI    C2 1666  16.992  16.318  10.473  0.0842 -0.0228  0.0033
  105loPI    C3 1667  17.230  16.271  10.791  0.0625  0.0006  0.0231
  105loPI   PO4 1668  17.380  16.628  10.276  0.2320 -0.2041  0.4090
  105loPI   GL1 1669  17.696  16.674   9.910  0.1157  0.0836  0.2588
  105loPI   GL2 1670  17.387  16.611   9.649 -0.1347  0.0512 -0.1396
  105loPI   C1A 1671  18.105  16.701   9.594  0.1568 -0.1416 -0.2191
  105loPI   C2A 1672  18.047  16.702   9.089  0.0928 -0.0622 -0.0697
  105loPI   C3A 1673  18.095  16.610   8.584 -0.0812  0.0267 -0.4216
  105loPI   C4A 1674  18.085  16.500   8.204 -0.1886  0.0495  0.1030
  105loPI   C5A 1675  18.023  16.314   7.757  0.0345  0.0715  0.0516
  105loPI   C6A 1676  17.919  15.949   7.616  0.0858 -0.1791 -0.5222
  105loPI   C1B 1677  17.201  16.524   9.321 -0.1676 -0.0447  0.0239
  105loPI   C2B 1678  17.248  16.564   8.966 -0.2174 -0.1242  0.0665
  105loPI   C3B 1679  17.080  16.470   8.599 -0.4500 -0.0520  0.2026
  105loPI   C4B 1680  16.802  16.305   8.311 -0.0881  0.0055 -0.0078
  106loPI    C1 1681   3.147   7.478  10.227 -0.1661  0.1163 -0.0231
  106loPI    C2 1682   3.310   7.815  10.367  0.1012  0.0610 -0.1946
  106loPI    C3 1683   3.398   7.464  10.538 -0.0655  0.0613 -0.1062
  106loPI   PO4 1684   3.170   7.421  10.053 -0.1565 -0.0111  0.0397
  106loPI   GL1 1685   3.219   7.335   9.691  0.0901 -0.1191 -0.1510
  106loPI   GL2 1686   3.022   7.053   9.748 -0.0834 -0.2835 -0.2231
  106loPI   C1A 1687   3.011   7.232   9.313 -0.1986  0.2386 -0.0175
  106loPI   C2A 1688   3.072   7.115   8.904  0.0959 -0.3421 -0.4098
  106loPI   C3A 1689   3.208   6.997   8.539 -0.0918 -0.2792 -0.1396
  106loPI   C4A 1690   3.428   7.093   8.227  0.0921  0.1837 -0.2508
  106loPI   C5A 1691   3.658   7.123   7.986 -0.1773  0.1394 -0.1579
  106loPI   C6A 1692   4.087   7.327   7.919 -0.0108  0.0805 -0.0616
  106loPI   C1B 1693   3.333   6.820   9.423  0.0436  0.0255  0.1134
  106loPI   C2B 1694   3.362   6.704   8.897 -0.0730  0.1717 -0.0373
  106loPI   C3B 1695   3.514   6.614   8.479 -0.0170  0.0643  0.0971
  106loPI   C4B 1696   3.572   6.589   8.050  0.1164  0.2622  0.0741
  107loPI    C1 1697  17.288   5.834  10.838  0.0607  0.0317  0.3049
  107loPI    C2 1698  16.913   5.944  10.920  0.0884  0.3955 -0.0249
  107loPI    C3 1699  17.217   6.187  11.012  0.2669  0.0245  0.4075
  107loPI   PO4 1700  17.180   5.720  10.512 -0.0128  0.0574  0.1951
  107loPI   GL1 1701  17.259   5.883  10.117  0.1814  0.1100  0.1671
  107loPI   GL2 1702  17.201   6.125  10.063  0.1864  0.0436 -0.1482
  107loPI   C1A 1703  17.302   5.676   9.754 -0.0727  0.4301  0.0377
  107loPI   C2A 1704  17.466   5.687   9.353  0.0375 -0.0740 -0.1419
  107loPI   C3A 1705  17.655   5.460   9.034 -0.1152 -0.1544  0.1491
  107loPI   C4A 1706  17.638   5.149   8.704  0.1128  0.2337 -0.1129
  107loPI   C5A 1707  17.630   5.266   8.295 -0.0645 -0.1191 -0.0730
  107loPI   C6A 1708  17.879   5.209   7.869  0.1165  0.1288  0.1109
  107loPI   C1B 1709  17.065   6.127   9.667  0.3201  0.0836 -0.1088
  107loPI   C2B 1710  17.201   6.136   9.206  0.0751  0.3274 -0.2035
  107loPI   C3B 1711  17.287   5.937   8.926 -0.0810  0.0142 -0.1137
  107loPI   C4B 1712  17.456   5.677   8.617 -0.1976 -0.0166  0.0939
  108loPI    C1 1713   5.353  12.058  10.127  0.0309  0.3176 -0.1162
  108loPI    C2 1714   5.666  12.302  10.176  0.0345  0.3060 -0.0802
  108loPI    C3 1715   5.475  12.157  10.496  0.0826  0.1971 -0.1004
  108loPI   PO4 1716   5.367  11.879   9.939 -0.1103 -0.2421 -0.0532
  108loPI   GL1 1717   5.279  12.052   9.555  0.1077  0.0972  0.1560
  108loPI   GL2 1718   5.627  12.224   9.702  0.3482  0.1102  0.1820
  108loPI   C1A 1719   5.132  12.075   9.131  0.2803 -0.2427  0.0505
  108loPI   C2A 1720   5.037  12.099   8.678 -0.0185  0.0329  0.2674
  108loPI   C3A 1721   5.072  12.120   8.223  0.0447  0.0229 -0.2119
  108loPI   C4A 1722   5.267  12.179   7.722  0.2228  0.0537  0.0897
  108loPI   C5A 1723   5.631  12.405   7.576  0.3785  0.0314 -0.0694
  108loPI   C6A 1724   5.739  12.821   7.577 -0.0476  0.4308  0.0960
  108loPI   C1B 1725   5.567  12.344   9.251  0.0214 -0.0901 -0.2516
  108loPI   C2B 1726   5.553  12.426   8.851  0.1547  0.0484 -0.0947
  108loPI   C3B 1727   5.460  12.437   8.446 -0.1880 -0.1275  0.0162
  108loPI   C4B 1728   5.730  12.291   8.166 -0.2019 -0.0073 -0.0286
  109loPI    C1 1729   3.938   8.601  10.333  0.0127  0.0801  0.2191
  109loPI    C2 1730   3.549   8.509  10.306 -0.0088  0.2372 -0.0462
  109loPI    C3 1731   3.692   8.682  10.637 -0.1138 -0.0485  0.1527
  109loPI   PO4 1732   4.023   8.432  10.174 -0.0471  0.3578 -0.1841
  109loPI   GL1 1733   3.951   8.394   9.672  0.2388 -0.0416  0.0666
  109loPI   GL2 1734   3.923   8.648   9.699  0.3272  0.2064  0.0028
  109loPI   C1A 1735   3.980   8.187   9.305  0.5863 -0.0863  0.0161
  109loPI   C2A 1736   3.915   8.151   8.921  0.1625 -0.0915  0.0599
  109loPI   C3A 1737   3.872   8.230   8.507  0.1011 -0.0531 -0.0687
  109loPI   C4A 1738   3.579   8.285   8.187 -0.0050 -0.0938  0.1656
  109loPI   C5A 1739   3.496   8.021   7.810  0.0516  0.0838  0.7908
  109loPI   C6A 1740   3.530   7.920   7.382  0.3384  0.3597  0.1992
  109loPI   C1B 1741   3.902   8.686   9.209 -0.2170 -0.0275  0.0647
  109loPI   C2B 1742   3.809   8.729   8.740 -0.0579 -0.0979  0.1009
  109loPI   C3B 1743   3.833   8.677   8.378  0.5716 -0.0294  0.0657
  109loPI   C4B 1744   3.945   8.570   7.940  0.0973  0.0811 -0.1092
  110loPI    C1 1745  15.775  10.494  10.622 -0.1008  0.0566 -0.0049
  110loPI    C2 1746  15.552  10.731  10.854 -0.0150  0.0925  0.0417
  110loPI    C3 1747  15.951  10.740  10.883 -0.0148 -0.1581  0.1427
  110loPI   PO4 1748  15.642  10.276  10.681 -0.3511  0.0635 -0.0311
  110loPI   GL1 1749  15.268  10.029  10.607 -0.2084 -0.1093  0.0030
  110loPI   GL2 1750  15.465   9.786  10.593 -0.0258  0.0407  0.0901
  110loPI   C1A 1751  15.294  10.010  10.155  0.0174 -0.0804 -0.1888
  110loPI   C2A 1752  15.238  10.102   9.830 -0.3752  0.2382  0.0163
  110loPI   C3A 1753  15.328   9.930   9.435 -0.1140 -0.0116  0.2042
  110loPI   C4A 1754  15.418   9.869   8.957  0.0886 -0.1486  0.1235
  110loPI   C5A 1755  15.498   9.674   8.480  0.2035  0.0214  0.0260
  110loPI   C6A 1756  15.680   9.327   8.334  0.0321  0.0080 -0.0982
  110loPI   C1B 1757  15.634   9.591  10.185 -0.1436  0.1929  0.3769
  110loPI   C2B 1758  15.541   9.489   9.756 -0.1710  0.1770  0.0550
  110loPI   C3B 1759  15.586   9.497   9.301 -0.2460 -0.2091  0.0176
  110loPI   C4B 1760  15.542   9.294   8.858 -0.1504  0.3811 -0.0536
  111loPI    C1 1761  10.830  11.120  10.730 -0.1715  0.0486  0.3191
  111loPI    C2 1762  11.216  11.076  10.636 -0.2485 -0.1449  0.0829
  111loPI    C3 1763  11.063  10.878  10.948 -0.2283 -0.3181 -0.0155
  111loPI   PO4 1764  10.703  11.129  10.421 -0.0677 -0.0306 -0.1435
  111loPI   GL1 1765  10.738  10.922  10.051 -0.0186 -0.1266 -0.2054
  111loPI   GL2 1766  10.976  10.824   9.840 -0.0456 -0.0519 -0.0326
  111loPI   C1A 1767  10.521  11.109   9.681  0.1408  0.0227 -0.1034
  111loPI   C2A 1768  10.451  11.074   9.260  0.0352  0.1671 -0.3072
  111loPI   C3A 1769  10.386  11.173   8.840 -0.2730 -0.0155  0.0310
  111loPI   C4A 1770  10.347  11.150   8.341 -0.0162 -0.1610 -0.0160
  111loPI   C5A 1771  10.695  11.221   8.009  0.0691 -0.1350 -0.2681
  111loPI   C6A 1772  10.775  11.191   7.625 -0.2019 -0.2019  0.1328
  111loPI   C1B 1773  11.066  10.674   9.403  0.0349 -0.1911  0.0297
  111loPI   C2B 1774  11.335  10.882   9.036 -0.0425  0.0755  0.0486
  111loPI   C3B 1775  11.403  10.930   8.564  0.1379  0.0593 -0.0117
  111loPI   C4B 1776  11.586  10.908   8.145 -0.2960  0.0298 -0.1345
  112loPI    C1 1777  14.383  11.521  10.774  0.0193 -0.1043 -0.2042
  112loPI    C2 1778  14.153  11.373  11.066 -0.1404  0.2138 -0.1634
  112loPI    C3 1779  14.469  11.601  11.157  0.1142 -0.1055 -0.2249
  112loPI   PO4 1780  14.498  11.337  10.628 -0.0361  0.1194  0.2299
  112loPI   GL1 1781  14.537  10.967  10.273  0.1395  0.3143  0.0414
  112loPI   GL2 1782  14.564  10.666  10.193 -0.0476  0.3710 -0.2588
  112loPI   C1A 1783  14.306  11.182   9.933 -0.0678 -0.3138  0.0031
  112loPI   C2A 1784  14.354  11.479   9.609  0.0884 -0.2165 -0.2042
  112loPI   C3A 1785  14.289  11.601   9.205  0.1289  0.0328  0.1508
  112loPI   C4A 1786  14.510  11.895   8.883  0.2090  0.0584  0.0849
  112loPI   C5A 1787  14.704  11.816   8.488  0.2226 -0.0056  0.0558
  112loPI   C6A 1788  14.680  11.713   8.076  0.0231 -0.1166  0.1058
  112loPI   C1B 1789  14.455  10.673   9.801 -0.0602  0.0659 -0.0788
  112loPI   C2B 1790  14.465  10.916   9.431 -0.1028 -0.1207  0.0522
  112loPI   C3B 1791  14.162  11.025   9.170 -0.0340  0.0916  0.0942
  112loPI   C4B 1792  13.927  11.292   8.863  0.0524  0.4342 -0.4792
  113loPI    C1 1793   3.136  10.992  10.187 -0.2290 -0.0829 -0.2065
  113loPI    C2 1794   3.049  10.721  10.468  0.1816 -0.1872 -0.1730
  113loPI    C3 1795   3.073  11.108  10.565  0.2725 -0.2173 -0.0737
  113loPI   PO4 1796   3.370  10.933  10.114  0.0873 -0.0619 -0.2078
  113loPI   GL1 1797   3.534  10.843   9.804  0.1721  0.2085 -0.2381
  113loPI   GL2 1798   3.576  11.149   9.663 -0.0239  0.0830 -0.0892
  113loPI   C1A 1799   3.172  10.741   9.541  0.4039  0.0811  0.1927
  113loPI   C2A 1800   2.993  10.786   9.142 -0.1870  0.0364 -0.1764
  113loPI   C3A 1801   3.016  11.096   8.865 -0.1961 -0.1945 -0.1017
  113loPI   C4A 1802   3.324  11.223   8.636  0.0168  0.3007  0.1585
  113loPI   C5A 1803   3.291  11.192   8.148  0.0990  0.1232  0.1735
  113loPI   C6A 1804   3.374  10.912   7.761 -0.0162 -0.2267 -0.1491
  113loPI   C1B 1805   3.368  11.112   9.299  0.1113  0.0897 -0.2587
  113loPI   C2B 1806   3.436  10.764   8.904 -0.1436 -0.2003 -0.0763
  113loPI   C3B 1807   3.460  10.367   8.637 -0.1234 -0.0248 -0.0127
  113loPI   C4B 1808   3.696   9.887   8.558 -0.0761 -0.0715 -0.0322
  114loPI    C1 1809  12.884   8.136  11.051  0.0121 -0.1064 -0.2954
  114loPI    C2 1810  13.263   8.070  10.941  0.1130  0.0122 -0.0257
  114loPI    C3 1811  13.184   8.268  11.280 -0.1911 -0.2545  0.0641
  114loPI   PO4 1812  12.793   8.236  10.730  0.0990 -0.1400  0.2028
  114loPI   GL1 1813  13.219   8.264  10.533 -0.0727 -0.0685  0.2265
  114loPI   GL2 1814  13.443   8.009  10.454 -0.2784 -0.2307  0.1292
  114loPI   C1A 1815  13.156   8.311  10.153  0.0888 -0.1010  0.0507
  114loPI   C2A 1816  13.183   8.263   9.756  0.4056 -0.0832 -0.0147
  114loPI   C3A 1817  13.255   8.262   9.351 -0.1286 -0.0301 -0.1145
  114loPI   C4A 1818  13.266   8.075   8.994  0.0104  0.1147 -0.0730
  114loPI   C5A 1819  13.321   8.178   8.536  0.1112 -0.1085  0.1111
  114loPI   C6A 1820  12.917   8.085   8.212 -0.2748 -0.1484  0.2480
  114loPI   C1B 1821  13.264   7.819  10.095  0.1643 -0.1181  0.0033
  114loPI   C2B 1822  13.397   7.766   9.734  0.1434 -0.1225  0.0758
  114loPI   C3B 1823  13.407   7.748   9.283 -0.2720  0.0798 -0.2152
  114loPI   C4B 1824  13.513   7.626   8.793 -0.1517  0.1096 -0.0080
  115loPI    C1 1825   9.541   3.708  11.080  0.1508 -0.0507  0.0065
  115loPI    C2 1826   9.916   3.846  11.094  0.0259  0.2770  0.2428
  115loPI    C3 1827   9.795   3.570  11.357  0.1256  0.1021  0.1070
  115loPI   PO4 1828   9.534   3.685  10.750  0.1153  0.1041  0.0305
  115loPI   GL1 1829   9.498   3.794  10.263  0.2531  0.0128 -0.2214
  115loPI   GL2 1830   9.707   3.466  10.082 -0.1518 -0.0743 -0.0235
  115loPI   C1A 1831   9.616   3.927   9.853  0.0245  0.2786  0.1089
  115loPI   C2A 1832   9.745   3.832   9.511 -0.2999  0.0270 -0.1905
  115loPI   C3A 1833   9.745   3.911   9.152 -0.1913  0.1257 -0.3138
  115loPI   C4A 1834   9.720   3.979   8.745 -0.1164 -0.1354  0.0485
  115loPI   C5A 1835   9.768   4.015   8.328 -0.1505  0.2162  0.1129
  115loPI   C6A 1836   9.969   3.987   7.865  0.0181  0.3369 -0.2701
  115loPI   C1B 1837   9.973   3.378   9.764  0.3159  0.4117 -0.0380
  115loPI   C2B 1838   9.996   3.426   9.320 -0.0547 -0.1403  0.3510
  115loPI   C3B 1839   9.920   3.454   8.884 -0.0785  0.1250  0.0431
  115loPI   C4B 1840   9.924   3.516   8.494  0.2498  0.1279  0.1530
  116loPI    C1 1841   4.022   7.596   9.943  0.0741  0.0335  0.0338
  116loPI    C2 1842   3.761   7.626  10.245  0.2390 -0.2910  0.2139
  116loPI    C3 1843   3.647   7.463   9.898  0.0581  0.0530  0.1074
  116loPI   PO4 1844   4.225   7.552  10.038  0.0079  0.4596 -0.1386
  116loPI   GL1 1845   4.585   7.608   9.873 -0.4747 -0.0511  0.0682
  116loPI   GL2 1846   4.873   7.801   9.870  0.1158  0.0147 -0.0563
  116loPI   C1A 1847   4.447   7.527   9.487  0.1383  0.2968 -0.0751
  116loPI   C2A 1848   4.352   7.439   9.140  0.0467 -0.0490 -0.0009
  116loPI   C3A 1849   4.396   7.205   8.774 -0.0776  0.3308 -0.1810
  116loPI   C4A 1850   4.450   7.049   8.305 -0.2401  0.2806 -0.2596
  116loPI   C5A 1851   4.648   6.754   7.997 -0.4228 -0.0899 -0.0277
  116loPI   C6A 1852   5.035   6.641   7.951 -0.2554  0.1021  0.1065
  116loPI   C1B 1853   4.970   8.016   9.394  0.0729  0.3124 -0.0799
  116loPI   C2B 1854   4.761   8.278   9.114 -0.1800  0.0444  0.3346
  116loPI   C3B 1855   4.722   8.264   8.648  0.3062 -0.0974 -0.1926
  116loPI   C4B 1856   4.794   8.532   8.354 -0.2874 -0.0098 -0.0799
  117loPI    C1 1857  15.529   3.938  10.598  0.0503  0.2054  0.0773
  117loPI    C2 1858  15.181   3.904  10.403  0.0006  0.0374  0.1934
  117loPI    C3 1859  15.244   4.215  10.647  0.0504  0.2310 -0.0611
  117loPI   PO4 1860  15.641   3.732  10.428  0.1162 -0.1343  0.0666
  117loPI   GL1 1861  15.476   3.687  10.035  0.0981 -0.1437 -0.0623
  117loPI   GL2 1862  15.698   3.488  10.026  0.0505  0.0550  0.1944
  117loPI   C1A 1863  15.391   3.648   9.643  0.1196  0.0925 -0.0847
  117loPI   C2A 1864  15.503   3.490   9.288  0.0230 -0.1173  0.0671
  117loPI   C3A 1865  15.443   3.510   8.790  0.0033  0.1333 -0.0941
  117loPI   C4A 1866  15.489   3.783   8.509 -0.1725 -0.2911  0.0916
  117loPI   C5A 1867  15.158   3.819   8.117 -0.3646 -0.0067  0.0873
  117loPI   C6A 1868  14.976   3.896   7.703  0.0991 -0.1440  0.1518
  117loPI   C1B 1869  15.905   3.570   9.552 -0.4423  0.0451  0.0220
  117loPI   C2B 1870  15.959   3.484   9.090 -0.0377 -0.1376 -0.1857
  117loPI   C3B 1871  15.927   3.213   8.757  0.1081 -0.0206  0.3669
  117loPI   C4B 1872  15.553   2.971   8.671  0.1866 -0.2502 -0.0086
  118loPI    C1 1873  15.730   1.990  10.403 -0.1316 -0.0756  0.1230
  118loPI    C2 1874  16.073   2.194  10.389 -0.0373 -0.2398 -0.0031
  118loPI    C3 1875  15.770   2.328  10.613  0.0907 -0.0673  0.0699
  118loPI   PO4 1876  15.733   1.929  10.153 -0.0809  0.1217 -0.0599
  118loPI   GL1 1877  15.541   2.035   9.804 -0.1491  0.0359  0.0881
  118loPI   GL2 1878  15.434   2.338   9.778  0.1236 -0.0377 -0.2319
  118loPI   C1A 1879  15.451   1.788   9.346  0.2025 -0.0947 -0.0579
  118loPI   C2A 1880  15.197   1.601   9.078 -0.0206  0.0222  0.2094
  118loPI   C3A 1881  15.173   1.426   8.639  0.0471 -0.1391 -0.0719
  118loPI   C4A 1882  15.127   1.442   8.176 -0.0919 -0.0719 -0.2434
  118loPI   C5A 1883  15.339   1.109   7.947 -0.0253  0.1328 -0.1140
  118loPI   C6A 1884  15.568   0.889   7.688 -0.2781  0.0483  0.0025
  118loPI   C1B 1885  15.120   2.216   9.410  0.2153 -0.1495 -0.2237
  118loPI   C2B 1886  14.940   2.195   9.040 -0.0626 -0.0524  0.1134
  118loPI   C3B 1887  15.069   2.001   8.620 -0.1786 -0.3245 -0.0252
  118loPI   C4B 1888  15.199   1.900   8.245 -0.0870  0.0853 -0.0193
  119loPI    C1 1889   9.198  12.466  10.331  0.0635  0.1576 -0.1682
  119loPI    C2 1890   9.502  12.267  10.496  0.0012  0.0404 -0.1935
  119loPI    C3 1891   9.402  12.629  10.633  0.0558  0.0148 -0.0853
  119loPI   PO4 1892   9.263  12.384  10.095  0.2080 -0.0233  0.1322
  119loPI   GL1 1893   9.047  12.213   9.838  0.2181  0.1224 -0.0160
  119loPI   GL2 1894   8.827  12.497   9.785  0.4533  0.1082 -0.3347
  119loPI   C1A 1895   8.946  12.175   9.330 -0.1287  0.1492  0.0116
  119loPI   C2A 1896   9.084  12.288   8.973 -0.2808  0.0278  0.0183
  119loPI   C3A 1897   9.045  12.250   8.531  0.2114  0.3280  0.1333
  119loPI   C4A 1898   8.718  12.327   8.095  0.1569  0.3595  0.0059
  119loPI   C5A 1899   8.403  12.335   7.765 -0.1950 -0.0369  0.2662
  119loPI   C6A 1900   8.448  12.476   7.359  0.0059 -0.1888  0.0847
  119loPI   C1B 1901   8.787  12.686   9.405 -0.4556 -0.0074 -0.0764
  119loPI   C2B 1902   8.884  12.922   9.030  0.3978 -0.4438 -0.2342
  119loPI   C3B 1903   8.915  12.789   8.625  0.1575  0.0707 -0.1791
  119loPI   C4B 1904   8.761  12.880   8.241  0.0335  0.2673 -0.0212
  120loPI    C1 1905   7.827  16.804  10.139  0.0166  0.1484  0.1583
  120loPI    C2 1906   7.661  16.860  10.499  0.3246  0.0724  0.3156
  120loPI    C3 1907   7.960  16.598  10.455  0.1039 -0.1267 -0.0535
  120loPI   PO4 1908   7.798  16.985   9.986 -0.0508 -0.1821 -0.2823
  120loPI   GL1 1909   7.571  17.086   9.644 -0.3945  0.0010 -0.1274
  120loPI   GL2 1910   7.888  17.216   9.504  0.1010  0.0671  0.0156
  120loPI   C1A 1911   7.296  17.619   9.498 -0.1795  0.0996 -0.2075
  120loPI   C2A 1912   7.252  17.642   9.111  0.1915  0.0339 -0.1988
  120loPI   C3A 1913   7.191  17.480   8.728  0.0633 -0.2286  0.0976
  120loPI   C4A 1914   7.078  17.545   8.291 -0.0813  0.2413 -0.3494
  120loPI   C5A 1915   6.907  17.173   8.106  0.1222  0.1691  0.1160
  120loPI   C6A 1916   6.738  16.923   7.762  0.3924 -0.1315  0.0994
  120loPI   C1B 1917   7.574  17.215   9.169 -0.0291 -0.1948  0.2291
  120loPI   C2B 1918   7.665  17.270   8.796 -0.1724  0.1794  0.0931
  120loPI   C3B 1919   7.870  17.025   8.473  0.0101 -0.2092 -0.1091
  120loPI   C4B 1920   7.716  16.786   8.127 -0.0009 -0.0029  0.0205
  121loPI    C1 1921   0.546   0.391  10.820 -0.1210  0.0008 -0.2135
  121loPI    C2 1922   0.705   0.608  11.117  0.0841 -0.0485 -0.2858
  121loPI    C3 1923   0.349   0.708  10.965 -0.0202 -0.0196 -0.0281
  121loPI   PO4 1924   0.571   0.369  10.630  0.2365  0.1431  0.0851
  121loPI   GL1 1925   0.539   0.282  10.145  0.1428  0.1868  0.1814
  121loPI   GL2 1926   0.409   0.533  10.153  0.0609 -0.0588  0.1253
  121loPI   C1A 1927   0.697   0.370   9.770  0.3359 -0.0402  0.2315
  121loPI   C2A 1928   0.787   0.300   9.309 -0.0481 -0.2333 -0.0048
  121loPI   C3A 1929   0.951   0.578   8.942  0.2192 -0.2413 -0.0090
  121loPI   C4A 1930   0.982   0.518   8.539  0.1213  0.1282 -0.1746
  121loPI   C5A 1931   1.186   0.590   8.210  0.0451 -0.1129 -0.0070
  121loPI   C6A 1932   1.283   0.773   7.792  0.1631 -0.1057  0.0548
  121loPI   C1B 1933   0.471   0.843   9.717 -0.1098  0.1012 -0.3079
  121loPI   C2B 1934   0.390   0.659   9.290  0.2480 -0.2890  0.2389
  121loPI   C3B 1935   0.418   0.464   8.861  0.1072 -0.1447  0.0498
  121loPI   C4B 1936   0.660   0.192   8.814 -0.1378  0.2911  0.0427
  122loPI    C1 1937  10.052  14.088  10.129 -0.0560 -0.0852  0.0656
  122loPI    C2 1938  10.018  14.031  10.523  0.0298 -0.1726  0.0607
  122loPI    C3 1939   9.879  13.756  10.268 -0.2803  0.0128  0.0247
  122loPI   PO4 1940  10.250  14.305  10.142  0.0974 -0.1787  0.1983
  122loPI   GL1 1941  10.271  14.720   9.882  0.2865  0.1146  0.3866
  122loPI   GL2 1942  10.537  15.038   9.901 -0.0333 -0.1482  0.0337
  122loPI   C1A 1943  10.241  14.801   9.405  0.0423 -0.1296 -0.3748
  122loPI   C2A 1944  10.375  14.757   8.951 -0.0276 -0.3709 -0.0577
  122loPI   C3A 1945  10.325  14.837   8.458  0.1977  0.0229 -0.3546
  122loPI   C4A 1946  10.250  14.853   8.070 -0.1573 -0.1546  0.1233
  122loPI   C5A 1947  10.072  14.676   7.765  0.1080 -0.0226  0.0941
  122loPI   C6A 1948   9.700  14.881   7.457 -0.2176 -0.2015  0.1110
  122loPI   C1B 1949  10.619  15.343   9.599  0.2238 -0.0181 -0.3372
  122loPI   C2B 1950  10.435  15.265   9.200 -0.1298 -0.1079  0.0225
  122loPI   C3B 1951  10.720  15.449   8.909 -0.0731  0.0916 -0.1964
  122loPI   C4B 1952  11.003  15.546   8.616 -0.0119  0.0570  0.2112
  123loPI    C1 1953   1.422  10.502  10.697 -0.0322  0.1940  0.2233
  123loPI    C2 1954   1.741  10.325  10.862  0.0412  0.1428  0.0306
  123loPI    C3 1955   1.384  10.305  11.043  0.1108  0.0515  0.1593
  123loPI   PO4 1956   1.631  10.651  10.499  0.0466 -0.1528 -0.3700
  123loPI   GL1 1957   1.801  10.618  10.093  0.0508 -0.2048  0.0841
  123loPI   GL2 1958   1.591  10.958  10.063  0.4498  0.3006  0.0338
  123loPI   C1A 1959   1.707  10.518   9.659  0.2658  0.2722 -0.1125
  123loPI   C2A 1960   1.736  10.489   9.214  0.0867 -0.1707 -0.0607
  123loPI   C3A 1961   1.725  10.419   8.862  0.1256  0.0368 -0.1578
  123loPI   C4A 1962   1.704  10.470   8.418  0.1229 -0.1355 -0.2432
  123loPI   C5A 1963   1.630  10.488   7.958 -0.2239  0.2309 -0.1408
  123loPI   C6A 1964   1.246  10.415   7.633 -0.2221 -0.1948  0.1040
  123loPI   C1B 1965   1.717  10.982   9.614  0.0011 -0.1170  0.2758
  123loPI   C2B 1966   1.708  11.010   9.167  0.1818 -0.1124  0.0614
  123loPI   C3B 1967   1.613  11.019   8.679 -0.1505  0.0055  0.1072
  123loPI   C4B 1968   1.600  11.018   8.211 -0.0133 -0.0232 -0.1870
  124loPI    C1 1969   4.635  10.005  10.145  0.2194 -0.0176  0.0897
  124loPI    C2 1970   4.846  10.009  10.485  0.0056  0.0283  0.2243
  124loPI    C3 1971   4.583   9.716  10.417 -0.1588  0.1739  0.2279
  124loPI   PO4 1972   4.801  10.050   9.899 -0.1664 -0.4131 -0.1148
  124loPI   GL1 1973   4.623  10.275   9.493 -0.2582 -0.0449 -0.0820
  124loPI   GL2 1974   4.495  10.128   9.217 -0.1700 -0.2162 -0.0853
  124loPI   C1A 1975   4.948  10.210   9.092 -0.1427 -0.1346 -0.2547
  124loPI   C2A 1976   4.969  10.173   8.669  0.1736  0.1662 -0.0553
  124loPI   C3A 1977   4.941  10.061   8.238  0.0444  0.1962 -0.0263
  124loPI   C4A 1978   5.136   9.842   7.907  0.1486  0.0660 -0.3089
  124loPI   C5A 1979   4.980   9.397   8.081 -0.0079 -0.1042 -0.0435
  124loPI   C6A 1980   4.906   8.881   8.016  0.1911 -0.4279  0.2784
  124loPI   C1B 1981   4.447  10.080   8.784  0.1211 -0.4518 -0.3320
  124loPI   C2B 1982   4.141  10.066   8.475  0.1443 -0.0080  0.2600
  124loPI   C3B 1983   4.005  10.023   8.014  0.1472  0.2233 -0.0114
  124loPI   C4B 1984   3.730   9.920   7.661  0.0587  0.0300  0.1246
  125loPI    C1 1985  13.669  13.533  10.240  0.0586 -0.1640 -0.0066
  125loPI    C2 1986  13.759  13.809  10.515  0.1858 -0.0406 -0.1706
  125loPI    C3 1987  13.641  13.445  10.629 -0.0046  0.0869  0.0479
  125loPI   PO4 1988  13.623  13.668  10.059  0.1154  0.1269 -0.1334
  125loPI   GL1 1989  13.538  13.595   9.665 -0.3056  0.1443 -0.2709
  125loPI   GL2 1990  13.451  13.899   9.691  0.0596  0.1908 -0.0280
  125loPI   C1A 1991  13.583  13.372   9.450 -0.0446 -0.1421  0.0280
  125loPI   C2A 1992  13.572  13.186   9.129 -0.2411 -0.0707 -0.0046
  125loPI   C3A 1993  13.515  13.169   8.811  0.1139 -0.2214 -0.4966
  125loPI   C4A 1994  13.526  13.337   8.393  0.2327  0.0490 -0.1923
  125loPI   C5A 1995  13.124  13.575   8.227 -0.0035 -0.0898  0.0822
  125loPI   C6A 1996  12.758  13.742   7.980  0.0517  0.1242 -0.3195
  125loPI   C1B 1997  13.656  13.905   9.319 -0.0854  0.0601  0.1236
  125loPI   C2B 1998  13.799  14.062   8.933  0.0563 -0.0359  0.1466
  125loPI   C3B 1999  14.062  13.895   8.550  0.1597 -0.3185 -0.1346
  125loPI   C4B 2000  14.368  13.737   8.389  0.1244 -0.2956  0.2220
  126loPI    C1 2001   8.186   5.625  10.750  0.0153  0.0269  0.0533
  126loPI    C2 2002   8.275   5.410  11.076  0.0080  0.0823  0.0921
  126loPI    C3 2003   7.985   5.685  11.091 -0.1423 -0.0678 -0.0219
  126loPI   PO4 2004   8.153   5.407  10.577  0.0750 -0.1813 -0.1116
  126loPI   GL1 2005   8.282   5.231  10.223 -0.2890  0.1202 -0.2014
  126loPI   GL2 2006   8.584   5.192  10.088  0.1838 -0.0449  0.4013
  126loPI   C1A 2007   8.267   4.866   9.873  0.1827  0.3966 -0.1763
  126loPI   C2A 2008   8.207   4.909   9.438  0.2122 -0.1001  0.2341
  126loPI   C3A 2009   8.223   4.883   8.970 -0.2187 -0.1670  0.0248
  126loPI   C4A 2010   8.359   5.001   8.573  0.3284 -0.2461 -0.2017
  126loPI   C5A 2011   8.419   5.032   8.159 -0.1766  0.1728 -0.3127
  126loPI   C6A 2012   8.443   5.326   7.851 -0.0916  0.0450 -0.0689
  126loPI   C1B 2013   8.482   5.330   9.659 -0.2970 -0.0580  0.0433
  126loPI   C2B 2014   8.477   5.360   9.185  0.0816  0.1003  0.1311
  126loPI   C3B 2015   8.571   5.428   8.768  0.2169 -0.1574 -0.0804
  126loPI   C4B 2016   8.746   5.504   8.329  0.1745  0.1486  0.0010
  127loPI    C1 2017   8.971   8.906  10.950  0.0121  0.0663 -0.0982
  127loPI    C2 2018   8.977   9.194  11.228 -0.0275  0.1147 -0.1473
  127loPI    C3 2019   8.939   8.811  11.337 -0.0633  0.1353 -0.0872
  127loPI   PO4 2020   8.843   9.034  10.764  0.0099  0.0445  0.2211
  127loPI   GL1 2021   8.799   8.910  10.261  0.0999  0.2097  0.1985
  127loPI   GL2 2022   8.503   8.933  10.177 -0.0780 -0.0323  0.0956
  127loPI   C1A 2023   8.867   8.866   9.810  0.2195  0.1094 -0.1180
  127loPI   C2A 2024   8.956   9.009   9.380  0.1189 -0.0641 -0.2333
  127loPI   C3A 2025   8.865   9.178   8.997  0.1700  0.0647 -0.2756
  127loPI   C4A 2026   8.646   9.175   8.606  0.1099 -0.0436 -0.0456
  127loPI   C5A 2027   8.405   9.435   8.333 -0.1370  0.1059  0.0753
  127loPI   C6A 2028   8.316   9.738   8.075 -0.0471  0.2965 -0.0911
  127loPI   C1B 2029   8.379   9.058   9.872  0.0235 -0.3996  0.3811
  127loPI   C2B 2030   8.336   9.026   9.459 -0.1754 -0.0433 -0.0839
  127loPI   C3B 2031   8.269   9.181   9.019  0.2174  0.0179 -0.3053
  127loPI   C4B 2032   8.100   9.552   8.990 -0.0218 -0.2962 -0.2581
  128loPI    C1 2033  12.230   8.740  11.342  0.0285 -0.0648  0.3681
  128loPI    C2 2034  12.624   8.671  11.350  0.0211 -0.1193  0.2741
  128loPI    C3 2035  12.487   9.046  11.353  0.0774 -0.0975  0.1689
  128loPI   PO4 2036  12.165   8.613  11.168 -0.1349 -0.0414 -0.1600
  128loPI   GL1 2037  12.049   8.713  10.655 -0.0449 -0.4217 -0.0722
  128loPI   GL2 2038  11.804   8.503  10.564  0.1109  0.0838  0.1047
  128loPI   C1A 2039  12.022   8.977  10.217 -0.0219 -0.0697  0.3800
  128loPI   C2A 2040  11.952   8.768   9.827  0.2607 -0.0633 -0.6363
  128loPI   C3A 2041  11.876   8.700   9.395 -0.0882  0.1807  0.0170
  128loPI   C4A 2042  11.994   8.617   8.964  0.1260  0.2282 -0.0727
  128loPI   C5A 2043  11.986   8.691   8.524  0.2693  0.0882 -0.2106
  128loPI   C6A 2044  12.123   8.966   8.218 -0.0125  0.3645  0.1342
  128loPI   C1B 2045  11.980   8.319  10.175  0.0234 -0.0016  0.3458
  128loPI   C2B 2046  12.212   8.350   9.728 -0.1436 -0.0258 -0.1130
  128loPI   C3B 2047  12.264   8.337   9.309  0.2743  0.0343 -0.1123
  128loPI   C4B 2048  12.299   8.200   8.878 -0.1013 -0.1119 -0.0912
  129loPI    C1 2049   0.363  18.263  10.542 -0.0220 -0.0780 -0.3150
  129loPI    C2 2050   0.701  18.063  10.467  0.3198  0.2620  0.2444
  129loPI    C3 2051   0.395  17.878  10.648  0.2367 -0.0191 -0.1699
  129loPI   PO4 2052   0.441  18.537  10.262  0.0903  0.1759 -0.1744
  129loPI   GL1 2053   0.686  18.468  10.022 -0.2926  0.2090  0.1946
  129loPI   GL2 2054   0.789  18.207   9.897  0.0651 -0.0045 -0.1127
  129loPI   C1A 2055   0.617  18.621   9.641 -0.0915  0.0017 -0.2200
  129loPI   C2A 2056   0.520  18.371   9.318  0.3268  0.1206 -0.0710
  129loPI   C3A 2057   0.570  18.133   9.006 -0.1520  0.1821  0.0344
  129loPI   C4A 2058   0.416  18.060   8.654 -0.1485 -0.2080  0.0828
  129loPI   C5A 2059   0.316  18.078   8.225 -0.0896 -0.1478  0.1682
  129loPI   C6A 2060   0.192  18.089   7.850 -0.1722  0.0250 -0.1226
  129loPI   C1B 2061   0.976  18.182   9.517  0.0627  0.2730 -0.1609
  129loPI   C2B 2062   1.052  18.002   9.163  0.2718  0.1676  0.0687
  129loPI   C3B 2063   0.921  17.934   8.764 -0.1424 -0.2280 -0.3214
  129loPI   C4B 2064   0.912  18.022   8.309  0.1278  0.0774  0.0059
  130loPI    C1 2065  17.131   6.721  10.889 -0.0670  0.1841  0.1418
  130loPI    C2 2066  17.387   6.931  10.665 -0.2684  0.1055 -0.1690
  130loPI    C3 2067  17.473   6.554  10.767 -0.1199  0.1820 -0.0062
  130loPI   PO4 2068  16.909   6.759  10.626  0.1968 -0.3767  0.1377
  130loPI   GL1 2069  16.735   6.637  10.256 -0.0462 -0.0036  0.0688
  130loPI   GL2 2070  16.469   6.667  10.199  0.0583 -0.1550 -0.6447
  130loPI   C1A 2071  16.903   6.568   9.881 -0.0014 -0.0719 -0.2184
  130loPI   C2A 2072  16.908   6.739   9.459 -0.0288  0.1099 -0.0160
  130loPI   C3A 2073  16.963   6.595   9.080  0.1366 -0.0368 -0.1704
  130loPI   C4A 2074  16.966   6.586   8.597 -0.0143 -0.1566 -0.2137
  130loPI   C5A 2075  16.962   6.526   8.178  0.1364 -0.1093  0.2369
  130loPI   C6A 2076  17.385   6.557   8.006 -0.1608 -0.0884 -0.1011
  130loPI   C1B 2077  16.459   6.735   9.720 -0.1014  0.2105 -0.0722
  130loPI   C2B 2078  16.442   6.630   9.274 -0.2638  0.0049 -0.0028
  130loPI   C3B 2079  16.491   6.584   8.836 -0.0301 -0.0638  0.0006
  130loPI   C4B 2080  16.438   6.307   8.501 -0.1996  0.0966  0.1707
  131loPI    C1 2081   1.153   2.108  10.523 -0.1015  0.1539  0.1741
  131loPI    C2 2082   1.046   1.736  10.422 -0.0015  0.1653  0.0231
  131loPI    C3 2083   1.109   1.828  10.806  0.3631 -0.0786  0.0273
  131loPI   PO4 2084   1.049   2.268  10.404 -0.0597 -0.0841 -0.1108
  131loPI   GL1 2085   0.865   2.185   9.985 -0.3838  0.3737 -0.0543
  131loPI   GL2 2086   0.634   2.137   9.672  0.4272 -0.2243 -0.0227
  131loPI   C1A 2087   1.032   2.457   9.602 -0.0498 -0.1850  0.0315
  131loPI   C2A 2088   0.917   2.303   9.147 -0.0686  0.0012 -0.0388
  131loPI   C3A 2089   0.740   2.307   8.646 -0.0104 -0.0145  0.0754
  131loPI   C4A 2090   0.847   2.357   8.281 -0.1293 -0.1072 -0.0396
  131loPI   C5A 2091   0.857   2.240   7.759  0.3643 -0.1325  0.1398
  131loPI   C6A 2092   1.327   2.264   7.549  0.1623  0.3144  0.1499
  131loPI   C1B 2093   0.485   2.105   9.270 -0.2395  0.0377 -0.0658
  131loPI   C2B 2094   0.564   1.908   8.941 -0.0541  0.1548  0.1696
  131loPI   C3B 2095   0.489   1.810   8.491  0.0896 -0.0893 -0.3241
  131loPI   C4B 2096   0.594   1.947   8.087 -0.0746  0.2347  0.3878
  132loPI    C1 2097   0.890  10.441  11.152 -0.2883 -0.0369 -0.2529
  132loPI    C2 2098   0.882  10.781  11.363  0.0883 -0.1615 -0.0275
  132loPI    C3 2099   0.603  10.501  11.425 -0.1017  0.0166 -0.0658
  132loPI   PO4 2100   0.947  10.515  10.827 -0.1314  0.1580  0.3746
  132loPI   GL1 2101   0.995  10.389  10.364  0.3463 -0.1094  0.1561
  132loPI   GL2 2102   1.270  10.418  10.214  0.3427 -0.0922  0.0188
  132loPI   C1A 2103   0.739  10.482  10.050 -0.0184 -0.0814 -0.1205
  132loPI   C2A 2104   0.453  10.404   9.772  0.2961  0.0638 -0.0456
  132loPI   C3A 2105   0.410  10.473   9.432  0.0970  0.0852 -0.1359
  132loPI   C4A 2106   0.242  10.476   9.020 -0.2046  0.1584  0.1688
  132loPI   C5A 2107   0.335  10.497   8.572 -0.0194  0.2960  0.0203
  132loPI   C6A 2108   0.373  10.605   8.201 -0.0159 -0.1750 -0.0723
  132loPI   C1B 2109   1.268  10.577   9.862  0.2371  0.3133  0.3255
  132loPI   C2B 2110   1.327  10.697   9.426 -0.3333 -0.0736 -0.0037
  132loPI   C3B 2111   1.276  10.705   8.986 -0.0313  0.0775  0.0505
  132loPI   C4B 2112   1.262  10.610   8.572 -0.2402 -0.1814 -0.0014
  133loPI    C1 2113  16.047  18.309  10.653  0.1891 -0.2818  0.0895
  133loPI    C2 2114  15.658  18.219  10.674  0.0607  0.2717  0.2506
  133loPI    C3 2115  15.887  18.192  11.001  0.0995  0.2003  0.2176
  133loPI   PO4 2116  16.024  18.637  10.516  0.1572 -0.1597 -0.3073
  133loPI   GL1 2117  15.958  18.752  10.127 -0.0862 -0.1969  0.1572
  133loPI   GL2 2118  16.242  18.638   9.896  0.1830 -0.3068  0.1398
  133loPI   C1A 2119  15.873  19.025   9.752  0.2141 -0.4110  0.2040
  133loPI   C2A 2120  15.921  19.128   9.336  0.2168  0.1481 -0.0609
  133loPI   C3A 2121  15.795  19.005   8.985 -0.0177 -0.0516  0.2911
  133loPI   C4A 2122  15.801  18.875   8.535  0.0081  0.2884 -0.0570
  133loPI   C5A 2123  15.589  19.040   8.221  0.2033  0.1554 -0.1086
  133loPI   C6A 2124  15.710  19.484   8.160  0.0456  0.0626 -0.3097
  133loPI   C1B 2125  16.237  18.782   9.492 -0.2401 -0.1252  0.0023
  133loPI   C2B 2126  16.347  19.016   9.140  0.0521 -0.2050  0.3356
  133loPI   C3B 2127  16.250  19.334   8.861  0.0659 -0.2019  0.1638
  133loPI   C4B 2128  16.044  19.350   8.524  0.0697  0.1143  0.0665
  134loPI    C1 2129   9.707   4.134  10.684  0.2263  0.0728 -0.0569
  134loPI    C2 2130   9.805   4.397  10.969  0.0085  0.2916 -0.1801
  134loPI    C3 2131   9.438   4.237  10.963  0.1990 -0.1699  0.0088
  134loPI   PO4 2132   9.775   4.240  10.427  0.2752 -0.0766  0.1619
  134loPI   GL1 2133  10.027   3.989  10.153 -0.0151  0.2327  0.2845
  134loPI   GL2 2134  10.134   3.712  10.042 -0.0795 -0.0624  0.2988
  134loPI   C1A 2135   9.990   4.244   9.815 -0.1244 -0.1801 -0.1237
  134loPI   C2A 2136   9.979   4.303   9.403  0.3754 -0.2103  0.1350
  134loPI   C3A 2137   9.971   4.408   8.965  0.0536  0.1061 -0.0914
  134loPI   C4A 2138  10.023   4.454   8.539  0.3025  0.2093 -0.0874
  134loPI   C5A 2139  10.104   4.327   8.160 -0.2867 -0.1774  0.0517
  134loPI   C6A 2140  10.230   4.506   7.699  0.4300 -0.1202  0.1313
  134loPI   C1B 2141  10.252   3.849   9.667 -0.0742  0.1497 -0.0578
  134loPI   C2B 2142  10.232   3.835   9.279  0.0611  0.0026 -0.0037
  134loPI   C3B 2143  10.199   3.927   8.753  0.1158  0.2305  0.1020
  134loPI   C4B 2144  10.214   3.854   8.257  0.3160  0.0369 -0.2061
  135loPI    C1 2145   7.506   1.803  10.184  0.2045  0.1944  0.1227
  135loPI    C2 2146   7.396   2.027  10.496  0.0305  0.2120  0.0499
  135loPI    C3 2147   7.403   1.629  10.529 -0.2304  0.2018  0.0023
  135loPI   PO4 2148   7.768   1.851  10.179 -0.0279 -0.1016  0.0184
  135loPI   GL1 2149   7.889   2.018   9.867  0.0736 -0.0580  0.0753
  135loPI   GL2 2150   8.209   2.026   9.827 -0.2653  0.1902 -0.4389
  135loPI   C1A 2151   7.882   2.245   9.453  0.1773  0.2916  0.0710
  135loPI   C2A 2152   8.029   2.266   9.195 -0.1818  0.2361  0.2137
  135loPI   C3A 2153   8.030   2.265   8.753  0.1803  0.5949  0.0652
  135loPI   C4A 2154   8.188   2.140   8.424  0.0516 -0.0839  0.1017
  135loPI   C5A 2155   8.347   2.046   7.984 -0.0604  0.2647  0.4745
  135loPI   C6A 2156   8.469   1.796   7.730  0.0392  0.2139  0.1709
  135loPI   C1B 2157   8.409   2.074   9.498 -0.0397 -0.3218 -0.3474
  135loPI   C2B 2158   8.547   2.308   9.188  0.1826 -0.1977 -0.1074
  135loPI   C3B 2159   8.625   2.283   8.748  0.2804  0.0436  0.0878
  135loPI   C4B 2160   8.694   2.129   8.319 -0.4150 -0.0460  0.0270
  136loPI    C1 2161   6.500  11.351  10.670 -0.0075  0.1371 -0.0516
  136loPI    C2 2162   6.782  11.448  10.936 -0.0186  0.1624 -0.0491
  136loPI    C3 2163   6.679  11.065  10.885 -0.2025  0.1805  0.1720
  136loPI   PO4 2164   6.585  11.401  10.386 -0.0965  0.3704 -0.2060
  136loPI   GL1 2165   6.510  11.367   9.902  0.1256  0.1779 -0.4446
  136loPI   GL2 2166   6.351  11.590   9.702  0.0106  0.1668 -0.1537
  136loPI   C1A 2167   6.794  11.270   9.668 -0.0774  0.1991 -0.0387
  136loPI   C2A 2168   7.054  11.183   9.308 -0.0636 -0.0946  0.0144
  136loPI   C3A 2169   7.031  10.871   9.024 -0.2537  0.1430 -0.0027
  136loPI   C4A 2170   7.017  10.835   8.530 -0.3809  0.1273  0.1286
  136loPI   C5A 2171   7.117  11.228   8.185 -0.0100 -0.2090 -0.1267
  136loPI   C6A 2172   7.260  11.579   7.987  0.3731  0.0303  0.0727
  136loPI   C1B 2173   6.313  11.657   9.234 -0.0738 -0.0642 -0.1708
  136loPI   C2B 2174   6.278  11.539   8.812 -0.1174  0.0645  0.3976
  136loPI   C3B 2175   6.282  11.369   8.397  0.2982 -0.0076 -0.1737
  136loPI   C4B 2176   6.294  11.225   7.973  0.1783 -0.2368 -0.1467
  137loPI    C1 2177   8.201  11.205  10.648  0.0119 -0.0251  0.0502
  137loPI    C2 2178   8.057  11.445  10.933  0.1482  0.0389  0.0657
  137loPI    C3 2179   7.975  11.054  10.941  0.0409  0.0622  0.1178
  137loPI   PO4 2180   8.122  11.220  10.348 -0.1517 -0.0584  0.0179
  137loPI   GL1 2181   8.321  11.423   9.969  0.3828  0.3039  0.1194
  137loPI   GL2 2182   8.151  11.172   9.855 -0.0439  0.3043 -0.1626
  137loPI   C1A 2183   8.416  11.587   9.639  0.1252 -0.1184  0.2506
  137loPI   C2A 2184   8.227  11.815   9.326 -0.3045  0.0280 -0.1425
  137loPI   C3A 2185   8.232  11.896   8.828 -0.0945  0.1340 -0.0627
  137loPI   C4A 2186   8.059  11.801   8.449 -0.2871 -0.0519  0.1244
  137loPI   C5A 2187   7.865  11.778   8.034  0.1331  0.0656 -0.0295
  137loPI   C6A 2188   7.668  11.331   7.949  0.1869 -0.0441 -0.1373
  137loPI   C1B 2189   8.045  10.948   9.524  0.1886  0.0851 -0.0272
  137loPI   C2B 2190   8.251  10.763   9.095  0.1925  0.0319  0.1379
  137loPI   C3B 2191   8.356  10.866   8.750  0.4423  0.3639  0.2133
  137loPI   C4B 2192   8.474  11.063   8.389 -0.1703 -0.0533 -0.0509
  138loPI    C1 2193   9.437   7.260  10.954  0.1174 -0.0337 -0.1712
  138loPI    C2 2194   9.814   7.132  10.915  0.2229  0.2827 -0.2191
  138loPI    C3 2195   9.645   7.150  11.277  0.2094  0.0225 -0.2108
  138loPI   PO4 2196   9.283   7.150  10.796 -0.3942 -0.0215 -0.2763
  138loPI   GL1 2197   9.284   7.230  10.399  0.0682  0.1739 -0.3131
  138loPI   GL2 2198   9.015   7.071  10.374 -0.0777  0.3064 -0.1407
  138loPI   C1A 2199   9.511   7.462  10.062 -0.0433  0.0361  0.3800
  138loPI   C2A 2200   9.544   7.538   9.603  0.0708  0.0520 -0.3276
  138loPI   C3A 2201   9.534   7.542   9.197 -0.0744  0.1235 -0.0839
  138loPI   C4A 2202   9.542   7.606   8.734  0.0376 -0.2096  0.1579
  138loPI   C5A 2203   9.474   7.609   8.286  0.0868  0.0002 -0.0202
  138loPI   C6A 2204   9.623   7.549   7.880  0.1478  0.2728 -0.1578
  138loPI   C1B 2205   9.203   6.990   9.887 -0.1189 -0.2820 -0.3692
  138loPI   C2B 2206   9.259   7.168   9.395  0.0341  0.0192 -0.4189
  138loPI   C3B 2207   9.340   7.126   8.968 -0.1280  0.0323 -0.0538
  138loPI   C4B 2208   9.261   7.254   8.602  0.1463  0.1480  0.0358
  139loPI    C1 2209  14.762   3.298  10.601 -0.3491 -0.0944  0.2418
  139loPI    C2 2210  14.815   2.922  10.725  0.0965 -0.0632  0.1616
  139loPI    C3 2211  14.976   3.225  10.931  0.1057  0.0514 -0.0120
  139loPI   PO4 2212  14.527   3.330  10.522 -0.0266  0.0492 -0.0773
  139loPI   GL1 2213  14.197   3.302  10.182 -0.2581  0.0958 -0.0353
  139loPI   GL2 2214  14.429   3.581  10.056 -0.0397  0.0573 -0.5427
  139loPI   C1A 2215  14.238   3.188   9.760  0.0204 -0.4615  0.2082
  139loPI   C2A 2216  14.119   3.147   9.403 -0.1992 -0.0515 -0.0736
  139loPI   C3A 2217  14.040   3.192   9.037  0.2280 -0.0823 -0.0461
  139loPI   C4A 2218  14.090   3.185   8.660 -0.0786  0.0788 -0.2891
  139loPI   C5A 2219  13.927   3.084   8.281  0.0613  0.0154  0.0212
  139loPI   C6A 2220  13.580   3.124   8.078  0.2599 -0.1838 -0.1804
  139loPI   C1B 2221  14.435   3.661   9.714  0.1953 -0.0569 -0.0391
  139loPI   C2B 2222  14.291   3.610   9.304 -0.1972 -0.1750 -0.4067
  139loPI   C3B 2223  14.279   3.599   8.897  0.0208 -0.0675  0.1256
  139loPI   C4B 2224  14.356   3.514   8.457 -0.1357 -0.0143 -0.0229
  140loPI    C1 2225   0.113  14.794  10.757 -0.0300  0.0222  0.5649
  140loPI    C2 2226  -0.181  14.971  10.964 -0.0810  0.1995  0.3451
  140loPI    C3 2227   0.117  15.191  10.813  0.0015  0.0602  0.3030
  140loPI   PO4 2228   0.127  14.618  10.552  0.0160  0.0719  0.1707
  140loPI   GL1 2229   0.186  14.703  10.135 -0.2306 -0.3600 -0.1363
  140loPI   GL2 2230   0.507  14.789   9.945 -0.3042 -0.0850  0.0438
  140loPI   C1A 2231   0.168  14.389   9.887  0.1399  0.0398 -0.1483
  140loPI   C2A 2232   0.195  14.421   9.403 -0.2433  0.0355  0.1629
  140loPI   C3A 2233   0.113  14.486   8.970  0.3186  0.0339 -0.0326
  140loPI   C4A 2234   0.142  14.461   8.586  0.3124 -0.0381  0.0175
  140loPI   C5A 2235   0.100  14.394   8.074  0.1612 -0.1921  0.2359
  140loPI   C6A 2236   0.345  14.111   7.843  0.0416 -0.1923 -0.0342
  140loPI   C1B 2237   0.574  14.651   9.623  0.1787  0.0325  0.2245
  140loPI   C2B 2238   0.540  14.733   9.226 -0.1427 -0.4347  0.1944
  140loPI   C3B 2239   0.502  14.702   8.769  0.2375  0.0796  0.1165
  140loPI   C4B 2240   0.487  14.671   8.299 -0.3803  0.0186 -0.2533
  141loPI    C1 2241   6.629  12.711  10.577 -0.0686  0.1263 -0.0548
  141loPI    C2 2242   6.257  12.745  10.720 -0.0980 -0.0055 -0.0978
  141loPI    C3 2243   6.557  12.947  10.891 -0.1715  0.0180  0.0040
  141loPI   PO4 2244   6.548  12.767  10.326  0.4020 -0.1035  0.2882
  141loPI   GL1 2245   6.324  12.856   9.920 -0.0891  0.1981 -0.0714
  141loPI   GL2 2246   6.471  12.483   9.865  0.0675  0.0216 -0.1653
  141loPI   C1A 2247   6.318  13.074   9.559 -0.2100  0.2503 -0.0437
  141loPI   C2A 2248   6.391  13.020   9.077  0.1081  0.0708 -0.1728
  141loPI   C3A 2249   6.279  13.109   8.736 -0.0418 -0.1896 -0.2946
  141loPI   C4A 2250   6.308  12.985   8.320  0.1192  0.0749 -0.1480
  141loPI   C5A 2251   6.509  13.035   7.869 -0.1626 -0.2666 -0.2076
  141loPI   C6A 2252   6.904  12.982   7.573 -0.5666 -0.0997  0.0544
  141loPI   C1B 2253   6.364  12.582   9.425  0.0286  0.0766  0.0898
  141loPI   C2B 2254   6.414  12.543   8.988 -0.2832  0.2082 -0.1306
  141loPI   C3B 2255   6.487  12.495   8.513 -0.0456 -0.2177  0.0752
  141loPI   C4B 2256   6.234  12.364   8.180  0.1251  0.2458 -0.1794
  142loPI    C1 2257  15.097  13.900  10.382 -0.1401  0.0420 -0.0303
  142loPI    C2 2258  14.823  13.791  10.652 -0.0945  0.1162  0.0463
  142loPI    C3 2259  15.202  13.852  10.765 -0.0555  0.0565 -0.0517
  142loPI   PO4 2260  14.904  14.135  10.246 -0.1843 -0.0462  0.0227
  142loPI   GL1 2261  14.552  14.270   9.848 -0.0208  0.1721 -0.1585
  142loPI   GL2 2262  14.839  14.443   9.759  0.1555 -0.3690 -0.0649
  142loPI   C1A 2263  14.564  13.793   9.558  0.4371 -0.1045  0.0481
  142loPI   C2A 2264  14.803  13.661   9.238  0.2498  0.1014  0.1220
  142loPI   C3A 2265  15.067  13.599   8.909 -0.2003  0.2832 -0.0306
  142loPI   C4A 2266  15.205  13.405   8.538 -0.2685 -0.1434 -0.0627
  142loPI   C5A 2267  15.566  13.508   8.417  0.1203 -0.1340  0.1136
  142loPI   C6A 2268  15.899  13.463   8.040  0.0064 -0.0400 -0.2926
  142loPI   C1B 2269  14.810  14.756   9.489 -0.0092 -0.2255  0.2525
  142loPI   C2B 2270  14.527  14.904   9.108  0.0289 -0.1373 -0.0562
  142loPI   C3B 2271  14.252  14.892   8.822  0.4760 -0.1451  0.1596
  142loPI   C4B 2272  14.325  14.850   8.376  0.1433 -0.2145  0.0866
  143loPI    C1 2273  17.686   4.959  10.589  0.0603 -0.0358  0.2764
  143loPI    C2 2274  17.402   5.234  10.649 -0.2315 -0.2400 -0.1206
  143loPI    C3 2275  17.381   4.882  10.836 -0.2826 -0.2838 -0.2083
  143loPI   PO4 2276  17.753   4.955  10.393  0.1754  0.2583  0.2123
  143loPI   GL1 2277  17.635   4.897   9.983 -0.2200  0.3205 -0.1929
  143loPI   GL2 2278  17.369   4.916   9.955  0.1830 -0.0092  0.3374
  143loPI   C1A 2279  17.553   4.753   9.525  0.0888  0.1008 -0.0859
  143loPI   C2A 2280  17.622   4.944   9.167  0.0447  0.0690 -0.2414
  143loPI   C3A 2281  17.773   4.678   8.838 -0.0442  0.0369 -0.2526
  143loPI   C4A 2282  17.928   4.847   8.435  0.1569 -0.5101  0.1705
  143loPI   C5A 2283  17.769   4.659   7.991  0.2463  0.0678 -0.0859
  143loPI   C6A 2284  17.699   4.858   7.581 -0.1194  0.2039  0.0113
  143loPI   C1B 2285  17.636   5.278   9.721 -0.1233 -0.2193 -0.4475
  143loPI   C2B 2286  17.903   5.297   9.445 -0.2529 -0.2867  0.3805
  143loPI   C3B 2287  18.409   5.131   9.449  0.1127 -0.2123  0.1666
  143loPI   C4B 2288  18.608   5.188   9.141 -0.1350  0.2307  0.1524
  144loPI    C1 2289  10.807   0.448  10.396  0.3479 -0.0321  0.2788
  144loPI    C2 2290  10.502   0.647  10.562 -0.0156 -0.2768 -0.0751
  144loPI    C3 2291  10.795   0.500  10.792 -0.1693 -0.0527  0.2726
  144loPI   PO4 2292  10.637   0.308  10.226  0.1759 -0.0644 -0.0974
  144loPI   GL1 2293  10.844   0.271   9.868 -0.0638  0.1679 -0.1699
  144loPI   GL2 2294  11.221   0.281   9.762  0.1194  0.2952 -0.2332
  144loPI   C1A 2295  10.805   0.589   9.529 -0.0264 -0.0675 -0.0533
  144loPI   C2A 2296  10.587   0.545   9.146  0.0680 -0.0240 -0.1105
  144loPI   C3A 2297  10.883   0.725   8.796  0.1835  0.0970 -0.0341
  144loPI   C4A 2298  11.032   0.867   8.448  0.0348  0.4323 -0.0435
  144loPI   C5A 2299  11.106   0.750   7.977 -0.1008  0.0905 -0.0335
  144loPI   C6A 2300  10.832   0.610   7.760  0.5482 -0.1456 -0.2046
  144loPI   C1B 2301  11.234   0.345   9.365 -0.2666  0.3436 -0.1697
  144loPI   C2B 2302  11.267   0.540   9.035 -0.2901 -0.1110  0.2052
  144loPI   C3B 2303  11.482   0.649   8.609 -0.0424  0.0852 -0.2455
  144loPI   C4B 2304  11.559   0.634   8.173 -0.1157  0.0725 -0.0950
  145loPI    C1 2305  15.032   6.814  11.137 -0.1876  0.2425 -0.0881
  145loPI    C2 2306  14.933   6.855  11.523 -0.0889 -0.0398 -0.0298
  145loPI    C3 2307  15.298   6.961  11.397 -0.1019 -0.0014 -0.0352
  145loPI   PO4 2308  14.835   6.876  10.972 -0.0814  0.0731 -0.2792
  145loPI   GL1 2309  14.641   6.906  10.692  0.2604  0.1958  0.5017
  145loPI   GL2 2310  14.449   6.866  10.453 -0.0894 -0.2995 -0.1651
  145loPI   C1A 2311  14.825   7.141  10.347 -0.2164  0.0311  0.0250
  145loPI   C2A 2312  14.766   7.246   9.914 -0.1460  0.1719 -0.0665
  145loPI   C3A 2313  14.649   7.284   9.453 -0.0167  0.0234 -0.3726
  145loPI   C4A 2314  14.720   7.221   9.014  0.3112  0.0459 -0.0449
  145loPI   C5A 2315  14.698   7.081   8.542 -0.0833  0.0837  0.3617
  145loPI   C6A 2316  14.722   7.044   8.077  0.1183 -0.0555 -0.1655
  145loPI   C1B 2317  14.267   6.846  10.150  0.0502 -0.2004  0.1018
  145loPI   C2B 2318  14.409   6.949   9.795 -0.0732 -0.1251  0.0040
  145loPI   C3B 2319  14.418   6.826   9.336  0.2133  0.1106 -0.0006
  145loPI   C4B 2320  14.376   6.720   8.921  0.0907 -0.0107  0.2817
  146loPI    C1 2321   9.314   6.219  10.530  0.1392 -0.5848  0.0666
  146loPI    C2 2322   9.285   6.258  10.927  0.0321  0.0500  0.0065
  146loPI    C3 2323   8.961   6.165  10.711 -0.0029  0.1244  0.0267
  146loPI   PO4 2324   9.539   6.009  10.422 -0.1649 -0.1522  0.1428
  146loPI   GL1 2325   9.875   6.066  10.102 -0.0374  0.0501 -0.1029
  146loPI   GL2 2326   9.824   6.441  10.162  0.0444 -0.0730 -0.1081
  146loPI   C1A 2327   9.614   6.085   9.835  0.0515 -0.0963 -0.0815
  146loPI   C2A 2328   9.608   6.207   9.444  0.0691 -0.3707  0.0345
  146loPI   C3A 2329   9.609   6.235   8.941 -0.1971 -0.0107 -0.0358
  146loPI   C4A 2330   9.694   6.168   8.500  0.1857  0.1675 -0.2422
  146loPI   C5A 2331   9.477   6.106   8.086 -0.0039  0.0958  0.2066
  146loPI   C6A 2332   9.217   6.210   7.677 -0.1645 -0.0644 -0.1392
  146loPI   C1B 2333   9.963   6.625   9.748 -0.1471  0.1265  0.0252
  146loPI   C2B 2334   9.979   6.670   9.331  0.1320 -0.1266  0.0253
  146loPI   C3B 2335  10.014   6.650   8.985 -0.0107  0.2129  0.0868
  146loPI   C4B 2336   9.978   6.622   8.431  0.1860  0.0158  0.2089
  147loPI    C1 2337   9.553  15.188  10.611  0.0946 -0.0735  0.1892
  147loPI    C2 2338   9.517  15.428  10.929 -0.2591  0.1715 -0.0291
  147loPI    C3 2339   9.299  15.093  10.904 -0.1964  0.1277  0.0068
  147loPI   PO4 2340   9.447  15.305  10.382 -0.1563  0.0753 -0.0762
  147loPI   GL1 2341   9.312  15.237   9.921  0.0399 -0.1213 -0.0641
  147loPI   GL2 2342   9.603  15.268   9.769  0.2648  0.2911  0.1866
  147loPI   C1A 2343   9.081  15.275   9.558 -0.1290  0.0552  0.1128
  147loPI   C2A 2344   9.126  15.388   9.103  0.1234  0.0525 -0.0949
  147loPI   C3A 2345   9.140  15.361   8.670 -0.3650 -0.2509 -0.0178
  147loPI   C4A 2346   9.168  15.674   8.351 -0.0631 -0.0688  0.1192
  147loPI   C5A 2347   9.178  15.630   7.904 -0.2140 -0.2030 -0.2037
  147loPI   C6A 2348   9.006  15.533   7.519  0.0726  0.0455  0.0096
  147loPI   C1B 2349   9.602  15.500   9.365  0.3829 -0.4169  0.2997
  147loPI   C2B 2350   9.761  15.573   9.008 -0.3178  0.1766 -0.0287
  147loPI   C3B 2351   9.625  15.535   8.653  0.0311  0.0773 -0.1991
  147loPI   C4B 2352   9.631  15.538   8.259  0.1083 -0.1901 -0.0580
  148loPI    C1 2353   6.948   9.814  10.455  0.0064 -0.1518  0.3746
  148loPI    C2 2354   7.258  10.059  10.390 -0.0942 -0.0652  0.2162
  148loPI    C3 2355   7.025  10.111  10.712 -0.2494  0.1893  0.0658
  148loPI   PO4 2356   6.846   9.792  10.246  0.2508 -0.2742 -0.2255
  148loPI   GL1 2357   6.625   9.790   9.803 -0.1010  0.0814 -0.3199
  148loPI   GL2 2358   6.581  10.100   9.980 -0.1092  0.2162  0.0028
  148loPI   C1A 2359   6.626   9.700   9.372  0.2327 -0.0655  0.1410
  148loPI   C2A 2360   6.603   9.639   8.976  0.1880 -0.0482  0.2613
  148loPI   C3A 2361   6.756   9.834   8.612  0.1182 -0.0682  0.0651
  148loPI   C4A 2362   6.866  10.052   8.215  0.1504  0.2395  0.0485
  148loPI   C5A 2363   6.685  10.278   7.955 -0.0002 -0.0986 -0.3762
  148loPI   C6A 2364   6.447  10.586   7.761  0.4332  0.0564 -0.2331
  148loPI   C1B 2365   6.476  10.320   9.612 -0.0586  0.1136  0.1290
  148loPI   C2B 2366   6.416  10.248   9.230 -0.0188  0.3606  0.0890
  148loPI   C3B 2367   6.433  10.156   8.751 -0.0234 -0.1312  0.1898
  148loPI   C4B 2368   6.264  10.245   8.272 -0.1789  0.2151 -0.0281
  149loPI    C1 2369   5.568  11.427  10.119 -0.0531  0.0340 -0.1232
  149loPI    C2 2370   5.459  11.661  10.425 -0.0952 -0.0001 -0.1120
  149loPI    C3 2371   5.735  11.377  10.479 -0.0534  0.0386 -0.1224
  149loPI   PO4 2372   5.371  11.314  10.050  0.1657 -0.3896  0.0805
  149loPI   GL1 2373   5.180  11.447   9.623 -0.0343 -0.0806  0.0711
  149loPI   GL2 2374   5.452  11.513   9.593 -0.1507 -0.0268  0.1118
  149loPI   C1A 2375   4.891  11.753   9.452 -0.1150  0.1277 -0.2854
  149loPI   C2A 2376   4.695  11.839   9.037 -0.1435  0.1067  0.2007
  149loPI   C3A 2377   4.586  11.717   8.726  0.0241 -0.0375 -0.0410
  149loPI   C4A 2378   4.624  11.657   8.283 -0.0499 -0.0091 -0.0132
  149loPI   C5A 2379   4.449  11.616   7.776  0.0248  0.0889 -0.3097
  149loPI   C6A 2380   4.390  11.559   7.353  0.2732 -0.1438  0.0997
  149loPI   C1B 2381   5.360  11.618   9.178  0.1259  0.0802  0.0780
  149loPI   C2B 2382   5.115  11.580   8.749  0.1678  0.3129  0.0996
  149loPI   C3B 2383   5.188  11.455   8.279  0.2225  0.1353  0.0567
  149loPI   C4B 2384   5.291  11.409   7.793 -0.0559 -0.0925 -0.4546
  150loPI    C1 2385   3.672  12.401  10.764 -0.2908 -0.0413  0.1157
  150loPI    C2 2386   3.426  12.376  11.078 -0.2635 -0.3067  0.1178
  150loPI    C3 2387   3.773  12.176  11.079  0.0576  0.2312  0.2060
  150loPI   PO4 2388   3.471  12.365  10.532 -0.0548 -0.0447 -0.0248
  150loPI   GL1 2389   3.421  12.539  10.186 -0.2308  0.1319 -0.3088
  150loPI   GL2 2390   3.518  12.879  10.050 -0.0142 -0.2812  0.0715
  150loPI   C1A 2391   3.569  12.494   9.744  0.1466 -0.2303  0.0642
  150loPI   C2A 2392   3.589  12.507   9.243 -0.1899  0.0948  0.0063
  150loPI   C3A 2393   3.710  12.552   8.858  0.0838  0.0983 -0.0277
  150loPI   C4A 2394   3.651  12.566   8.477 -0.2340  0.0767 -0.0028
  150loPI   C5A 2395   3.642  12.472   7.974 -0.0891 -0.1541  0.1875
  150loPI   C6A 2396   3.476  12.345   7.614  0.0520 -0.2794 -0.0838
  150loPI   C1B 2397   3.582  12.928   9.542  0.1146 -0.0167  0.2575
  150loPI   C2B 2398   3.535  13.036   9.139 -0.2716 -0.0349 -0.1126
  150loPI   C3B 2399   3.607  13.018   8.751  0.1036  0.0392  0.2402
  150loPI   C4B 2400   3.529  13.032   8.322 -0.1753  0.4239 -0.1673
  151loPI    C1 2401  11.475  13.988  10.615  0.0264  0.0109 -0.0647
  151loPI    C2 2402  11.762  13.831  10.844  0.0037 -0.1014 -0.1128
  151loPI    C3 2403  11.490  14.075  11.005  0.2081  0.1177 -0.0944
  151loPI   PO4 2404  11.651  14.021  10.369 -0.0533 -0.0953  0.1059
  151loPI   GL1 2405  11.484  14.006   9.966  0.0412  0.1907  0.1343
  151loPI   GL2 2406  11.576  14.213   9.810 -0.0967 -0.3408  0.2284
  151loPI   C1A 2407  11.707  13.728   9.692  0.2953 -0.1433  0.4977
  151loPI   C2A 2408  11.711  13.584   9.233 -0.1953  0.0825  0.0382
  151loPI   C3A 2409  11.584  13.553   8.762  0.2547  0.0469 -0.4343
  151loPI   C4A 2410  11.353  13.698   8.347 -0.0311 -0.2181 -0.1236
  151loPI   C5A 2411  11.368  13.538   7.898 -0.2173  0.1759 -0.2385
  151loPI   C6A 2412  11.200  13.743   7.505 -0.0894 -0.1316 -0.2954
  151loPI   C1B 2413  11.534  14.104   9.277 -0.1560 -0.2283  0.2092
  151loPI   C2B 2414  11.518  14.027   8.857 -0.0969  0.0466  0.0040
  151loPI   C3B 2415  11.399  14.168   8.465 -0.1698 -0.1089 -0.2779
  151loPI   C4B 2416  11.311  14.074   7.997 -0.1727 -0.0288 -0.0768
  152loPI    C1 2417   1.446  18.227  10.468  0.0655  0.0361 -0.1921
  152loPI    C2 2418   1.146  18.389  10.258 -0.0978  0.0128  0.0196
  152loPI    C3 2419   1.121  18.366  10.657  0.1234 -0.1209  0.0274
  152loPI   PO4 2420   1.575  18.003  10.299 -0.0304  0.0961  0.2488
  152loPI   GL1 2421   1.493  17.915   9.869  0.1317 -0.0408 -0.2001
  152loPI   GL2 2422   1.347  18.172   9.861  0.0192  0.0286  0.0725
  152loPI   C1A 2423   1.480  17.870   9.407  0.4278  0.1482  0.0957
  152loPI   C2A 2424   1.441  17.846   8.865  0.0065  0.1857 -0.2383
  152loPI   C3A 2425   1.396  17.899   8.491 -0.1139 -0.1634 -0.2331
  152loPI   C4A 2426   1.735  17.923   8.141  0.0140  0.2861 -0.1437
  152loPI   C5A 2427   1.673  17.785   7.751 -0.0268  0.0657 -0.1932
  152loPI   C6A 2428   1.528  17.909   7.364 -0.3117  0.0536  0.0109
  152loPI   C1B 2429   1.466  18.356   9.402 -0.0262  0.0222 -0.1190
  152loPI   C2B 2430   1.493  18.484   9.001 -0.0091 -0.0585  0.2954
  152loPI   C3B 2431   1.354  18.392   8.571 -0.0598 -0.1844 -0.1404
  152loPI   C4B 2432   1.354  18.289   8.137  0.3460 -0.0200  0.0151
  153loPI    C1 2433  -0.161   0.552  10.275  0.0929 -0.0470 -0.0712
  153loPI    C2 2434   0.074   0.876  10.268 -0.0513  0.0594 -0.0169
  153loPI    C3 2435   0.106   0.612  10.567 -0.0377  0.1021  0.0195
  153loPI   PO4 2436  -0.128   0.483  10.078  0.0508  0.5098 -0.0489
  153loPI   GL1 2437   0.039   0.629   9.789  0.1136 -0.1204 -0.2353
  153loPI   GL2 2438  -0.155   0.635   9.495 -0.2042 -0.0892 -0.0413
  153loPI   C1A 2439   0.232   0.308   9.575  0.1931 -0.2073  0.0890
  153loPI   C2A 2440   0.348   0.084   9.196 -0.1217  0.0669 -0.2207
  153loPI   C3A 2441   0.277  -0.092   8.759 -0.0204 -0.2448 -0.0321
  153loPI   C4A 2442   0.149   0.126   8.324 -0.0981  0.1797 -0.2520
  153loPI   C5A 2443   0.298   0.048   7.940  0.1854 -0.0321 -0.0128
  153loPI   C6A 2444   0.579   0.150   7.792  0.1829  0.2383  0.2712
  153loPI   C1B 2445  -0.036   0.460   9.088 -0.2932 -0.5741  0.0975
  153loPI   C2B 2446  -0.234   0.524   8.596  0.0820 -0.1186 -0.3979
  153loPI   C3B 2447  -0.328   0.719   8.240 -0.0729 -0.1655 -0.2357
  153loPI   C4B 2448  -0.633   0.591   7.972 -0.1402  0.0108  0.1207
  154loPI    C1 2449  18.739  12.232  11.095 -0.0179  0.2344  0.0644
  154loPI    C2 2450  18.522  11.927  11.237  0.2668  0.0625  0.1363
  154loPI    C3 2451  18.650  12.213  11.485  0.1804  0.1283  0.1054
  154loPI   PO4 2452  18.666  12.279  10.783 -0.0070 -0.3008  0.3382
  154loPI   GL1 2453  18.783  12.243  10.368 -0.1317 -0.2629 -0.0259
  154loPI   GL2 2454  18.794  11.986  10.136  0.3440  0.1388  0.2052
  154loPI   C1A 2455  18.630  12.447   9.933 -0.2482  0.0697  0.0578
  154loPI   C2A 2456  18.743  12.499   9.454  0.3904 -0.2068  0.0481
  154loPI   C3A 2457  18.673  12.508   9.028  0.3950  0.0791  0.0166
  154loPI   C4A 2458  18.791  12.513   8.603  0.1866  0.0759  0.3474
  154loPI   C5A 2459  18.629  12.392   8.194 -0.0257 -0.2171  0.1432
  154loPI   C6A 2460  18.556  12.112   7.824 -0.0430 -0.1479  0.2313
  154loPI   C1B 2461  18.667  11.967   9.736 -0.0494  0.4354 -0.1296
  154loPI   C2B 2462  18.742  11.959   9.432  0.0059 -0.1026  0.0784
  154loPI   C3B 2463  18.813  12.044   9.033  0.1093  0.3190  0.1172
  154loPI   C4B 2464  18.807  12.033   8.656 -0.0080  0.0628  0.0732
  155loPI    C1 2465   6.903   5.253  10.548 -0.0710 -0.4611 -0.2477
  155loPI    C2 2466   6.825   5.129  10.920  0.1218 -0.0173 -0.0526
  155loPI    C3 2467   6.578   5.387  10.739  0.0954 -0.1352 -0.1859
  155loPI   PO4 2468   7.248   5.397  10.556 -0.0507 -0.1250 -0.0921
  155loPI   GL1 2469   7.548   5.400  10.191  0.0797 -0.0782 -0.1048
  155loPI   GL2 2470   7.854   5.532  10.187  0.2015  0.5004  0.0502
  155loPI   C1A 2471   7.533   5.473   9.790 -0.0264  0.2535  0.0331
  155loPI   C2A 2472   7.549   5.415   9.396  0.2546 -0.0026  0.0478
  155loPI   C3A 2473   7.579   5.534   9.017 -0.1509 -0.2463  0.1751
  155loPI   C4A 2474   7.544   5.477   8.570  0.1016  0.1550 -0.1126
  155loPI   C5A 2475   7.711   5.559   8.164 -0.3701 -0.2474  0.1462
  155loPI   C6A 2476   7.995   5.722   7.842 -0.1373  0.3005 -0.3821
  155loPI   C1B 2477   8.007   5.357   9.791 -0.1268 -0.0305 -0.1787
  155loPI   C2B 2478   8.018   5.317   9.314  0.0875  0.0176  0.0894
  155loPI   C3B 2479   8.062   5.403   8.832 -0.0439 -0.1664  0.0162
  155loPI   C4B 2480   8.192   5.465   8.396  0.1292 -0.0287  0.1685
  156loPI    C1 2481  17.323  15.259  10.467 -0.0256 -0.2209  0.1992
  156loPI    C2 2482  17.484  15.580  10.645  0.0503  0.0366 -0.3147
  156loPI    C3 2483  17.708  15.256  10.576  0.0643 -0.0010 -0.1007
  156loPI   PO4 2484  17.229  15.366  10.183  0.1928 -0.2530 -0.0689
  156loPI   GL1 2485  17.103  15.330   9.786 -0.1288  0.2709  0.0429
  156loPI   GL2 2486  16.801  15.452   9.776  0.0459  0.4378  0.1800
  156loPI   C1A 2487  17.020  15.233   9.351  0.1284  0.0997  0.0288
  156loPI   C2A 2488  16.963  15.114   8.956 -0.0115 -0.1061 -0.0473
  156loPI   C3A 2489  16.816  15.054   8.547 -0.1718 -0.2522  0.0531
  156loPI   C4A 2490  16.906  14.953   8.213 -0.2259  0.2216  0.2182
  156loPI   C5A 2491  16.663  14.724   7.839  0.2711  0.0113  0.0706
  156loPI   C6A 2492  16.582  14.516   7.409 -0.0912  0.0963  0.0781
  156loPI   C1B 2493  16.538  15.424   9.404 -0.2349  0.0156 -0.1627
  156loPI   C2B 2494  16.177  15.234   9.116 -0.1153  0.0940  0.1038
  156loPI   C3B 2495  16.015  14.993   8.678 -0.1300 -0.0111  0.1436
  156loPI   C4B 2496  15.751  14.683   8.291 -0.1397 -0.1490  0.1222
  157loPI    C1 2497  14.660  17.664  10.589 -0.2773 -0.2636 -0.0550
  157loPI    C2 2498  14.937  17.450  10.783 -0.0653 -0.0374 -0.1031
  157loPI    C3 2499  14.749  17.749  10.970 -0.1487 -0.0754 -0.1255
  157loPI   PO4 2500  14.719  17.643  10.284 -0.0499 -0.0843  0.0769
  157loPI   GL1 2501  14.557  17.661   9.910  0.2029 -0.0319  0.0907
  157loPI   GL2 2502  14.645  17.885   9.695  0.1116 -0.2335 -0.1405
  157loPI   C1A 2503  14.877  17.462   9.624 -0.1348  0.1296  0.0789
  157loPI   C2A 2504  15.193  17.223   9.217 -0.0950 -0.3058  0.0203
  157loPI   C3A 2505  15.271  17.210   8.794  0.3291  0.1202 -0.0766
  157loPI   C4A 2506  15.315  17.012   8.375  0.2360 -0.2401 -0.1327
  157loPI   C5A 2507  15.287  17.103   7.943  0.1084  0.2859  0.2919
  157loPI   C6A 2508  15.294  17.306   7.572 -0.0482 -0.1459 -0.0535
  157loPI   C1B 2509  14.647  17.923   9.272  0.1513 -0.0781  0.2204
  157loPI   C2B 2510  14.661  17.856   8.829 -0.0756 -0.1259 -0.0193
  157loPI   C3B 2511  14.670  17.724   8.408 -0.1663  0.0388  0.0472
  157loPI   C4B 2512  14.737  17.717   7.941  0.0315  0.2346 -0.0944
  158loPI    C1 2513  16.844  15.868  10.404 -0.1083  0.1412  0.1562
  158loPI    C2 2514  16.933  15.535  10.606  0.1759  0.1606  0.0669
  158loPI    C3 2515  16.892  15.881  10.801 -0.1035  0.0789  0.1579
  158loPI   PO4 2516  16.933  15.869  10.048  0.0902 -0.0027 -0.0082
  158loPI   GL1 2517  17.239  15.757   9.857  0.0089  0.0392  0.3368
  158loPI   GL2 2518  17.525  15.580   9.770  0.0728 -0.3188 -0.2301
  158loPI   C1A 2519  17.007  15.728   9.391  0.0004  0.0696  0.1547
  158loPI   C2A 2520  16.845  15.596   8.950  0.2887  0.1539 -0.1176
  158loPI   C3A 2521  16.716  15.741   8.583  0.0761  0.2509 -0.0135
  158loPI   C4A 2522  16.636  15.838   8.171  0.0471 -0.1597  0.0495
  158loPI   C5A 2523  16.380  15.614   7.891  0.0259 -0.0698 -0.1001
  158loPI   C6A 2524  16.363  15.437   7.502  0.2940 -0.0584 -0.0911
  158loPI   C1B 2525  17.471  15.583   9.364  0.0701 -0.3259 -0.1736
  158loPI   C2B 2526  17.407  15.567   8.938 -0.0438  0.1161 -0.1641
  158loPI   C3B 2527  17.176  15.449   8.528  0.0897 -0.1789 -0.1389
  158loPI   C4B 2528  16.880  15.458   8.212 -0.2657 -0.1658 -0.1284
  159loPI    C1 2529   5.192   8.073  10.300  0.1200  0.0382  0.2936
  159loPI    C2 2530   5.474   8.308  10.459  0.1874  0.0835  0.1094
  159loPI    C3 2531   5.492   8.207  10.072  0.0535 -0.0683  0.1416
  159loPI   PO4 2532   5.176   7.791  10.272  0.2979 -0.0736 -0.0973
  159loPI   GL1 2533   5.463   7.707   9.937  0.1187 -0.0659 -0.1548
  159loPI   GL2 2534   5.595   7.842   9.702 -0.1518 -0.1373  0.2291
  159loPI   C1A 2535   5.193   7.518   9.621 -0.1676  0.0005  0.0400
  159loPI   C2A 2536   4.867   7.545   9.285  0.1149  0.0970 -0.1008
  159loPI   C3A 2537   4.761   7.656   8.837 -0.1859 -0.0565 -0.2141
  159loPI   C4A 2538   4.585   7.516   8.431 -0.1682 -0.0176  0.0018
  159loPI   C5A 2539   4.540   7.576   7.975 -0.1337  0.2746  0.3177
  159loPI   C6A 2540   4.357   7.557   7.569  0.0662  0.0144  0.0961
  159loPI   C1B 2541   5.523   7.901   9.224  0.0209  0.1692 -0.2985
  159loPI   C2B 2542   5.235   8.068   8.974 -0.0748  0.1578  0.3203
  159loPI   C3B 2543   5.188   8.211   8.564 -0.4434  0.1132  0.0961
  159loPI   C4B 2544   5.068   8.076   8.243 -0.1649  0.0294  0.0504
  160loPI    C1 2545   4.472   2.950  10.622  0.1618  0.1279 -0.0786
  160loPI    C2 2546   4.707   3.256  10.727  0.1256  0.1207  0.0247
  160loPI    C3 2547   4.594   2.987  11.001 -0.0360  0.1464 -0.0153
  160loPI   PO4 2548   4.504   2.928  10.342  0.0437  0.0473  0.3842
  160loPI   GL1 2549   4.497   2.786   9.936  0.1693  0.0638 -0.0802
  160loPI   GL2 2550   4.861   2.887   9.830 -0.2052 -0.0720 -0.1993
  160loPI   C1A 2551   4.495   2.382   9.697 -0.1256 -0.0540 -0.0734
  160loPI   C2A 2552   4.589   2.215   9.204  0.1578  0.0178  0.3926
  160loPI   C3A 2553   4.616   2.150   8.791  0.1841 -0.0905  0.1977
  160loPI   C4A 2554   4.662   2.269   8.423  0.0293  0.1665  0.1024
  160loPI   C5A 2555   4.925   2.077   8.049 -0.2960  0.1248 -0.2110
  160loPI   C6A 2556   5.112   2.090   7.640  0.2560 -0.0788 -0.1738
  160loPI   C1B 2557   4.775   3.256   9.672  0.3349  0.3096  0.2034
  160loPI   C2B 2558   4.801   3.359   9.313 -0.1427 -0.3285 -0.0094
  160loPI   C3B 2559   4.788   3.207   8.941 -0.0625  0.0563  0.2362
  160loPI   C4B 2560   4.851   3.347   8.434  0.2808  0.3957  0.1980
  161loPI    C1 2561  18.729   1.543  10.847  0.2758 -0.2060  0.1229
  161loPI    C2 2562  18.772   1.939  10.887  0.0603 -0.1818  0.1266
  161loPI    C3 2563  18.733   1.708  11.211  0.0616 -0.1911  0.1202
  161loPI   PO4 2564  18.566   1.420  10.616  0.2204 -0.1618  0.1092
  161loPI   GL1 2565  18.648   1.322  10.195  0.1040  0.1626 -0.0833
  161loPI   GL2 2566  18.443   1.520  10.077 -0.2531 -0.0417 -0.1161
  161loPI   C1A 2567  18.891   1.236   9.843  0.0149  0.1369  0.1379
  161loPI   C2A 2568  18.982   1.192   9.401 -0.0114 -0.0638 -0.6349
  161loPI   C3A 2569  19.051   1.079   9.118 -0.2557 -0.0368  0.0910
  161loPI   C4A 2570  19.214   0.932   8.698  0.0242  0.0240 -0.1829
  161loPI   C5A 2571  19.458   0.860   8.305  0.0092  0.0936  0.0576
  161loPI   C6A 2572  19.822   1.092   8.084  0.0302  0.0145 -0.0786
  161loPI   C1B 2573  18.529   1.548   9.617  0.1388 -0.1829  0.1908
  161loPI   C2B 2574  18.400   1.533   9.183 -0.0382  0.1571  0.2219
  161loPI   C3B 2575  18.348   1.320   8.730 -0.1230  0.0564 -0.0988
  161loPI   C4B 2576  18.375   1.255   8.312 -0.2107 -0.1290  0.6022
  162loPI    C1 2577   3.982  13.785  10.437 -0.1051 -0.0709 -0.0552
  162loPI    C2 2578   4.250  13.494  10.494 -0.1047 -0.0858 -0.1329
  162loPI    C3 2579   4.147  13.733  10.798 -0.0190 -0.0933 -0.0976
  162loPI   PO4 2580   4.077  13.850  10.170 -0.2378  0.4168  0.3303
  162loPI   GL1 2581   4.292  14.010   9.757  0.0380 -0.2160 -0.1451
  162loPI   GL2 2582   4.482  13.777   9.633 -0.1236 -0.2015 -0.2152
  162loPI   C1A 2583   4.243  14.230   9.332  0.0558  0.1968  0.3073
  162loPI   C2A 2584   4.233  14.274   8.860  0.1712  0.2743 -0.2335
  162loPI   C3A 2585   4.300  14.315   8.459  0.1094  0.1735  0.1840
  162loPI   C4A 2586   4.370  14.347   7.999 -0.2320  0.1355 -0.1041
  162loPI   C5A 2587   4.777  14.455   7.754  0.1295 -0.1649 -0.1049
  162loPI   C6A 2588   5.050  14.665   7.445 -0.2722 -0.2162 -0.0588
  162loPI   C1B 2589   4.426  13.742   9.259  0.1084 -0.4465  0.1785
  162loPI   C2B 2590   4.323  13.775   8.820  0.0038 -0.0741  0.1708
  162loPI   C3B 2591   4.392  13.783   8.314  0.4318  0.0762  0.1994
  162loPI   C4B 2592   4.383  13.728   7.911 -0.2565 -0.2278 -0.0084
  163loPI    C1 2593  15.077   7.634  10.992 -0.1089 -0.0041 -0.1006
  163loPI    C2 2594  14.782   7.375  10.914 -0.0751 -0.0558 -0.0577
  163loPI    C3 2595  14.986   7.348  11.257 -0.0447  0.0026 -0.0709
  163loPI   PO4 2596  15.215   7.582  10.713 -0.1051  0.0870 -0.2225
  163loPI   GL1 2597  15.468   7.316  10.441  0.0814  0.0216  0.0094
  163loPI   GL2 2598  15.741   7.379  10.290  0.1490 -0.1050  0.2407
  163loPI   C1A 2599  15.241   7.322  10.078  0.1553  0.1994  0.1566
  163loPI   C2A 2600  15.217   7.210   9.653  0.0479  0.0182  0.1510
  163loPI   C3A 2601  15.261   7.304   9.213  0.0194 -0.1021 -0.0063
  163loPI   C4A 2602  15.191   7.160   8.746 -0.0352 -0.5508 -0.0082
  163loPI   C5A 2603  15.292   7.358   8.388 -0.1096 -0.0837  0.0383
  163loPI   C6A 2604  15.596   7.234   8.106 -0.0887  0.2403  0.0165
  163loPI   C1B 2605  15.719   7.238   9.865 -0.0702 -0.3785 -0.1652
  163loPI   C2B 2606  15.757   7.219   9.441  0.2944 -0.1370  0.1375
  163loPI   C3B 2607  15.695   7.104   9.001 -0.1520  0.1451 -0.1266
  163loPI   C4B 2608  15.741   7.118   8.587  0.0984  0.3464  0.0480
  164loPI    C1 2609   5.000  14.069  10.539 -0.3210  0.1580  0.1459
  164loPI    C2 2610   5.084  14.408  10.734  0.3936 -0.0109  0.1597
  164loPI    C3 2611   4.999  14.075  10.939 -0.0636  0.0912  0.1487
  164loPI   PO4 2612   5.109  14.105  10.306  0.0027  0.2065 -0.3785
  164loPI   GL1 2613   5.334  14.266   9.917 -0.3508 -0.0823  0.0983
  164loPI   GL2 2614   5.680  14.262   9.894 -0.2460  0.3297 -0.0299
  164loPI   C1A 2615   5.135  14.356   9.463  0.0052 -0.2716 -0.1056
  164loPI   C2A 2616   5.171  14.378   9.141 -0.0644  0.0869 -0.0526
  164loPI   C3A 2617   5.144  14.450   8.650 -0.1038 -0.1082 -0.0112
  164loPI   C4A 2618   5.224  14.533   8.239 -0.1021 -0.3372  0.0143
  164loPI   C5A 2619   5.308  14.724   7.895 -0.3960  0.3104  0.0377
  164loPI   C6A 2620   5.596  14.805   7.656 -0.0379  0.2182  0.0164
  164loPI   C1B 2621   5.581  14.206   9.433 -0.0897  0.2144 -0.0659
  164loPI   C2B 2622   5.636  14.280   9.037 -0.1331 -0.2011 -0.1330
  164loPI   C3B 2623   5.668  14.374   8.555  0.1065  0.3619 -0.3132
  164loPI   C4B 2624   5.685  14.346   8.169  0.1354 -0.1092  0.1490
  165loPI    C1 2625  14.306   7.839  10.945  0.2074  0.0455  0.1541
  165loPI    C2 2626  14.138   7.686  11.273 -0.0423  0.1737  0.0881
  165loPI    C3 2627  14.320   8.042  11.289 -0.2492  0.2833  0.0399
  165loPI   PO4 2628  14.119   7.815  10.767  0.5099 -0.2033 -0.0520
  165loPI   GL1 2629  13.739   7.630  10.516  0.2591 -0.5094 -0.4188
  165loPI   GL2 2630  13.467   7.497  10.582 -0.1201  0.0441  0.2478
  165loPI   C1A 2631  13.832   7.783  10.047 -0.0350 -0.1548  0.1388
  165loPI   C2A 2632  13.904   7.770   9.650  0.0346 -0.1615 -0.0536
  165loPI   C3A 2633  13.940   7.758   9.216 -0.1779 -0.1547  0.0863
  165loPI   C4A 2634  14.059   7.655   8.810 -0.0711  0.3376  0.0702
  165loPI   C5A 2635  13.975   7.697   8.405 -0.1851 -0.1154 -0.0012
  165loPI   C6A 2636  14.166   7.986   8.048  0.4096 -0.3381  0.1795
  165loPI   C1B 2637  13.537   7.396  10.148  0.0195 -0.0396  0.0903
  165loPI   C2B 2638  13.547   7.336   9.563 -0.2594 -0.0849  0.2297
  165loPI   C3B 2639  13.628   7.231   9.151  0.2282  0.0800 -0.1123
  165loPI   C4B 2640  13.771   7.216   8.803 -0.1198 -0.3128  0.1833
  166loPI    C1 2641   9.910  12.192  10.232  0.1140  0.0178  0.1817
  166loPI    C2 2642  10.226  12.148   9.990  0.0346  0.0932  0.0634
  166loPI    C3 2643  10.127  12.511  10.125  0.0292  0.0625  0.1423
  166loPI   PO4 2644   9.736  12.143  10.087 -0.2095  0.1937 -0.1417
  166loPI   GL1 2645   9.629  12.430   9.813  0.0174 -0.1714 -0.1875
  166loPI   GL2 2646   9.479  12.293   9.649  0.0546 -0.1081  0.1072
  166loPI   C1A 2647   9.975  12.391   9.556 -0.0760 -0.2775 -0.1876
  166loPI   C2A 2648   9.960  12.568   9.139 -0.2085  0.0462 -0.0208
  166loPI   C3A 2649   9.950  12.539   8.706 -0.0186  0.1840  0.1399
  166loPI   C4A 2650   9.894  12.544   8.316 -0.1967 -0.1600  0.0551
  166loPI   C5A 2651   9.644  12.500   7.888  0.0737 -0.2913  0.0072
  166loPI   C6A 2652   9.371  12.868   7.660 -0.0673  0.2021  0.0286
  166loPI   C1B 2653   9.521  12.237   9.244  0.0594 -0.0557 -0.1185
  166loPI   C2B 2654   9.612  12.165   8.923 -0.0054 -0.1341  0.0663
  166loPI   C3B 2655   9.589  12.222   8.594  0.2718  0.1054  0.2286
  166loPI   C4B 2656   9.475  12.209   8.239 -0.1077  0.1073 -0.0308
  167loPI    C1 2657   1.017   9.997  10.952  0.2338 -0.0386 -0.0642
  167loPI    C2 2658   0.814   9.988  11.297  0.2722  0.1467 -0.0356
  167loPI    C3 2659   1.111   9.727  11.232 -0.1728 -0.3338 -0.2042
  167loPI   PO4 2660   0.824   9.938  10.703  0.4385 -0.1646  0.3421
  167loPI   GL1 2661   0.716   9.964  10.294 -0.0957 -0.0493  0.1509
  167loPI   GL2 2662   0.478   9.866  10.076 -0.2133  0.5446 -0.2888
  167loPI   C1A 2663   0.999  10.064   9.941  0.0890 -0.0720  0.2748
  167loPI   C2A 2664   0.924  10.266   9.523  0.1804 -0.1135 -0.1946
  167loPI   C3A 2665   0.829  10.174   9.002 -0.3372  0.2831  0.1491
  167loPI   C4A 2666   0.768  10.257   8.587 -0.2824 -0.2547 -0.0626
  167loPI   C5A 2667   0.954  10.408   8.197  0.0936  0.1585 -0.3037
  167loPI   C6A 2668   1.150  10.780   7.984  0.0705 -0.1451 -0.0400
  167loPI   C1B 2669   0.546   9.943   9.653 -0.0307 -0.1270  0.4503
  167loPI   C2B 2670   0.445   9.994   9.194 -0.0886  0.0176  0.0662
  167loPI   C3B 2671   0.391   9.997   8.757 -0.0319 -0.2745  0.1493
  167loPI   C4B 2672   0.308  10.105   8.288  0.1061 -0.1126  0.1571
  168loPI    C1 2673   0.756   1.384  10.746  0.0449 -0.0623  0.1582
  168loPI    C2 2674   0.429   1.406  10.975  0.1240 -0.1367  0.2795
  168loPI    C3 2675   0.691   1.108  11.028  0.0761 -0.2314  0.0019
  168loPI   PO4 2676   0.700   1.413  10.518 -0.1892  0.0608  0.0149
  168loPI   GL1 2677   0.609   1.577  10.010  0.0499  0.1512 -0.0683
  168loPI   GL2 2678   0.939   1.678   9.920  0.2162 -0.3307 -0.0312
  168loPI   C1A 2679   0.619   1.386   9.642 -0.0984  0.0416 -0.0229
  168loPI   C2A 2680   0.659   1.480   9.221 -0.0396  0.1841 -0.1761
  168loPI   C3A 2681   0.690   1.433   8.740 -0.0705  0.0249  0.0963
  168loPI   C4A 2682   0.900   1.435   8.423  0.1682  0.1337 -0.1240
  168loPI   C5A 2683   0.778   1.445   8.136 -0.0718 -0.2022 -0.1859
  168loPI   C6A 2684   0.286   1.546   8.080 -0.1197  0.0433  0.0945
  168loPI   C1B 2685   0.984   1.816   9.505 -0.0981 -0.0990 -0.2174
  168loPI   C2B 2686   1.033   1.705   9.036  0.0846  0.2646 -0.1279
  168loPI   C3B 2687   0.998   1.864   8.689 -0.1855  0.0267 -0.2352
  168loPI   C4B 2688   1.075   1.912   8.264 -0.0507 -0.1023  0.0018
  169loPI    C1 2689  15.624  12.169  10.663 -0.1626  0.0866  0.2264
  169loPI    C2 2690  15.440  12.475  10.484  0.0518  0.0513 -0.0626
  169loPI    C3 2691  15.366  12.394  10.869 -0.3892  0.1520 -0.1207
  169loPI   PO4 2692  15.753  12.098  10.466 -0.0811 -0.1495 -0.1062
  169loPI   GL1 2693  16.028  12.232  10.128 -0.1748 -0.0530 -0.0402
  169loPI   GL2 2694  15.726  12.423  10.044  0.0297  0.1596  0.1623
  169loPI   C1A 2695  15.994  11.868   9.796 -0.2998 -0.3235  0.1466
  169loPI   C2A 2696  16.058  11.680   9.353 -0.3031 -0.0200 -0.0602
  169loPI   C3A 2697  16.180  11.323   9.081  0.2258  0.2000  0.0647
  169loPI   C4A 2698  16.212  11.172   8.746  0.1077  0.0649  0.3699
  169loPI   C5A 2699  16.038  11.034   8.365 -0.2028  0.0716 -0.0720
  169loPI   C6A 2700  16.058  10.669   8.073  0.1237 -0.1279 -0.0419
  169loPI   C1B 2701  15.720  12.252   9.594 -0.0579 -0.0319  0.3069
  169loPI   C2B 2702  15.576  12.293   9.159 -0.2060 -0.0656 -0.3060
  169loPI   C3B 2703  15.516  12.438   8.712  0.0894  0.0772 -0.1022
  169loPI   C4B 2704  15.175  12.482   8.422 -0.0350  0.3359  0.0869
  170loPI    C1 2705  11.363  15.292  10.307 -0.0106 -0.0484  0.0774
  170loPI    C2 2706  11.522  14.947  10.433  0.3806  0.0761 -0.0632
  170loPI    C3 2707  11.353  15.197  10.696  0.1517 -0.1905  0.0479
  170loPI   PO4 2708  11.526  15.325  10.082  0.0225 -0.4624 -0.1167
  170loPI   GL1 2709  11.522  15.640   9.778 -0.2638  0.0897 -0.0234
  170loPI   GL2 2710  11.657  15.398   9.596  0.1896  0.1944 -0.0350
  170loPI   C1A 2711  11.498  15.850   9.406 -0.1331 -0.3604  0.0262
  170loPI   C2A 2712  11.607  15.671   8.898  0.2075  0.1242  0.0217
  170loPI   C3A 2713  11.514  15.547   8.417  0.3682 -0.0552  0.0927
  170loPI   C4A 2714  11.693  15.717   8.000 -0.1686 -0.2150 -0.3007
  170loPI   C5A 2715  11.349  15.678   7.750  0.2099 -0.0824 -0.3207
  170loPI   C6A 2716  11.364  15.545   7.345  0.1245  0.0889 -0.0916
  170loPI   C1B 2717  11.959  15.630   9.256  0.0584  0.2346 -0.0280
  170loPI   C2B 2718  12.224  15.675   8.913  0.0629  0.0167  0.1915
  170loPI   C3B 2719  12.264  15.683   8.584 -0.0538  0.2690 -0.1714
  170loPI   C4B 2720  12.179  15.859   8.268  0.1869  0.2772 -0.1658
  171loPI    C1 2721   6.934  13.766  10.381 -0.0337 -0.0034 -0.0455
  171loPI    C2 2722   7.250  13.545  10.272  0.0250  0.0893 -0.0647
  171loPI    C3 2723   7.193  13.637  10.657 -0.1995 -0.2647 -0.0080
  171loPI   PO4 2724   6.908  13.920  10.211 -0.4181 -0.1645  0.2017
  171loPI   GL1 2725   6.916  13.626   9.862 -0.3380  0.0910 -0.1749
  171loPI   GL2 2726   6.666  13.502   9.688  0.1902 -0.2411  0.1857
  171loPI   C1A 2727   7.079  13.718   9.558 -0.0681  0.1370  0.0140
  171loPI   C2A 2728   7.159  13.693   9.139  0.1002 -0.0973  0.0422
  171loPI   C3A 2729   7.152  13.578   8.753 -0.2492  0.3106 -0.3136
  171loPI   C4A 2730   7.264  13.589   8.380  0.3828  0.2024  0.1943
  171loPI   C5A 2731   7.184  13.718   7.999  0.0986 -0.1618  0.1064
  171loPI   C6A 2732   7.127  13.544   7.640 -0.2789 -0.3573  0.0709
  171loPI   C1B 2733   6.716  13.360   9.329  0.2241  0.0094  0.1604
  171loPI   C2B 2734   6.640  13.406   8.873 -0.0689 -0.2851 -0.1410
  171loPI   C3B 2735   6.787  13.419   8.398  0.3096 -0.1400  0.1919
  171loPI   C4B 2736   6.754  13.439   7.945  0.2788  0.2866 -0.0758
  172loPI    C1 2737  14.677   4.896  10.864 -0.1046 -0.0646  0.0104
  172loPI    C2 2738  14.541   4.614  11.114  0.0813 -0.0713  0.1052
  172loPI    C3 2739  14.546   4.997  11.229  0.2182 -0.0812  0.1337
  172loPI   PO4 2740  14.587   4.841  10.637 -0.0947 -0.1742  0.0025
  172loPI   GL1 2741  14.371   4.606  10.353 -0.0764  0.1378 -0.1302
  172loPI   GL2 2742  14.170   4.875  10.276 -0.3088 -0.2154 -0.1271
  172loPI   C1A 2743  14.428   4.586   9.846  0.1236 -0.0330 -0.0667
  172loPI   C2A 2744  14.459   4.478   9.549 -0.2020 -0.1973 -0.0835
  172loPI   C3A 2745  14.457   4.461   9.164 -0.0059 -0.1629  0.0179
  172loPI   C4A 2746  14.458   4.440   8.681  0.0463  0.1423 -0.2759
  172loPI   C5A 2747  14.234   4.373   8.288 -0.1381  0.1333 -0.0256
  172loPI   C6A 2748  13.852   4.245   8.143  0.0027  0.0856 -0.1736
  172loPI   C1B 2749  14.226   5.035   9.830 -0.1634 -0.0900  0.2284
  172loPI   C2B 2750  14.226   4.954   9.395  0.1708 -0.3003 -0.0610
  172loPI   C3B 2751  14.366   4.888   8.962 -0.3032  0.1091 -0.2132
  172loPI   C4B 2752  14.222   4.934   8.547  0.0031 -0.2308  0.0625
  173loPI    C1 2753   4.281  14.785  10.079 -0.0427  0.1156 -0.3249
  173loPI    C2 2754   4.175  14.402  10.030 -0.0376  0.0951 -0.1804
  173loPI    C3 2755   4.196  14.558  10.398  0.1599  0.1771 -0.2255
  173loPI   PO4 2756   4.176  14.893   9.868  0.1209  0.3223  0.1917
  173loPI   GL1 2757   3.999  14.861   9.524  0.1737 -0.4903  0.2849
  173loPI   GL2 2758   3.775  14.602   9.503  0.1579 -0.1170  0.1293
  173loPI   C1A 2759   4.118  14.785   9.016 -0.2187 -0.1724  0.0268
  173loPI   C2A 2760   4.122  14.705   8.634 -0.2105 -0.0502  0.0990
  173loPI   C3A 2761   4.262  14.764   8.225 -0.2758 -0.4310  0.1265
  173loPI   C4A 2762   4.415  14.822   7.835 -0.0171  0.0444  0.1371
  173loPI   C5A 2763   4.445  14.622   7.464 -0.0981  0.1750 -0.0492
  173loPI   C6A 2764   4.534  14.662   7.066  0.1389  0.3073 -0.1202
  173loPI   C1B 2765   3.774  14.430   9.217 -0.2968  0.2965 -0.2312
  173loPI   C2B 2766   3.771  14.394   8.735 -0.4874  0.0819 -0.2308
  173loPI   C3B 2767   3.843  14.494   8.351  0.0253 -0.2405  0.2759
  173loPI   C4B 2768   3.884  14.523   7.935  0.0096  0.3993  0.4494
  174loPI    C1 2769   0.111  13.809  10.629  0.3125  0.1404 -0.0910
  174loPI    C2 2770   0.151  14.072  10.927  0.3794  0.4001 -0.3248
  174loPI    C3 2771   0.274  13.694  10.975  0.0502  0.3397  0.1026
  174loPI   PO4 2772  -0.111  13.834  10.530  0.0501  0.4095  0.2740
  174loPI   GL1 2773  -0.161  14.217  10.212 -0.2324 -0.1775 -0.3356
  174loPI   GL2 2774  -0.262  14.527  10.183 -0.0460  0.1312  0.0559
  174loPI   C1A 2775  -0.232  14.015   9.874  0.0557 -0.2516  0.5829
  174loPI   C2A 2776  -0.217  14.029   9.476 -0.3815 -0.0187  0.0416
  174loPI   C3A 2777  -0.282  14.103   9.067 -0.0626 -0.3519  0.0643
  174loPI   C4A 2778  -0.298  14.192   8.611  0.0095 -0.0804  0.0507
  174loPI   C5A 2779  -0.243  14.135   8.289 -0.0184 -0.0605  0.0822
  174loPI   C6A 2780  -0.451  14.328   7.897  0.2076  0.2815  0.1152
  174loPI   C1B 2781  -0.312  14.511   9.734  0.2108  0.0972  0.0944
  174loPI   C2B 2782  -0.391  14.618   9.272  0.0109  0.3733 -0.1798
  174loPI   C3B 2783  -0.350  14.668   8.860 -0.0208  0.1075 -0.0883
  174loPI   C4B 2784  -0.404  14.618   8.431 -0.1048  0.0645 -0.0438
  175loPI    C1 2785   1.176   5.290  10.680 -0.1659  0.1268  0.0034
  175loPI    C2 2786   1.238   5.537  10.989 -0.0151 -0.0485  0.1157
  175loPI    C3 2787   1.188   5.145  11.053 -0.1757 -0.0599 -0.0675
  175loPI   PO4 2788   1.212   5.260  10.425 -0.3722 -0.1072  0.2672
  175loPI   GL1 2789   1.398   5.116   9.961 -0.1134  0.0432  0.0508
  175loPI   GL2 2790   1.503   4.815   9.869  0.0106  0.4124  0.3286
  175loPI   C1A 2791   1.174   5.327   9.754  0.1964  0.0448  0.3600
  175loPI   C2A 2792   1.070   5.359   9.289  0.2419 -0.1044  0.0629
  175loPI   C3A 2793   0.794   5.432   8.955 -0.1475 -0.1022 -0.0462
  175loPI   C4A 2794   0.743   5.244   8.601 -0.0208  0.2876 -0.0908
  175loPI   C5A 2795   0.736   5.252   8.121  0.0480 -0.1207 -0.2429
  175loPI   C6A 2796   0.590   5.150   7.674 -0.0040 -0.0535 -0.1469
  175loPI   C1B 2797   1.403   4.898   9.432  0.1085 -0.1556  0.2193
  175loPI   C2B 2798   1.383   4.939   8.971 -0.4179 -0.0571  0.0127
  175loPI   C3B 2799   1.561   5.008   8.586  0.1511 -0.0171  0.0054
  175loPI   C4B 2800   1.592   5.483   8.359  0.1510 -0.0023  0.0979
  176loPI    C1 2801   6.679   2.398  10.248 -0.0684 -0.0954  0.1637
  176loPI    C2 2802   6.648   2.397  10.647  0.0743  0.0323  0.1762
  176loPI    C3 2803   6.722   2.739  10.453  0.0340 -0.0344  0.0423
  176loPI   PO4 2804   6.986   2.120  10.186 -0.0894  0.1496  0.0526
  176loPI   GL1 2805   7.146   2.046   9.827 -0.3575 -0.1086  0.0285
  176loPI   GL2 2806   6.989   1.889   9.669  0.0699 -0.1231  0.2227
  176loPI   C1A 2807   7.477   1.972   9.543 -0.1024  0.1245 -0.2184
  176loPI   C2A 2808   7.677   1.852   9.153 -0.1441 -0.1187  0.0482
  176loPI   C3A 2809   7.836   1.825   8.730  0.0891 -0.0763  0.0787
  176loPI   C4A 2810   7.828   1.750   8.255 -0.1084  0.1203  0.0182
  176loPI   C5A 2811   7.818   2.010   7.929  0.0747  0.2958  0.2182
  176loPI   C6A 2812   7.967   2.170   7.581 -0.0580 -0.0273  0.1529
  176loPI   C1B 2813   7.148   2.018   9.136  0.0151 -0.0815 -0.1733
  176loPI   C2B 2814   7.363   1.934   8.707 -0.0287  0.2268 -0.1788
  176loPI   C3B 2815   7.648   2.222   8.426 -0.1766 -0.0882 -0.0622
  176loPI   C4B 2816   7.493   2.380   8.019 -0.0369 -0.1522 -0.0605
  177loPI    C1 2817  11.322   1.025  10.305  0.1144 -0.1698  0.1534
  177loPI    C2 2818  11.070   1.306  10.436  0.1176  0.0651 -0.3223
  177loPI    C3 2819  10.967   0.920  10.457  0.0009  0.1133  0.0901
  177loPI   PO4 2820  11.551   1.236  10.249 -0.1930  0.1373 -0.3663
  177loPI   GL1 2821  11.612   1.510   9.832  0.0556 -0.0484 -0.0943
  177loPI   GL2 2822  11.753   1.770   9.729  0.2008  0.0776  0.0723
  177loPI   C1A 2823  11.486   1.386   9.453 -0.1582  0.4486 -0.1012
  177loPI   C2A 2824  11.514   1.541   8.984 -0.0463 -0.0304 -0.2441
  177loPI   C3A 2825  11.389   1.602   8.574 -0.2622  0.0434  0.1229
  177loPI   C4A 2826  11.547   1.613   8.118  0.1350  0.1455  0.1447
  177loPI   C5A 2827  11.546   1.588   7.644 -0.1111  0.1299  0.0232
  177loPI   C6A 2828  11.906   1.471   7.390  0.1744 -0.0902  0.2305
  177loPI   C1B 2829  11.978   2.124   9.623 -0.1225 -0.0962  0.4277
  177loPI   C2B 2830  11.974   2.474   9.410  0.1611  0.4291  0.1800
  177loPI   C3B 2831  12.037   2.455   9.025  0.1130 -0.3999 -0.0802
  177loPI   C4B 2832  12.055   2.509   8.509 -0.1408 -0.0670 -0.0160
  178loPI    C1 2833   2.145   7.206  10.438 -0.3251  0.0149  0.1825
  178loPI    C2 2834   2.336   7.517  10.603  0.0734 -0.0315 -0.1741
  178loPI    C3 2835   2.442   7.144  10.699 -0.1506 -0.0607 -0.0315
  178loPI   PO4 2836   2.108   7.287  10.138 -0.0627  0.1835 -0.1176
  178loPI   GL1 2837   2.313   7.172   9.800 -0.0286  0.0338 -0.2079
  178loPI   GL2 2838   2.510   6.937   9.777 -0.0937  0.2567  0.1353
  178loPI   C1A 2839   2.139   7.061   9.414 -0.2804 -0.0788  0.0775
  178loPI   C2A 2840   2.176   6.940   8.958  0.0628  0.1080  0.1631
  178loPI   C3A 2841   2.325   7.184   8.614  0.0012  0.1969  0.1868
  178loPI   C4A 2842   2.379   7.358   8.230  0.2875  0.0337  0.1391
  178loPI   C5A 2843   2.289   7.460   7.817  0.2844  0.2451 -0.1579
  178loPI   C6A 2844   2.625   7.744   7.576 -0.1440 -0.0979  0.0407
  178loPI   C1B 2845   2.548   6.894   9.341 -0.0564  0.0048 -0.0987
  178loPI   C2B 2846   2.681   6.893   8.881  0.0923  0.0333  0.3707
  178loPI   C3B 2847   2.807   7.179   8.404  0.0516  0.2406 -0.0046
  178loPI   C4B 2848   2.777   7.315   7.841 -0.0557  0.0379 -0.0530
  179loPI    C1 2849  12.076  12.000  10.135  0.0738  0.0213  0.0337
  179loPI    C2 2850  11.988  12.380  10.046 -0.3170 -0.0911 -0.0760
  179loPI    C3 2851  11.910  12.237  10.412 -0.0465 -0.0313  0.0070
  179loPI   PO4 2852  12.332  11.952  10.044  0.2827  0.1484 -0.1424
  179loPI   GL1 2853  12.451  12.036   9.655 -0.2160 -0.0062  0.0728
  179loPI   GL2 2854  12.736  12.256   9.627 -0.2013 -0.0810 -0.2393
  179loPI   C1A 2855  12.400  12.299   9.220  0.1863 -0.2005  0.1433
  179loPI   C2A 2856  12.527  12.319   8.821  0.2116  0.0754 -0.1123
  179loPI   C3A 2857  12.520  12.091   8.424 -0.2737  0.4050  0.1057
  179loPI   C4A 2858  12.698  11.881   8.175 -0.0592 -0.0083  0.2030
  179loPI   C5A 2859  12.923  11.595   7.866  0.0903 -0.0004  0.2075
  179loPI   C6A 2860  12.671  11.188   7.747 -0.4813  0.0773 -0.0749
  179loPI   C1B 2861  12.823  11.948   9.185  0.3033 -0.2747 -0.1992
  179loPI   C2B 2862  12.857  11.799   8.750 -0.2538  0.2303 -0.2736
  179loPI   C3B 2863  13.123  11.670   8.318  0.1497  0.2434 -0.0484
  179loPI   C4B 2864  13.336  11.375   8.048  0.1503 -0.1151  0.1471
  180loPI    C1 2865  12.348  16.610  10.295 -0.1157  0.0205 -0.0860
  180loPI    C2 2866  12.581  16.417  10.556  0.0385  0.0840 -0.1750
  180loPI    C3 2867  12.511  16.808  10.602 -0.1687  0.0360 -0.0677
  180loPI   PO4 2868  12.093  16.522  10.328  0.1397 -0.1289  0.0479
  180loPI   GL1 2869  11.972  16.359  10.017  0.2372  0.2019 -0.3306
  180loPI   GL2 2870  12.279  16.276   9.917  0.1852  0.1856  0.3480
  180loPI   C1A 2871  12.042  16.460   9.515 -0.0287  0.1423 -0.2149
  180loPI   C2A 2872  12.014  16.608   9.122  0.0094  0.0204 -0.0958
  180loPI   C3A 2873  12.002  16.651   8.747  0.1036  0.0898 -0.0173
  180loPI   C4A 2874  11.940  16.845   8.384 -0.0062 -0.3781 -0.1456
  180loPI   C5A 2875  11.715  16.939   8.045 -0.0624 -0.0357  0.1247
  180loPI   C6A 2876  11.480  16.637   7.857  0.3795 -0.0868 -0.1740
  180loPI   C1B 2877  12.575  16.346   9.626  0.0146 -0.1279 -0.3776
  180loPI   C2B 2878  12.720  16.349   9.223  0.2884 -0.1269 -0.1108
  180loPI   C3B 2879  12.793  16.309   8.745 -0.4244  0.1787  0.1430
  180loPI   C4B 2880  12.760  16.380   8.346  0.0179  0.0297  0.0517
  181loPI    C1 2881   2.873   8.994  10.292 -0.3509 -0.0485 -0.0682
  181loPI    C2 2882   3.020   9.105  10.647 -0.0543  0.1031 -0.2349
  181loPI    C3 2883   2.732   8.828  10.627 -0.0580  0.0776  0.1211
  181loPI   PO4 2884   3.126   8.812  10.100  0.0498  0.1509  0.0382
  181loPI   GL1 2885   3.094   8.856   9.687  0.0431  0.1294  0.2206
  181loPI   GL2 2886   2.926   8.549   9.666 -0.0051 -0.0601  0.0813
  181loPI   C1A 2887   3.076   8.668   9.213  0.0614 -0.2603 -0.3893
  181loPI   C2A 2888   2.905   8.623   8.874 -0.0567 -0.1291 -0.2446
  181loPI   C3A 2889   2.705   8.648   8.477  0.2065 -0.0079  0.2683
  181loPI   C4A 2890   2.718   8.680   8.036  0.1308  0.0287 -0.3439
  181loPI   C5A 2891   2.878   8.670   7.701  0.1488  0.0713  0.0690
  181loPI   C6A 2892   2.804   8.492   7.264  0.2152  0.0685  0.2627
  181loPI   C1B 2893   2.687   8.341   9.278 -0.2831  0.0053  0.2964
  181loPI   C2B 2894   2.524   8.243   8.912  0.0820  0.2389 -0.0802
  181loPI   C3B 2895   2.229   8.069   8.555 -0.0024 -0.0466  0.4466
  181loPI   C4B 2896   1.822   8.094   8.304 -0.0738 -0.0902 -0.3214
  182loPI    C1 2897  14.146   3.745  10.440  0.0802 -0.0989  0.0613
  182loPI    C2 2898  13.812   3.770  10.659  0.1622 -0.3149  0.2144
  182loPI    C3 2899  14.052   3.452  10.695  0.3652 -0.1800  0.0765
  182loPI   PO4 2900  14.282   4.086  10.510  0.3144 -0.1255  0.4035
  182loPI   GL1 2901  14.450   4.136  10.163  0.0052  0.3179  0.0693
  182loPI   GL2 2902  14.696   4.033   9.995 -0.0850 -0.3183  0.1939
  182loPI   C1A 2903  14.177   4.130   9.744  0.1324  0.0268 -0.1336
  182loPI   C2A 2904  14.128   4.098   9.304 -0.0607  0.0225  0.4040
  182loPI   C3A 2905  14.110   4.065   8.926 -0.1370  0.0810 -0.1856
  182loPI   C4A 2906  14.141   3.951   8.527  0.0468  0.1603  0.1637
  182loPI   C5A 2907  14.198   3.889   8.038 -0.1159 -0.0161  0.0768
  182loPI   C6A 2908  14.235   3.489   7.708  0.0715  0.4059  0.1325
  182loPI   C1B 2909  14.742   4.058   9.573  0.2697  0.1064  0.2248
  182loPI   C2B 2910  14.595   3.980   9.143  0.1675  0.0009  0.1567
  182loPI   C3B 2911  14.560   3.985   8.753 -0.2058  0.0811 -0.3847
  182loPI   C4B 2912  14.668   4.024   8.320  0.0893 -0.0108  0.2406
  183loPI    C1 2913  17.608   1.137  10.759 -0.0724 -0.0260 -0.1394
  183loPI    C2 2914  17.858   1.445  10.810  0.0412 -0.1484  0.0520
  183loPI    C3 2915  17.500   1.447  10.988 -0.0285 -0.0491 -0.0873
  183loPI   PO4 2916  17.643   1.078  10.569 -0.0677  0.2320 -0.0017
  183loPI   GL1 2917  17.688   1.153  10.139 -0.1072  0.1267 -0.0349
  183loPI   GL2 2918  17.549   1.445   9.922 -0.1898 -0.1048  0.1191
  183loPI   C1A 2919  18.037   1.261   9.879  0.0390 -0.0360  0.3759
  183loPI   C2A 2920  18.292   1.068   9.547  0.0961 -0.0914 -0.1154
  183loPI   C3A 2921  18.475   1.029   9.133 -0.1198  0.0457 -0.2425
  183loPI   C4A 2922  18.734   0.937   8.727  0.2320 -0.1620 -0.2956
  183loPI   C5A 2923  18.920   0.623   8.359 -0.0046 -0.2122 -0.1731
  183loPI   C6A 2924  19.319   0.392   8.332  0.0194  0.0506 -0.0303
  183loPI   C1B 2925  17.126   1.432   9.719 -0.2431  0.2147 -0.0197
  183loPI   C2B 2926  16.814   1.230   9.582  0.0821 -0.0342  0.1772
  183loPI   C3B 2927  16.695   1.034   9.250 -0.0817 -0.4555  0.1803
  183loPI   C4B 2928  16.494   0.988   8.867 -0.0645  0.2867 -0.4777
  184loPI    C1 2929  12.504   9.950  10.799 -0.2071  0.0064  0.0906
  184loPI    C2 2930  12.198  10.193  10.882 -0.0099  0.2305  0.1705
  184loPI    C3 2931  12.554  10.255  11.052  0.0296 -0.1480  0.2328
  184loPI   PO4 2932  12.459   9.899  10.558  0.0759  0.3782  0.2063
  184loPI   GL1 2933  12.563   9.762  10.156  0.2117  0.1755  0.1393
  184loPI   GL2 2934  12.819   9.969  10.107 -0.2060 -0.2761  0.0167
  184loPI   C1A 2935  12.566   9.615   9.700  0.0454  0.0191  0.0430
  184loPI   C2A 2936  12.473   9.543   9.238  0.2118 -0.2377 -0.1471
  184loPI   C3A 2937  12.522   9.477   8.844  0.3947 -0.0328  0.1921
  184loPI   C4A 2938  12.573   9.487   8.449  0.0444  0.3068 -0.2202
  184loPI   C5A 2939  12.854   9.813   8.243  0.2302  0.1071 -0.1289
  184loPI   C6A 2940  12.903  10.255   8.032 -0.0541 -0.0045 -0.0799
  184loPI   C1B 2941  12.785  10.101   9.667 -0.0360  0.0762  0.0715
  184loPI   C2B 2942  12.782  10.053   9.314  0.0800  0.0441 -0.1126
  184loPI   C3B 2943  12.848   9.792   8.895 -0.1063  0.0006  0.1555
  184loPI   C4B 2944  13.052   9.507   8.616  0.0942 -0.1007 -0.1518
  185loPI    C1 2945  17.162   3.395  10.401 -0.1881  0.2202  0.0530
  185loPI    C2 2946  17.279   3.019  10.329 -0.2407  0.1882  0.1333
  185loPI    C3 2947  17.084   3.107  10.667 -0.3648  0.2590  0.0445
  185loPI   PO4 2948  17.030   3.478  10.160 -0.0494 -0.1283 -0.2993
  185loPI   GL1 2949  17.100   3.710   9.767 -0.0383 -0.0526  0.1901
  185loPI   GL2 2950  16.839   3.439   9.706 -0.0162 -0.0587  0.3462
  185loPI   C1A 2951  17.312   3.949   9.480  0.1824 -0.2694 -0.0212
  185loPI   C2A 2952  17.304   4.278   9.189  0.0018  0.0880 -0.1995
  185loPI   C3A 2953  17.482   4.340   8.698  0.0231  0.1195 -0.1017
  185loPI   C4A 2954  17.708   4.228   8.333 -0.2814  0.4019 -0.5111
  185loPI   C5A 2955  17.994   4.197   8.045 -0.3061  0.0862  0.0920
  185loPI   C6A 2956  18.060   4.379   7.679  0.1518  0.1778 -0.0207
  185loPI   C1B 2957  16.986   3.573   9.299  0.0237  0.0045 -0.1870
  185loPI   C2B 2958  16.922   3.896   8.991  0.0446  0.0227  0.0928
  185loPI   C3B 2959  16.783   3.879   8.628 -0.2802 -0.0882 -0.0954
  185loPI   C4B 2960  16.363   3.863   8.341  0.4612  0.0163 -0.1066
  186loPI    C1 2961   2.275   1.707  10.380  0.3191 -0.0367  0.0105
  186loPI    C2 2962   2.078   1.906  10.665  0.3025  0.1007 -0.0960
  186loPI    C3 2963   2.193   1.528  10.728  0.2828  0.1240  0.0853
  186loPI   PO4 2964   2.417   1.876  10.245 -0.1359 -0.0660 -0.0161
  186loPI   GL1 2965   2.429   2.168   9.939 -0.1158 -0.0115 -0.0890
  186loPI   GL2 2966   2.181   2.028   9.819 -0.1931 -0.2202  0.1025
  186loPI   C1A 2967   2.355   2.412   9.584 -0.1073  0.0650  0.1067
  186loPI   C2A 2968   2.452   2.489   9.193 -0.0207  0.2568  0.0586
  186loPI   C3A 2969   2.388   2.380   8.820 -0.0657  0.1856  0.0355
  186loPI   C4A 2970   2.347   2.421   8.387 -0.0056 -0.0977  0.1478
  186loPI   C5A 2971   2.456   2.370   7.965  0.3667 -0.2761 -0.0227
  186loPI   C6A 2972   2.349   2.045   7.593  0.0175  0.0704  0.0530
  186loPI   C1B 2973   2.250   1.923   9.362  0.0387  0.0611 -0.1312
  186loPI   C2B 2974   2.237   1.958   8.977 -0.0152  0.1275 -0.1422
  186loPI   C3B 2975   2.250   1.943   8.450 -0.2898  0.0151 -0.0263
  186loPI   C4B 2976   2.217   1.842   7.990  0.1523  0.1388  0.0235
  187loPI    C1 2977  18.082   9.342  10.564  0.1405 -0.0240  0.0045
  187loPI    C2 2978  18.318   9.282  10.880  0.2543  0.2561 -0.0241
  187loPI    C3 2979  17.946   9.418  10.932  0.1921  0.0778  0.0030
  187loPI   PO4 2980  18.185   9.501  10.398 -0.1224 -0.0580  0.1009
  187loPI   GL1 2981  17.942   9.607  10.048 -0.0616 -0.3353  0.0382
  187loPI   GL2 2982  18.100   9.896  10.102 -0.0888 -0.1142  0.2789
  187loPI   C1A 2983  17.928   9.749   9.603 -0.4390 -0.0057  0.0350
  187loPI   C2A 2984  17.890   9.743   9.145 -0.0422  0.0346  0.0577
  187loPI   C3A 2985  17.916   9.721   8.658 -0.3074  0.0510 -0.0859
  187loPI   C4A 2986  18.194   9.968   8.504 -0.4141 -0.1324  0.1338
  187loPI   C5A 2987  18.432   9.869   8.208  0.0754 -0.0382 -0.2945
  187loPI   C6A 2988  18.846   9.685   8.030 -0.2102 -0.0028 -0.1997
  187loPI   C1B 2989  18.312  10.127   9.814 -0.2784  0.4192  0.2783
  187loPI   C2B 2990  18.228  10.123   9.402 -0.0174 -0.0611  0.1054
  187loPI   C3B 2991  18.092  10.220   9.039 -0.3936 -0.0704 -0.0936
  187loPI   C4B 2992  18.039  10.497   8.605 -0.0618  0.2181  0.0754
  188loPI    C1 2993   8.739   2.237  10.937 -0.1618  0.0343  0.2443
  188loPI    C2 2994   8.696   2.566  11.160  0.2150  0.3247 -0.0969
  188loPI    C3 2995   8.968   2.291  11.260 -0.0703  0.1304  0.1638
  188loPI   PO4 2996   8.574   2.370  10.626  0.2812 -0.0244 -0.1903
  188loPI   GL1 2997   8.530   2.483  10.157  0.1754  0.0929 -0.1943
  188loPI   GL2 2998   8.784   2.551   9.965 -0.3588  0.2246 -0.0425
  188loPI   C1A 2999   8.317   2.549   9.752 -0.1792  0.1393 -0.0632
  188loPI   C2A 3000   8.221   2.714   9.361 -0.1215  0.2817  0.1282
  188loPI   C3A 3001   8.259   2.700   8.953  0.3620  0.0333 -0.0122
  188loPI   C4A 3002   8.314   2.750   8.568  0.0231  0.3597 -0.2025
  188loPI   C5A 3003   8.538   2.578   8.247  0.3103 -0.0903 -0.1180
  188loPI   C6A 3004   8.593   2.658   7.839  0.0362  0.0203 -0.1258
  188loPI   C1B 3005   8.782   2.678   9.464 -0.1107 -0.0991  0.1736
  188loPI   C2B 3006   8.885   2.626   9.017  0.0720  0.2036  0.1295
  188loPI   C3B 3007   8.899   2.728   8.602  0.0757  0.5033  0.1558
  188loPI   C4B 3008   9.034   2.595   8.155  0.1223  0.1477 -0.1982
  189loPI    C1 3009  13.769   5.518  10.772  0.0395  0.0609  0.1620
  189loPI    C2 3010  13.787   5.271  11.086  0.0274  0.0236  0.1334
  189loPI    C3 3011  13.777   5.667  11.143 -0.1848  0.0119  0.1879
  189loPI   PO4 3012  13.886   5.384  10.586 -0.1082 -0.1910  0.2101
  189loPI   GL1 3013  13.986   5.584  10.243 -0.1409  0.2036 -0.1727
  189loPI   GL2 3014  13.659   5.660  10.246  0.0826 -0.0341  0.4468
  189loPI   C1A 3015  13.957   5.487   9.833 -0.0812  0.0080 -0.2045
  189loPI   C2A 3016  13.971   5.446   9.421 -0.1421  0.2521  0.0032
  189loPI   C3A 3017  14.069   5.297   9.053 -0.3070  0.0115  0.1878
  189loPI   C4A 3018  14.118   5.468   8.640  0.2037 -0.3672 -0.0604
  189loPI   C5A 3019  13.837   5.626   8.204  0.1288  0.2677  0.0421
  189loPI   C6A 3020  13.622   6.012   8.002  0.2020  0.0438  0.0256
  189loPI   C1B 3021  13.465   5.531   9.865 -0.0494 -0.0718  0.1127
  189loPI   C2B 3022  13.456   5.490   9.441  0.3561 -0.1164 -0.2706
  189loPI   C3B 3023  13.544   5.386   8.970 -0.0995  0.0070 -0.1579
  189loPI   C4B 3024  13.440   5.587   8.575 -0.1371 -0.0805  0.1303
  190loPI    C1 3025  15.665   4.524  10.675  0.0710  0.3279  0.0530
  190loPI    C2 3026  15.393   4.544  10.967  0.0196  0.3234  0.0057
  190loPI    C3 3027  15.707   4.299  11.003 -0.1681  0.0642 -0.0922
  190loPI   PO4 3028  15.513   4.617  10.477  0.1700  0.1096 -0.0081
  190loPI   GL1 3029  15.413   4.743  10.214 -0.1916 -0.2994  0.1468
  190loPI   GL2 3030  15.148   4.883  10.062 -0.1218 -0.0181 -0.0753
  190loPI   C1A 3031  15.462   4.523   9.787 -0.0702 -0.0218  0.0571
  190loPI   C2A 3032  15.511   4.379   9.402 -0.0973  0.1371  0.1197
  190loPI   C3A 3033  15.436   4.350   8.966 -0.3038  0.2633  0.2150
  190loPI   C4A 3034  15.661   4.508   8.587  0.0216  0.4136  0.0012
  190loPI   C5A 3035  16.012   4.586   8.373 -0.1558 -0.2336  0.0162
  190loPI   C6A 3036  16.374   4.872   8.302 -0.1381  0.1575 -0.0687
  190loPI   C1B 3037  15.270   4.944   9.672 -0.1911  0.0162 -0.1683
  190loPI   C2B 3038  15.239   4.789   9.284  0.0894  0.1235 -0.1519
  190loPI   C3B 3039  15.356   4.802   8.823  0.1049 -0.0169  0.1249
  190loPI   C4B 3040  15.336   4.828   8.336  0.1225  0.1513 -0.1602
  191loPI    C1 3041  18.145   3.202  10.589 -0.0932  0.2135  0.0958
  191loPI    C2 3042  18.335   3.028  10.895 -0.0981  0.2357  0.1114
  191loPI    C3 3043  17.952   2.939  10.821  0.0103 -0.0560 -0.1180
  191loPI   PO4 3044  18.264   3.155  10.271 -0.1554 -0.3895 -0.4613
  191loPI   GL1 3045  18.214   3.065   9.857 -0.0476  0.0521  0.1602
  191loPI   GL2 3046  18.120   3.440   9.798  0.0537 -0.0238  0.1588
  191loPI   C1A 3047  18.264   2.943   9.403  0.0380  0.1654  0.1038
  191loPI   C2A 3048  18.407   2.967   8.942  0.1123 -0.0388  0.0046
  191loPI   C3A 3049  18.539   2.937   8.515  0.0623  0.2354  0.0558
  191loPI   C4A 3050  18.512   3.083   8.109  0.1229 -0.2134 -0.1301
  191loPI   C5A 3051  18.448   3.211   7.727  0.0689  0.1577  0.2118
  191loPI   C6A 3052  18.359   2.968   7.351  0.0508  0.0634 -0.0390
  191loPI   C1B 3053  17.697   3.676   9.603 -0.3245 -0.1904 -0.2024
  191loPI   C2B 3054  17.692   3.763   9.115  0.2245  0.0221 -0.0714
  191loPI   C3B 3055  17.327   3.689   8.928 -0.2936 -0.0403 -0.2263
  191loPI   C4B 3056  17.153   3.512   8.598  0.1577  0.1606  0.0126
  192loPI    C1 3057   6.803  17.519  10.250  0.3926 -0.0591 -0.1539
  192loPI    C2 3058   7.075  17.799  10.335  0.2491  0.1275 -0.3005
  192loPI    C3 3059   6.689  17.864  10.417  0.2293 -0.0766 -0.2267
  192loPI   PO4 3060   6.853  17.388  10.091 -0.1392 -0.1085 -0.1193
  192loPI   GL1 3061   6.745  17.225   9.640 -0.0352  0.0279  0.0954
  192loPI   GL2 3062   6.468  17.089   9.623 -0.7010 -0.0650  0.1105
  192loPI   C1A 3063   7.062  17.176   9.383  0.0984  0.0540 -0.1713
  192loPI   C2A 3064   7.179  16.996   8.918  0.0885 -0.2203  0.0241
  192loPI   C3A 3065   7.347  17.069   8.487  0.1290 -0.0425  0.0225
  192loPI   C4A 3066   7.408  17.207   8.071 -0.2502  0.1770  0.0598
  192loPI   C5A 3067   7.618  17.383   7.655  0.1343 -0.1088  0.1992
  192loPI   C6A 3068   7.602  17.632   7.374 -0.0857  0.2761 -0.1382
  192loPI   C1B 3069   6.565  17.247   9.200 -0.0078 -0.0585 -0.0656
  192loPI   C2B 3070   6.714  17.311   8.730  0.2231 -0.0324  0.0157
  192loPI   C3B 3071   6.551  17.509   8.378 -0.0872 -0.1841  0.1371
  192loPI   C4B 3072   6.415  17.336   7.966 -0.0468 -0.1387  0.2298
  193loPI    C1 3073  13.001   9.990  11.006  0.1566 -0.0474  0.0519
  193loPI    C2 3074  13.007   9.613  11.139 -0.0047 -0.0970 -0.0785
  193loPI    C3 3075  12.738   9.871  11.283  0.0376 -0.0600 -0.0657
  193loPI   PO4 3076  13.281  10.049  10.938  0.0288  0.3882  0.1963
  193loPI   GL1 3077  13.371  10.357  10.608 -0.1701 -0.1137  0.3728
  193loPI   GL2 3078  13.305  10.158  10.326 -0.0340  0.0226 -0.0915
  193loPI   C1A 3079  13.505  10.648  10.199 -0.2309  0.1962  0.1172
  193loPI   C2A 3080  13.535  10.537   9.801  0.1820  0.2795 -0.1518
  193loPI   C3A 3081  13.678  10.497   9.486 -0.1305 -0.0053  0.3340
  193loPI   C4A 3082  14.015  10.552   9.168  0.2014 -0.0729 -0.1457
  193loPI   C5A 3083  14.387  10.406   8.922 -0.0608  0.2822  0.0995
  193loPI   C6A 3084  14.765  10.458   8.798 -0.3445 -0.0269 -0.1400
  193loPI   C1B 3085  13.321  10.053   9.892 -0.1946  0.0915 -0.1550
  193loPI   C2B 3086  13.393  10.104   9.434 -0.0818  0.0735 -0.2234
  193loPI   C3B 3087  13.304  10.058   9.048 -0.1116  0.3237 -0.1396
  193loPI   C4B 3088  13.262   9.999   8.540 -0.2030 -0.5105 -0.2083
  194loPI    C1 3089  16.800  14.069  10.630 -0.3123 -0.3857 -0.0128
  194loPI    C2 3090  16.938  13.728  10.473  0.4103 -0.1535  0.0810
  194loPI    C3 3091  16.964  13.792  10.867  0.2734  0.0095  0.0646
  194loPI   PO4 3092  17.001  14.230  10.513 -0.0983  0.1051 -0.2575
  194loPI   GL1 3093  17.252  14.288  10.125  0.0479  0.0293  0.1267
  194loPI   GL2 3094  17.529  14.310  10.174  0.0414 -0.1020  0.0977
  194loPI   C1A 3095  17.086  14.232   9.774  0.4059 -0.2120 -0.0497
  194loPI   C2A 3096  17.158  14.213   9.359  0.0319 -0.0896 -0.0659
  194loPI   C3A 3097  17.161  14.194   8.938  0.3146 -0.1600  0.1066
  194loPI   C4A 3098  17.083  14.035   8.476  0.0617  0.0583 -0.1113
  194loPI   C5A 3099  16.875  13.815   8.066 -0.1131  0.0044 -0.1300
  194loPI   C6A 3100  16.371  13.826   8.008 -0.0402  0.5162 -0.1382
  194loPI   C1B 3101  17.580  14.079   9.801  0.0350  0.1805  0.2890
  194loPI   C2B 3102  17.619  14.017   9.399 -0.0435 -0.3306  0.1282
  194loPI   C3B 3103  17.633  13.994   9.039  0.0205  0.0247  0.1279
  194loPI   C4B 3104  17.606  14.032   8.648  0.4085 -0.3208  0.3290
  195loPI    C1 3105  15.690  11.169  10.472  0.4991 -0.1100 -0.0268
  195loPI    C2 3106  15.790  11.221  10.855  0.0454  0.2182  0.0547
  195loPI    C3 3107  15.405  11.224  10.747  0.1492 -0.2203 -0.3579
  195loPI   PO4 3108  15.791  10.958  10.406  0.0247  0.0302  0.1548
  195loPI   GL1 3109  15.810  10.890   9.912  0.2711 -0.1242  0.2550
  195loPI   GL2 3110  15.987  10.591  10.004 -0.0678  0.3285 -0.2174
  195loPI   C1A 3111  15.464  11.033   9.611 -0.0537  0.0415 -0.0384
  195loPI   C2A 3112  15.349  10.718   9.275 -0.1755 -0.0479 -0.2869
  195loPI   C3A 3113  15.246  10.412   8.928 -0.1715 -0.2081  0.2548
  195loPI   C4A 3114  15.217  10.468   8.493 -0.2964  0.1110  0.1694
  195loPI   C5A 3115  14.878  10.365   8.278 -0.2168 -0.0795  0.0444
  195loPI   C6A 3116  14.664  10.470   7.898  0.3899 -0.0625 -0.0502
  195loPI   C1B 3117  16.103  10.397   9.704 -0.1143 -0.1405 -0.0984
  195loPI   C2B 3118  16.222  10.253   9.326  0.0326 -0.1678 -0.2133
  195loPI   C3B 3119  16.126  10.175   8.944  0.3472 -0.2695 -0.1407
  195loPI   C4B 3120  16.206  10.140   8.489  0.1146  0.0047 -0.1512
  196loPI    C1 3121   0.141   2.622  10.336 -0.1243  0.1128 -0.0864
  196loPI    C2 3122  -0.129   2.801  10.101  0.0515  0.2441 -0.1903
  196loPI    C3 3123   0.247   2.939  10.116  0.1662 -0.0605 -0.2025
  196loPI   PO4 3124   0.152   2.396  10.267 -0.0677 -0.1347  0.2108
  196loPI   GL1 3125   0.043   2.386   9.899 -0.1005 -0.3270  0.2858
  196loPI   GL2 3126   0.322   2.445   9.827  0.2937 -0.2078  0.0398
  196loPI   C1A 3127  -0.325   2.597   9.700 -0.3293 -0.1256  0.1458
  196loPI   C2A 3128  -0.438   2.485   9.307  0.0938 -0.2916  0.2790
  196loPI   C3A 3129  -0.660   2.322   8.942  0.0120  0.1080  0.3798
  196loPI   C4A 3130  -0.786   2.184   8.526 -0.0303  0.2081  0.0123
  196loPI   C5A 3131  -0.856   2.416   8.065  0.2042 -0.0542 -0.0880
  196loPI   C6A 3132  -1.229   2.693   7.907  0.1302 -0.0587  0.0538
  196loPI   C1B 3133   0.157   2.840   9.678  0.0058 -0.1245  0.2771
  196loPI   C2B 3134   0.104   2.568   9.309  0.1419 -0.0480  0.1523
  196loPI   C3B 3135  -0.211   2.506   8.829  0.3240  0.0549 -0.0314
  196loPI   C4B 3136  -0.253   2.277   8.548 -0.3390  0.0860 -0.2709
  197loPI    C1 3137   7.196  12.135  10.611  0.1424  0.1517 -0.0455
  197loPI    C2 3138   6.983  12.424  10.787  0.1405  0.0531  0.1167
  197loPI    C3 3139   7.271  12.237  10.991  0.3060  0.1067 -0.0652
  197loPI   PO4 3140   7.272  12.236  10.362  0.0715 -0.2102  0.1321
  197loPI   GL1 3141   7.200  12.143   9.970 -0.3727  0.0616  0.0536
  197loPI   GL2 3142   6.959  12.518   9.899  0.2288 -0.3015  0.2757
  197loPI   C1A 3143   7.452  12.219   9.662 -0.1201 -0.1462 -0.1227
  197loPI   C2A 3144   7.469  12.332   9.263 -0.1613  0.0811 -0.1220
  197loPI   C3A 3145   7.428  12.337   8.796 -0.2652  0.0653 -0.1176
  197loPI   C4A 3146   7.160  12.567   8.499 -0.0314 -0.0125  0.0702
  197loPI   C5A 3147   7.077  12.465   8.087 -0.0575  0.0861 -0.1961
  197loPI   C6A 3148   7.074  12.335   7.682  0.2437  0.2581  0.0254
  197loPI   C1B 3149   6.999  12.374   9.480 -0.3043 -0.1893 -0.2114
  197loPI   C2B 3150   7.159  11.988   9.196 -0.1302 -0.1691 -0.1171
  197loPI   C3B 3151   7.278  11.554   9.005 -0.0176 -0.1205  0.3677
  197loPI   C4B 3152   7.174  11.289   8.747 -0.1820  0.2677 -0.0558
  198loPI    C1 3153   8.874  11.649  10.692 -0.1387  0.2050  0.0493
  198loPI    C2 3154   8.867  11.316  10.913  0.0959  0.0339 -0.1941
  198loPI    C3 3155   8.546  11.553  10.900 -0.0181 -0.0983  0.1056
  198loPI   PO4 3156   8.955  11.563  10.504 -0.0695  0.2135  0.0434
  198loPI   GL1 3157   8.780  11.363  10.074  0.0872  0.0422 -0.2256
  198loPI   GL2 3158   8.830  11.655  10.045  0.0421  0.0724 -0.4204
  198loPI   C1A 3159   8.885  11.193   9.635 -0.1952  0.1684 -0.1534
  198loPI   C2A 3160   9.012  11.313   9.243  0.2276  0.0254  0.1379
  198loPI   C3A 3161   8.883  11.440   8.742  0.0720 -0.1651  0.1334
  198loPI   C4A 3162   8.861  11.404   8.251  0.0481 -0.1341  0.2041
  198loPI   C5A 3163   8.672  11.566   7.994 -0.1593  0.0137  0.1057
  198loPI   C6A 3164   8.356  11.860   8.011  0.1633 -0.1697  0.0222
  198loPI   C1B 3165   8.863  11.715   9.672 -0.0420  0.0994  0.0390
  198loPI   C2B 3166   8.733  11.701   9.228 -0.0320  0.1171  0.1173
  198loPI   C3B 3167   8.722  11.987   8.795 -0.2963  0.1083 -0.1219
  198loPI   C4B 3168   8.738  11.888   8.338 -0.1614 -0.1964  0.1733
  199loPI    C1 3169   5.258   1.829  10.226  0.0783 -0.1167 -0.1496
  199loPI    C2 3170   5.312   1.562  10.519  0.0220 -0.1546 -0.1734
  199loPI    C3 3171   5.473   1.928  10.549  0.1634 -0.2158 -0.1755
  199loPI   PO4 3172   5.212   1.706  10.012 -0.1440 -0.1210 -0.0590
  199loPI   GL1 3173   5.134   1.820   9.653  0.0831 -0.1148 -0.0716
  199loPI   GL2 3174   5.399   2.101   9.790 -0.1544  0.0737  0.2109
  199loPI   C1A 3175   4.988   1.971   9.212 -0.2333 -0.2258  0.1207
  199loPI   C2A 3176   5.051   1.884   8.734 -0.2412 -0.0296 -0.0277
  199loPI   C3A 3177   5.051   1.623   8.364 -0.1954 -0.0702 -0.1039
  199loPI   C4A 3178   4.921   1.571   8.025  0.1716  0.3246 -0.0031
  199loPI   C5A 3179   4.850   1.702   7.616  0.1475 -0.0591  0.0835
  199loPI   C6A 3180   4.911   1.959   7.200 -0.0220 -0.1143 -0.1086
  199loPI   C1B 3181   5.422   2.120   9.417  0.2387 -0.1276 -0.2197
  199loPI   C2B 3182   5.509   2.141   8.968 -0.2011 -0.1278  0.2530
  199loPI   C3B 3183   5.455   2.049   8.480  0.4074 -0.1058  0.1403
  199loPI   C4B 3184   5.456   2.219   8.086 -0.2729  0.2685 -0.0627
  200loPI    C1 3185  11.128  18.196  10.536  0.3517 -0.1030  0.1227
  200loPI    C2 3186  10.849  18.209  10.822  0.0525  0.2423 -0.1754
  200loPI    C3 3187  11.202  18.389  10.878  0.0605  0.1614  0.0411
  200loPI   PO4 3188  10.975  18.238  10.347 -0.0697 -0.0428  0.3486
  200loPI   GL1 3189  11.085  18.139   9.934  0.1027  0.0629  0.0633
  200loPI   GL2 3190  11.298  17.901   9.828  0.0563  0.1599  0.0903
  200loPI   C1A 3191  10.994  17.909   9.456 -0.2655  0.1812 -0.4149
  200loPI   C2A 3192  10.676  18.082   9.203 -0.0347  0.2238  0.0008
  200loPI   C3A 3193  10.710  18.312   8.780 -0.1883 -0.2336  0.2070
  200loPI   C4A 3194  10.760  18.217   8.324 -0.0315 -0.1608 -0.0960
  200loPI   C5A 3195  10.867  18.231   7.935 -0.1295  0.4024  0.3386
  200loPI   C6A 3196  11.229  18.154   7.678  0.2161  0.3920 -0.0481
  200loPI   C1B 3197  11.542  17.727   9.463  0.0601  0.2424 -0.4552
  200loPI   C2B 3198  11.709  17.304   9.389  0.2101  0.0955 -0.1020
  200loPI   C3B 3199  11.592  16.851   9.452  0.0255  0.0157  0.3888
  200loPI   C4B 3200  11.551  16.397   9.536  0.3379 -0.2417 -0.1603
  201loPI    C1 3201  11.969  12.751  10.664  0.1668  0.0994 -0.0430
  201loPI    C2 3202  12.286  12.650  10.886 -0.1646 -0.0414  0.3798
  201loPI    C3 3203  12.125  13.014  10.921  0.1017  0.1222 -0.0266
  201loPI   PO4 3204  12.074  12.707  10.407 -0.1048 -0.0067 -0.1736
  201loPI   GL1 3205  12.146  12.833   9.974 -0.1132  0.4876 -0.2055
  201loPI   GL2 3206  12.028  13.124   9.852 -0.0783  0.0583  0.1896
  201loPI   C1A 3207  12.270  12.543   9.632 -0.1548  0.0724  0.1848
  201loPI   C2A 3208  12.008  12.236   9.507  0.1859 -0.0139  0.1393
  201loPI   C3A 3209  12.093  11.828   9.351  0.1492 -0.1164  0.1178
  201loPI   C4A 3210  11.987  11.420   9.251 -0.2611 -0.0473 -0.0836
  201loPI   C5A 3211  12.092  11.306   8.877 -0.0658 -0.2487 -0.1123
  201loPI   C6A 3212  12.327  11.514   8.470  0.0922  0.0599 -0.1207
  201loPI   C1B 3213  12.145  12.981   9.453  0.2174 -0.1212  0.0369
  201loPI   C2B 3214  12.369  13.119   9.085  0.0891  0.4564  0.2077
  201loPI   C3B 3215  12.430  13.093   8.723 -0.1974  0.2934 -0.0406
  201loPI   C4B 3216  12.624  13.045   8.415  0.3259  0.0503  0.3320
  202loPI    C1 3217   9.707   4.917  10.946 -0.1579 -0.1058 -0.1034
  202loPI    C2 3218   9.501   5.067  11.254 -0.2717 -0.0820 -0.1908
  202loPI    C3 3219   9.405   4.708  11.105 -0.0144 -0.2346  0.0034
  202loPI   PO4 3220   9.722   5.056  10.816  0.1265 -0.2875 -0.2013
  202loPI   GL1 3221   9.589   5.024  10.331  0.0855  0.3864 -0.2398
  202loPI   GL2 3222   9.767   4.787  10.188  0.1718 -0.0177 -0.0731
  202loPI   C1A 3223   9.555   5.208   9.915 -0.3908  0.0998 -0.4099
  202loPI   C2A 3224   9.485   5.284   9.498 -0.1880 -0.0374 -0.1978
  202loPI   C3A 3225   9.540   5.335   8.971  0.1727 -0.2745  0.0244
  202loPI   C4A 3226   9.622   5.276   8.570  0.0249  0.1432 -0.3668
  202loPI   C5A 3227   9.667   5.311   8.140 -0.1474 -0.2128  0.0954
  202loPI   C6A 3228   9.822   5.414   7.731  0.1029 -0.0739  0.1417
  202loPI   C1B 3229   9.778   4.835   9.656 -0.2749  0.1996 -0.1646
  202loPI   C2B 3230   9.831   4.870   9.215  0.2123  0.0430 -0.0941
  202loPI   C3B 3231   9.842   4.867   8.738  0.0944  0.2446 -0.0877
  202loPI   C4B 3232   9.942   4.914   8.309  0.0289  0.3304 -0.0821
  203loPI    C1 3233  18.147   6.960  10.553 -0.0216 -0.0761  0.0939
  203loPI    C2 3234  17.830   6.748  10.431 -0.2058  0.1868  0.1074
  203loPI    C3 3235  17.868   6.848  10.817 -0.1685  0.2575  0.0856
  203loPI   PO4 3236  18.237   7.180  10.389  0.1896  0.0993  0.0617
  203loPI   GL1 3237  18.076   7.247  10.103 -0.2776  0.1593 -0.2286
  203loPI   GL2 3238  17.906   7.445  10.136  0.0614 -0.2294 -0.2007
  203loPI   C1A 3239  18.130   7.286   9.669 -0.1761 -0.2603  0.0322
  203loPI   C2A 3240  18.082   7.336   9.251 -0.1187  0.1768  0.0336
  203loPI   C3A 3241  18.067   7.415   8.810 -0.1960  0.0625  0.0844
  203loPI   C4A 3242  18.155   7.470   8.372 -0.0674  0.1366 -0.1004
  203loPI   C5A 3243  18.315   7.381   7.923  0.1999 -0.2966 -0.2090
  203loPI   C6A 3244  18.656   7.299   7.603 -0.0998 -0.0117  0.1152
  203loPI   C1B 3245  17.644   7.412   9.735  0.0023  0.2193 -0.0097
  203loPI   C2B 3246  17.548   7.460   9.255  0.0598  0.1897 -0.4024
  203loPI   C3B 3247  17.505   7.457   8.897 -0.2104 -0.0146  0.4687
  203loPI   C4B 3248  17.622   7.387   8.418 -0.3171 -0.0518 -0.2038
  204loPI    C1 3249  17.600  18.207  10.448  0.1543  0.0109  0.2396
  204loPI    C2 3250  17.533  18.464  10.747 -0.0087  0.0126  0.2023
  204loPI    C3 3251  17.317  18.487  10.411  0.1447 -0.0169  0.1008
  204loPI   PO4 3252  17.808  18.090  10.404 -0.1597 -0.0685 -0.0014
  204loPI   GL1 3253  17.872  18.017  10.037  0.0009  0.1946  0.0532
  204loPI   GL2 3254  17.676  18.435   9.950 -0.1810  0.0987 -0.1417
  204loPI   C1A 3255  17.938  17.942   9.660  0.0319  0.0827  0.0648
  204loPI   C2A 3256  17.949  17.722   9.308 -0.0058 -0.2287 -0.1438
  204loPI   C3A 3257  17.938  17.598   8.904 -0.1503  0.1605 -0.2840
  204loPI   C4A 3258  17.922  17.585   8.595 -0.1104 -0.1264 -0.0148
  204loPI   C5A 3259  17.784  17.653   8.220  0.1065  0.0084 -0.2599
  204loPI   C6A 3260  17.450  17.289   7.917 -0.1496 -0.0673  0.0824
  204loPI   C1B 3261  17.672  18.341   9.499  0.1576  0.4485 -0.1067
  204loPI   C2B 3262  17.796  18.168   9.032 -0.0128 -0.0376  0.3059
  204loPI   C3B 3263  17.816  18.044   8.602 -0.1281 -0.2882 -0.0181
  204loPI   C4B 3264  17.656  18.193   8.308  0.0448 -0.2482  0.1126
  205loPI    C1 3265  14.785  11.861  10.851 -0.1338 -0.2304 -0.3103
  205loPI    C2 3266  15.097  12.008  10.648  0.0366 -0.0510  0.0702
  205loPI    C3 3267  15.083  12.042  11.046 -0.3643 -0.2596  0.0802
  205loPI   PO4 3268  14.627  11.878  10.604  0.0743  0.0421 -0.4846
  205loPI   GL1 3269  14.716  12.067  10.246 -0.5818 -0.0260  0.3749
  205loPI   GL2 3270  14.433  12.332  10.118  0.2272  0.0571 -0.0798
  205loPI   C1A 3271  14.797  11.872   9.799 -0.1919 -0.2115 -0.0657
  205loPI   C2A 3272  14.827  11.828   9.400  0.1716  0.1416  0.2013
  205loPI   C3A 3273  14.912  11.591   8.927 -0.1900 -0.2228 -0.0459
  205loPI   C4A 3274  15.092  11.432   8.567  0.0654  0.0352 -0.1339
  205loPI   C5A 3275  15.490  11.387   8.411  0.0650 -0.1262  0.1547
  205loPI   C6A 3276  15.788  11.402   8.103 -0.1784  0.1376  0.0580
  205loPI   C1B 3277  14.388  12.240   9.777  0.0281 -0.2814 -0.3685
  205loPI   C2B 3278  14.671  12.298   9.422  0.0740 -0.1127  0.0555
  205loPI   C3B 3279  14.565  12.363   9.053 -0.2650  0.2321  0.1574
  205loPI   C4B 3280  14.737  12.317   8.668  0.1598 -0.0726 -0.0382
  206loPI    C1 3281   6.508   3.663  10.346 -0.1397  0.1022 -0.0831
  206loPI    C2 3282   6.699   4.014  10.360  0.0378  0.0055 -0.0581
  206loPI    C3 3283   6.302   4.001  10.406  0.0309  0.2020 -0.0537
  206loPI   PO4 3284   6.614   3.546  10.131  0.2015 -0.1934 -0.0458
  206loPI   GL1 3285   6.873   3.780   9.921  0.1080  0.3477 -0.1467
  206loPI   GL2 3286   7.001   3.405   9.785 -0.2388  0.0158  0.3178
  206loPI   C1A 3287   6.804   3.775   9.505 -0.1365 -0.1781 -0.1146
  206loPI   C2A 3288   6.836   3.731   9.091 -0.0079  0.2273  0.0575
  206loPI   C3A 3289   6.656   3.867   8.697 -0.0461 -0.2548 -0.1128
  206loPI   C4A 3290   6.701   4.026   8.334  0.2949 -0.0404 -0.1598
  206loPI   C5A 3291   6.476   4.077   7.929 -0.0690 -0.0443  0.0145
  206loPI   C6A 3292   6.475   4.208   7.551  0.0079 -0.0253 -0.1288
  206loPI   C1B 3293   7.017   3.338   9.327 -0.3920  0.0010  0.0155
  206loPI   C2B 3294   7.059   3.251   8.841 -0.0089  0.0245 -0.2588
  206loPI   C3B 3295   7.049   3.166   8.437 -0.1127 -0.0779 -0.1382
  206loPI   C4B 3296   6.767   3.229   8.061 -0.0659  0.0475  0.0517
  207loPI    C1 3297  14.002   9.641  11.012 -0.0441  0.0637 -0.0282
  207loPI    C2 3298  14.229   9.327  11.111 -0.1923 -0.0554 -0.0629
  207loPI    C3 3299  14.198   9.637  11.361 -0.2304 -0.1709  0.0767
  207loPI   PO4 3300  13.956   9.580  10.629  0.2292  0.0073  0.2978
  207loPI   GL1 3301  14.017   9.586  10.177 -0.2894  0.0634 -0.2593
  207loPI   GL2 3302  13.697   9.748  10.128  0.1096  0.0299 -0.0503
  207loPI   C1A 3303  14.037   9.565   9.766  0.2590 -0.0772  0.0567
  207loPI   C2A 3304  14.243   9.848   9.484 -0.0647  0.2161 -0.1639
  207loPI   C3A 3305  14.397   9.918   9.075  0.1751  0.1345 -0.2693
  207loPI   C4A 3306  14.023  10.086   8.858 -0.4163 -0.1536 -0.2485
  207loPI   C5A 3307  13.796  10.003   8.453 -0.0935 -0.5894 -0.3285
  207loPI   C6A 3308  13.881   9.843   8.097 -0.2639  0.1570 -0.0046
  207loPI   C1B 3309  13.530   9.573   9.719  0.0380  0.0762  0.1144
  207loPI   C2B 3310  13.808   9.256   9.441  0.2962 -0.2053 -0.2620
  207loPI   C3B 3311  13.766   9.070   8.953  0.0764 -0.1594 -0.0224
  207loPI   C4B 3312  13.889   9.024   8.524  0.0183  0.1346 -0.2109
  208loPI    C1 3313  16.778   1.859  10.523 -0.0876  0.0583 -0.1627
  208loPI    C2 3314  16.721   2.253  10.489 -0.1653  0.0524 -0.1028
  208loPI    C3 3315  16.810   2.093  10.845 -0.0355  0.0280 -0.1456
  208loPI   PO4 3316  17.044   1.862  10.378 -0.1729 -0.4370 -0.1853
  208loPI   GL1 3317  17.016   1.762  10.069  0.0101  0.3302  0.0451
  208loPI   GL2 3318  17.295   1.951   9.977 -0.0390 -0.1522 -0.0355
  208loPI   C1A 3319  16.955   1.925   9.598  0.2783  0.0462  0.3119
  208loPI   C2A 3320  16.916   1.679   9.274  0.0138  0.1544  0.0063
  208loPI   C3A 3321  16.791   1.410   8.952 -0.0350  0.1047 -0.1477
  208loPI   C4A 3322  16.975   1.131   8.597  0.1625  0.0922  0.1838
  208loPI   C5A 3323  17.108   0.762   8.271  0.0964 -0.0152  0.1850
  208loPI   C6A 3324  17.360   0.926   7.935 -0.0616 -0.0378 -0.2080
  208loPI   C1B 3325  17.468   1.745   9.566 -0.2628  0.0542  0.4252
  208loPI   C2B 3326  17.716   1.768   9.162 -0.2284  0.1574  0.1543
  208loPI   C3B 3327  17.633   1.839   8.748 -0.0295  0.1771 -0.0321
  208loPI   C4B 3328  17.276   1.898   8.470  0.0911 -0.0636 -0.3770
  209loPI    C1 3329   1.957  17.876  10.768  0.0383 -0.0821 -0.0612
  209loPI    C2 3330   1.564  17.804  10.765 -0.0218  0.2335 -0.1047
  209loPI    C3 3331   1.703  18.147  10.915  0.2648 -0.0154  0.2151
  209loPI   PO4 3332   2.003  17.862  10.506 -0.0238 -0.2589 -0.0185
  209loPI   GL1 3333   2.084  18.104  10.130  0.0304 -0.1319  0.1485
  209loPI   GL2 3334   2.179  17.830   9.976 -0.2006 -0.4328 -0.2589
  209loPI   C1A 3335   1.903  18.046   9.586  0.0098 -0.1538 -0.1157
  209loPI   C2A 3336   1.827  18.105   9.065  0.2530 -0.0603 -0.0687
  209loPI   C3A 3337   1.805  18.235   8.595  0.0549  0.0943  0.1303
  209loPI   C4A 3338   1.988  18.462   8.220 -0.1582 -0.1015  0.3001
  209loPI   C5A 3339   1.841  18.352   7.793  0.1233  0.1831  0.1835
  209loPI   C6A 3340   2.081  18.248   7.469 -0.0305 -0.1035 -0.1361
  209loPI   C1B 3341   2.019  17.590   9.625 -0.1228  0.3689 -0.2803
  209loPI   C2B 3342   1.925  17.660   9.126 -0.0298 -0.2720 -0.0772
  209loPI   C3B 3343   1.865  17.628   8.623 -0.0726 -0.2169 -0.0853
  209loPI   C4B 3344   1.937  17.454   8.140  0.1386  0.0351 -0.2640
  210loPI    C1 3345   3.884   1.847  10.360  0.0679  0.2914 -0.2143
  210loPI    C2 3346   3.768   1.905  10.739  0.1112  0.1361 -0.1763
  210loPI    C3 3347   4.036   1.621  10.653 -0.2434 -0.1465 -0.3799
  210loPI   PO4 3348   3.923   2.182  10.266 -0.1568 -0.2688  0.2920
  210loPI   GL1 3349   4.020   2.351   9.889 -0.1614  0.2285 -0.0326
  210loPI   GL2 3350   3.795   2.386   9.805  0.1435  0.1408 -0.0834
  210loPI   C1A 3351   4.119   2.141   9.448  0.2631  0.1880  0.1310
  210loPI   C2A 3352   4.113   2.079   9.011  0.0339 -0.0049 -0.1405
  210loPI   C3A 3353   4.155   2.087   8.570  0.0896 -0.2000 -0.0299
  210loPI   C4A 3354   4.269   2.162   8.055 -0.2533  0.0380 -0.1741
  210loPI   C5A 3355   4.092   2.467   7.788 -0.2773 -0.1814  0.2315
  210loPI   C6A 3356   4.133   2.697   7.403 -0.0901 -0.2243 -0.1488
  210loPI   C1B 3357   3.752   2.477   9.438  0.0709  0.0374  0.1402
  210loPI   C2B 3358   3.645   2.353   9.062  0.2706  0.4151  0.0106
  210loPI   C3B 3359   3.759   2.487   8.606 -0.0223  0.1638  0.0572
  210loPI   C4B 3360   3.785   2.450   8.166 -0.3257  0.0973 -0.0986
  211loPI    C1 3361  12.183  17.490  10.493  0.0571  0.1318 -0.0053
  211loPI    C2 3362  11.789  17.556  10.506  0.0348  0.0146 -0.0726
  211loPI    C3 3363  12.006  17.573  10.842 -0.0588 -0.1088 -0.0050
  211loPI   PO4 3364  12.287  17.640  10.283  0.0107  0.1156 -0.0188
  211loPI   GL1 3365  12.505  17.685   9.922 -0.1925 -0.2599  0.0881
  211loPI   GL2 3366  12.844  17.773   9.861 -0.0793  0.1224 -0.1388
  211loPI   C1A 3367  12.398  17.659   9.579 -0.0135  0.0870  0.1222
  211loPI   C2A 3368  12.311  17.614   9.152 -0.5323  0.0688  0.3318
  211loPI   C3A 3369  12.523  17.868   8.790 -0.0167 -0.0288  0.1690
  211loPI   C4A 3370  12.695  18.043   8.463 -0.0661 -0.3180 -0.1081
  211loPI   C5A 3371  12.588  18.107   8.096  0.1909  0.0509  0.0185
  211loPI   C6A 3372  12.514  18.245   7.573 -0.0927 -0.1046  0.0032
  211loPI   C1B 3373  12.908  17.601   9.508  0.2935  0.0614 -0.0811
  211loPI   C2B 3374  13.353  17.679   9.271 -0.1884  0.0330 -0.1867
  211loPI   C3B 3375  13.527  17.874   8.964 -0.0239 -0.1314  0.1015
  211loPI   C4B 3376  13.652  17.912   8.535 -0.0979 -0.2400  0.0996
  212loPI    C1 3377  12.796  17.612  10.392 -0.0297  0.0074  0.0686
  212loPI    C2 3378  12.934  17.609  10.768 -0.2537  0.0115  0.1527
  212loPI    C3 3379  12.893  17.956  10.572 -0.1458  0.0102  0.1268
  212loPI   PO4 3380  12.911  17.432  10.261  0.2094  0.2625 -0.1371
  212loPI   GL1 3381  13.034  17.172   9.868 -0.0691 -0.0136  0.2252
  212loPI   GL2 3382  12.738  17.258   9.813 -0.0202 -0.2082  0.0631
  212loPI   C1A 3383  13.185  17.168   9.386  0.0821 -0.1527  0.0863
  212loPI   C2A 3384  13.285  17.269   8.971  0.1816 -0.0263  0.0683
  212loPI   C3A 3385  13.437  17.194   8.611 -0.2140 -0.1178  0.1710
  212loPI   C4A 3386  13.503  17.058   8.180 -0.0390 -0.0307 -0.1205
  212loPI   C5A 3387  13.609  16.967   7.779 -0.3018 -0.2787  0.0545
  212loPI   C6A 3388  13.786  16.715   7.346 -0.0014  0.1182  0.0818
  212loPI   C1B 3389  12.551  17.198   9.450  0.0469 -0.2161 -0.1950
  212loPI   C2B 3390  12.717  17.159   9.098 -0.1759 -0.1890 -0.1580
  212loPI   C3B 3391  12.617  17.327   8.624  0.0796  0.0578 -0.0771
  212loPI   C4B 3392  12.426  17.581   8.372 -0.2697 -0.0812 -0.2185
  213loPI    C1 3393  17.636  10.561  10.728  0.0101  0.0420 -0.1392
  213loPI    C2 3394  17.354  10.761  10.527 -0.0657  0.0260 -0.0488
  213loPI    C3 3395  17.585  10.952  10.793 -0.1149  0.0016  0.0117
  213loPI   PO4 3396  17.502  10.295  10.668  0.2893 -0.2189 -0.0611
  213loPI   GL1 3397  17.464  10.017  10.401 -0.4333  0.0577 -0.1479
  213loPI   GL2 3398  17.469   9.726  10.302 -0.1089  0.2492 -0.0219
  213loPI   C1A 3399  17.263  10.208  10.088  0.3283 -0.1777 -0.1916
  213loPI   C2A 3400  17.238  10.337   9.734  0.1018 -0.0687  0.1332
  213loPI   C3A 3401  17.149  10.279   9.318 -0.1683  0.1013  0.3515
  213loPI   C4A 3402  17.132  10.247   8.903 -0.0539 -0.1626  0.4659
  213loPI   C5A 3403  17.215  10.353   8.431  0.0557 -0.1586 -0.3490
  213loPI   C6A 3404  17.450  10.175   8.066  0.2207  0.1812 -0.0818
  213loPI   C1B 3405  17.449   9.760   9.890  0.0433  0.0071 -0.0799
  213loPI   C2B 3406  17.275   9.770   9.479  0.2300 -0.0875  0.2595
  213loPI   C3B 3407  17.322   9.719   9.060  0.1294 -0.0492  0.0647
  213loPI   C4B 3408  17.336   9.829   8.700  0.2628  0.0069  0.0369
  214loPI    C1 3409   8.365  10.523  11.008  0.0943 -0.0881  0.0940
  214loPI    C2 3410   8.122  10.671  11.290  0.0167  0.2268 -0.1329
  214loPI    C3 3411   8.509  10.611  11.371 -0.1051 -0.1632  0.1927
  214loPI   PO4 3412   8.287  10.710  10.737 -0.1416 -0.1684  0.1827
  214loPI   GL1 3413   8.305  10.785  10.256  0.1039  0.1879 -0.1588
  214loPI   GL2 3414   8.145  10.625  10.053  0.0203  0.1785  0.1014
  214loPI   C1A 3415   8.572  10.944   9.880 -0.2182  0.1194  0.0532
  214loPI   C2A 3416   8.575  10.845   9.488 -0.5826 -0.2163 -0.2513
  214loPI   C3A 3417   8.529  11.212   9.214  0.2730 -0.1533  0.2197
  214loPI   C4A 3418   8.423  11.456   8.946  0.0613  0.0578 -0.0420
  214loPI   C5A 3419   8.422  11.475   8.575  0.0272  0.1050 -0.1355
  214loPI   C6A 3420   8.180  11.407   8.172 -0.2438  0.4008 -0.1501
  214loPI   C1B 3421   8.272  10.493   9.674 -0.2472 -0.1830  0.1119
  214loPI   C2B 3422   8.307  10.346   9.295 -0.3530  0.0298 -0.1294
  214loPI   C3B 3423   8.411  10.107   8.956  0.0224  0.0520 -0.1690
  214loPI   C4B 3424   8.201  10.339   8.602  0.2803 -0.2088  0.2855
  215loPI    C1 3425   4.030  10.586   9.932  0.0383  0.1015 -0.0466
  215loPI    C2 3426   4.087  10.366   9.603 -0.0384  0.0063  0.0033
  215loPI    C3 3427   4.363  10.368   9.893 -0.0761 -0.0908  0.0401
  215loPI   PO4 3428   3.829  10.531  10.005  0.1802  0.1775 -0.0646
  215loPI   GL1 3429   3.593  10.302   9.693 -0.1454  0.0220 -0.1527
  215loPI   GL2 3430   3.745  10.011   9.798 -0.1126  0.1783 -0.1635
  215loPI   C1A 3431   3.661  10.524   9.356  0.1789  0.1525 -0.1073
  215loPI   C2A 3432   3.953  10.457   9.165 -0.2911  0.2348  0.0512
  215loPI   C3A 3433   3.979  10.604   8.684  0.1238 -0.1689 -0.0416
  215loPI   C4A 3434   3.941  10.463   8.276  0.2003 -0.1071  0.0693
  215loPI   C5A 3435   3.852  10.509   7.913 -0.1302  0.1168 -0.2171
  215loPI   C6A 3436   3.720  10.654   7.524  0.0528  0.1204 -0.2433
  215loPI   C1B 3437   3.477   9.993   9.347  0.3449 -0.1701 -0.2742
  215loPI   C2B 3438   3.368   9.979   8.918 -0.1084 -0.0842  0.1944
  215loPI   C3B 3439   3.064   9.892   8.583 -0.3076 -0.0114 -0.0748
  215loPI   C4B 3440   2.994   9.810   8.239 -0.1495  0.1338  0.1675
  216loPI    C1 3441  18.274  17.876  10.885  0.0601  0.1879  0.0208
  216loPI    C2 3442  18.645  17.815  10.747 -0.0259 -0.1346 -0.0773
  216loPI    C3 3443  18.570  17.785  11.139  0.0392 -0.1312 -0.0644
  216loPI   PO4 3444  18.129  17.719  10.717 -0.1921  0.1346  0.0858
  216loPI   GL1 3445  17.962  17.572  10.279 -0.0835  0.0592  0.0055
  216loPI   GL2 3446  17.690  17.379  10.159  0.2174  0.2062 -0.3665
  216loPI   C1A 3447  18.311  17.603   9.931 -0.0557 -0.0035 -0.0891
  216loPI   C2A 3448  18.453  17.505   9.485  0.2026 -0.0331  0.2446
  216loPI   C3A 3449  18.377  17.515   9.069 -0.1500 -0.0305 -0.0220
  216loPI   C4A 3450  18.390  17.483   8.640 -0.1968  0.0740  0.2226
  216loPI   C5A 3451  18.303  17.474   8.175 -0.1174  0.3920  0.1588
  216loPI   C6A 3452  18.299  17.570   7.746 -0.3472  0.0447  0.0421
  216loPI   C1B 3453  17.644  17.554   9.730 -0.0674  0.2665  0.0306
  216loPI   C2B 3454  17.509  17.475   9.260 -0.2115  0.1385  0.1957
  216loPI   C3B 3455  17.510  17.313   8.844 -0.0640  0.2717 -0.1228
  216loPI   C4B 3456  17.531  17.294   8.429  0.0140  0.2440 -0.2811
  217loPI    C1 3457  13.812  17.459  10.379 -0.2973  0.0005 -0.0961
  217loPI    C2 3458  13.723  17.264  10.716  0.1171 -0.0114  0.0117
  217loPI    C3 3459  14.099  17.383  10.647 -0.0656  0.4637 -0.2020
  217loPI   PO4 3460  13.645  17.335  10.204  0.2547 -0.2563 -0.1162
  217loPI   GL1 3461  13.553  17.184   9.823 -0.2007  0.2343  0.0475
  217loPI   GL2 3462  13.685  17.439   9.636  0.4473  0.0676 -0.1021
  217loPI   C1A 3463  13.694  17.010   9.477  0.1891 -0.0888  0.3058
  217loPI   C2A 3464  13.675  16.999   8.979 -0.3074  0.1387 -0.0143
  217loPI   C3A 3465  13.883  16.955   8.617 -0.2039  0.0203 -0.1194
  217loPI   C4A 3466  13.986  16.794   8.146  0.1332 -0.0501 -0.0401
  217loPI   C5A 3467  14.025  16.662   7.814 -0.1398 -0.0585  0.0258
  217loPI   C6A 3468  13.515  16.470   7.755  0.0059  0.0577 -0.1472
  217loPI   C1B 3469  13.782  17.444   9.221 -0.2479 -0.0699 -0.0526
  217loPI   C2B 3470  13.819  17.456   8.746  0.1064 -0.0566 -0.1096
  217loPI   C3B 3471  13.853  17.389   8.230  0.0686 -0.2364  0.1875
  217loPI   C4B 3472  13.912  17.681   7.867  0.0553  0.0305 -0.0541
  218loPI    C1 3473  12.055  18.469  10.395 -0.1637 -0.3214  0.1380
  218loPI    C2 3474  11.823  18.695  10.628 -0.0866  0.0515 -0.1367
  218loPI    C3 3475  12.086  18.442  10.793 -0.2404  0.0892  0.1754
  218loPI   PO4 3476  12.037  18.556  10.083  0.1257 -0.0116  0.0254
  218loPI   GL1 3477  12.107  18.968   9.873 -0.2364  0.0857 -0.0045
  218loPI   GL2 3478  12.443  18.979   9.743 -0.1989 -0.0136 -0.3032
  218loPI   C1A 3479  11.743  18.807   9.486 -0.0910 -0.2509 -0.0602
  218loPI   C2A 3480  11.709  18.423   9.156 -0.1752  0.1839 -0.0641
  218loPI   C3A 3481  11.649  17.959   8.949 -0.0957 -0.0877 -0.1529
  218loPI   C4A 3482  11.735  17.505   8.909 -0.1006 -0.0779  0.3383
  218loPI   C5A 3483  11.698  17.013   8.880  0.1995  0.2019 -0.0513
  218loPI   C6A 3484  11.506  16.627   8.904  0.1091 -0.0224  0.1566
  218loPI   C1B 3485  12.180  18.990   9.398  0.1460 -0.0713 -0.1781
  218loPI   C2B 3486  11.974  19.012   9.135  0.2476 -0.1288 -0.1575
  218loPI   C3B 3487  11.627  18.868   8.891  0.2885 -0.2557  0.3221
  218loPI   C4B 3488  11.559  18.907   8.443 -0.1599  0.1671  0.0291
  219loPI    C1 3489   5.961  12.043  10.712  0.2184 -0.1455  0.3252
  219loPI    C2 3490   5.660  11.831  10.868 -0.0959  0.0145 -0.0478
  219loPI    C3 3491   5.796  12.156  11.059 -0.3434  0.0965 -0.0082
  219loPI   PO4 3492   5.896  11.898  10.414  0.0970  0.1366 -0.1097
  219loPI   GL1 3493   5.862  11.915  10.000 -0.0920 -0.0375  0.4013
  219loPI   GL2 3494   5.877  11.697   9.774 -0.0640 -0.0101  0.1692
  219loPI   C1A 3495   6.132  12.109   9.587  0.0486  0.0066  0.2196
  219loPI   C2A 3496   6.053  12.230   9.171 -0.1392  0.0395 -0.2993
  219loPI   C3A 3497   6.037  12.307   8.724  0.0756  0.2172 -0.1843
  219loPI   C4A 3498   5.967  11.936   8.443 -0.3035  0.1395 -0.2913
  219loPI   C5A 3499   6.161  11.769   8.093  0.1164 -0.2413 -0.1264
  219loPI   C6A 3500   6.383  11.678   7.614 -0.0294  0.0970 -0.0497
  219loPI   C1B 3501   5.802  11.837   9.329  0.1603  0.2053  0.1616
  219loPI   C2B 3502   5.644  11.916   8.903  0.1239  0.2785  0.3966
  219loPI   C3B 3503   5.454  11.925   8.405  0.2812  0.1491 -0.3800
  219loPI   C4B 3504   5.595  11.776   7.999 -0.1144  0.2436  0.0569
  220loPI    C1 3505   6.806  13.328  10.613 -0.1957 -0.1705  0.0707
  220loPI    C2 3506   6.513  13.598  10.649  0.1180  0.1899 -0.0099
  220loPI    C3 3507   6.663  13.421  10.974 -0.1665  0.0232  0.0337
  220loPI   PO4 3508   6.786  13.186  10.401 -0.0906 -0.0565  0.3003
  220loPI   GL1 3509   6.822  13.084  10.002  0.1341 -0.0280  0.0348
  220loPI   GL2 3510   7.171  13.145   9.967  0.0733  0.1227  0.0999
  220loPI   C1A 3511   6.812  12.943   9.701  0.2871 -0.2958 -0.1031
  220loPI   C2A 3512   6.878  12.860   9.363 -0.2068 -0.1869  0.1355
  220loPI   C3A 3513   6.941  12.548   8.986  0.0426  0.7205 -0.0899
  220loPI   C4A 3514   6.951  12.130   8.733  0.1794  0.2332  0.0361
  220loPI   C5A 3515   7.184  11.804   8.590 -0.0272  0.2746 -0.0572
  220loPI   C6A 3516   7.525  11.484   8.441 -0.1532 -0.2560  0.3676
  220loPI   C1B 3517   7.175  13.271   9.482  0.2025  0.0164  0.1987
  220loPI   C2B 3518   7.064  13.177   9.041  0.2333 -0.3491 -0.2719
  220loPI   C3B 3519   6.760  12.975   8.713 -0.0106 -0.0576  0.0773
  220loPI   C4B 3520   6.839  12.918   8.263  0.0152 -0.0122 -0.1999
  221loPI    C1 3521  15.090   9.199  11.070 -0.2125  0.1984  0.0994
  221loPI    C2 3522  15.260   8.937  11.320 -0.1829  0.1461  0.0254
  221loPI    C3 3523  15.124   9.287  11.458 -0.1070  0.1455  0.1027
  221loPI   PO4 3524  15.068   9.005  10.784  0.1366  0.0510  0.0241
  221loPI   GL1 3525  15.365   8.773  10.500 -0.0007 -0.2440  0.1722
  221loPI   GL2 3526  15.543   8.635  10.386 -0.1097  0.1022 -0.1578
  221loPI   C1A 3527  14.995   8.642  10.158 -0.0228  0.2761  0.2006
  221loPI   C2A 3528  15.014   8.502   9.713  0.0552 -0.1450  0.1678
  221loPI   C3A 3529  15.059   8.540   9.355 -0.1107 -0.0260  0.0168
  221loPI   C4A 3530  15.009   8.538   8.951 -0.0766  0.3903 -0.1284
  221loPI   C5A 3531  15.129   8.482   8.583 -0.3167 -0.0047  0.2501
  221loPI   C6A 3532  15.450   8.275   8.311  0.0098 -0.2558  0.2874
  221loPI   C1B 3533  15.506   8.638  10.000 -0.1675  0.1616  0.2674
  221loPI   C2B 3534  15.555   8.511   9.633 -0.3495 -0.0036 -0.0183
  221loPI   C3B 3535  15.542   8.517   9.220 -0.0941 -0.0164  0.0676
  221loPI   C4B 3536  15.561   8.384   8.888  0.3389  0.1968  0.4128
  222loPI    C1 3537  17.548   4.373  10.369  0.0823 -0.0705  0.1388
  222loPI    C2 3538  17.620   4.004  10.505 -0.1246 -0.1175  0.1239
  222loPI    C3 3539  17.372   4.247  10.705 -0.1050 -0.0393  0.0540
  222loPI   PO4 3540  17.707   4.479  10.302 -0.0251 -0.0892  0.0969
  222loPI   GL1 3541  17.773   4.405   9.891 -0.0515 -0.2410 -0.0163
  222loPI   GL2 3542  18.044   4.496   9.919 -0.3058  0.3469  0.1762
  222loPI   C1A 3543  17.704   4.209   9.539  0.2023  0.0394 -0.2226
  222loPI   C2A 3544  17.844   4.239   9.159 -0.0997  0.1135 -0.1793
  222loPI   C3A 3545  18.019   4.070   8.764 -0.1757  0.0906 -0.0024
  222loPI   C4A 3546  18.376   4.024   8.686  0.0505 -0.3432  0.0631
  222loPI   C5A 3547  18.731   4.324   8.837  0.1565 -0.2330  0.3171
  222loPI   C6A 3548  19.099   4.371   8.685  0.2084  0.1318 -0.0273
  222loPI   C1B 3549  18.185   4.628   9.492  0.1286  0.1214 -0.1165
  222loPI   C2B 3550  18.128   4.969   9.091  0.0476  0.0597 -0.0823
  222loPI   C3B 3551  18.132   5.204   8.751 -0.0642  0.2616 -0.0560
  222loPI   C4B 3552  18.143   5.341   8.341  0.0214 -0.0664  0.1152
  223loPI    C1 3553  16.886   0.406  10.567 -0.2541  0.0507 -0.0367
  223loPI    C2 3554  16.933   0.310  10.952 -0.0917  0.0387 -0.0586
  223loPI    C3 3555  17.090   0.649  10.811  0.2414 -0.1746 -0.2126
  223loPI   PO4 3556  16.862   0.159  10.355 -0.1255  0.2331  0.3083
  223loPI   GL1 3557  16.916  -0.088  10.032  0.1107  0.3211 -0.0358
  223loPI   GL2 3558  16.678  -0.321   9.832  0.1637 -0.1610  0.1462
  223loPI   C1A 3559  17.225  -0.422   9.998 -0.3578  0.0758 -0.2509
  223loPI   C2A 3560  17.443  -0.740   9.802 -0.2633 -0.0376 -0.1255
  223loPI   C3A 3561  17.461  -0.819   9.367 -0.4370  0.0249 -0.1286
  223loPI   C4A 3562  17.422  -0.894   8.930  0.2164  0.1438 -0.2628
  223loPI   C5A 3563  17.379  -0.993   8.508  0.2264 -0.3025 -0.1320
  223loPI   C6A 3564  17.260  -1.052   8.148 -0.2456 -0.1884  0.0412
  223loPI   C1B 3565  16.743  -0.044   9.526 -0.3005 -0.1133  0.0487
  223loPI   C2B 3566  16.803   0.046   9.074  0.2150 -0.0990  0.2332
  223loPI   C3B 3567  16.802  -0.240   8.780  0.1394 -0.1045  0.0509
  223loPI   C4B 3568  16.505  -0.466   8.562  0.3719 -0.0963  0.0380
  224loPI    C1 3569   1.359  13.877  10.588  0.1250  0.0390 -0.0261
  224loPI    C2 3570   1.558  13.595  10.791  0.2177  0.1195 -0.0046
  224loPI    C3 3571   1.402  13.910  10.984 -0.0079  0.0126 -0.0090
  224loPI   PO4 3572   1.201  13.801  10.426 -0.0064  0.1972 -0.1830
  224loPI   GL1 3573   0.966  13.853  10.053  0.2642  0.2927 -0.0085
  224loPI   GL2 3574   0.738  14.030  10.104  0.1284  0.3255 -0.0444
  224loPI   C1A 3575   0.761  13.704   9.753 -0.6539 -0.1937  0.1429
  224loPI   C2A 3576   0.779  13.677   9.326  0.1103  0.1428 -0.1057
  224loPI   C3A 3577   0.676  13.784   8.917 -0.2612 -0.0478  0.0143
  224loPI   C4A 3578   0.726  13.754   8.489 -0.1122  0.1769  0.1763
  224loPI   C5A 3579   0.671  13.699   8.034  0.0004  0.0923 -0.1222
  224loPI   C6A 3580   0.547  13.241   7.994 -0.3096  0.4684  0.0666
  224loPI   C1B 3581   0.784  14.177   9.592  0.0338 -0.2285 -0.0041
  224loPI   C2B 3582   0.636  14.212   9.161 -0.1220  0.0685  0.1177
  224loPI   C3B 3583   0.582  14.217   8.712  0.1148  0.0600  0.1535
  224loPI   C4B 3584   0.616  14.175   8.256  0.1399 -0.4786  0.0316
  225loPI    C1 3585  17.455   9.291  10.765  0.0773 -0.1705 -0.2040
  225loPI    C2 3586  17.470   8.900  10.847  0.0394 -0.1151  0.0759
  225loPI    C3 3587  17.332   9.157  11.121 -0.1695  0.0681 -0.1963
  225loPI   PO4 3588  17.554   9.394  10.617 -0.1176 -0.1920  0.1164
  225loPI   GL1 3589  17.593   9.249  10.203 -0.1565 -0.1907  0.1029
  225loPI   GL2 3590  17.747   8.938  10.373 -0.0656 -0.0221 -0.0941
  225loPI   C1A 3591  17.661   9.315   9.841  0.0411  0.2177  0.3917
  225loPI   C2A 3592  17.609   9.414   9.424 -0.1897 -0.0829 -0.1857
  225loPI   C3A 3593  17.603   9.309   9.008  0.2060  0.0082 -0.0201
  225loPI   C4A 3594  17.481   9.354   8.584  0.1251  0.2633 -0.1679
  225loPI   C5A 3595  17.680   9.140   8.214  0.1082  0.3736 -0.2521
  225loPI   C6A 3596  17.664   8.876   8.015 -0.0512 -0.2753  0.1527
  225loPI   C1B 3597  17.829   8.838  10.003  0.2527 -0.1014 -0.1444
  225loPI   C2B 3598  17.820   8.824   9.519 -0.0440  0.4253 -0.2189
  225loPI   C3B 3599  17.842   8.891   9.020 -0.0119 -0.0842  0.0211
  225loPI   C4B 3600  17.915   8.773   8.602 -0.1108  0.1546  0.0708
  226loPI    C1 3601   2.194  10.396  10.623  0.1213 -0.0985 -0.0598
  226loPI    C2 3602   2.112  10.748  10.794  0.0811 -0.0051 -0.2685
  226loPI    C3 3603   2.323  10.473  10.994 -0.4664 -0.1316  0.1625
  226loPI   PO4 3604   2.183  10.446  10.369  0.4048  0.0699 -0.3563
  226loPI   GL1 3605   2.305  10.401  10.059 -0.2169  0.0400 -0.0142
  226loPI   GL2 3606   2.095  10.195   9.949  0.1104 -0.1451  0.2608
  226loPI   C1A 3607   2.548  10.130   9.764  0.1145 -0.4411 -0.2067
  226loPI   C2A 3608   2.580  10.041   9.363 -0.0311  0.0946 -0.1803
  226loPI   C3A 3609   2.602  10.104   8.914 -0.1654  0.0962 -0.2344
  226loPI   C4A 3610   2.567   9.971   8.496  0.1533  0.1796  0.1016
  226loPI   C5A 3611   2.433   9.959   8.052  0.1882 -0.1422 -0.0131
  226loPI   C6A 3612   2.153   9.828   7.724 -0.2014 -0.0643  0.1442
  226loPI   C1B 3613   2.161  10.279   9.489 -0.2837  0.1836 -0.1525
  226loPI   C2B 3614   2.184  10.266   9.040  0.1823 -0.1303 -0.0386
  226loPI   C3B 3615   2.232  10.343   8.620  0.0418 -0.4940 -0.0207
  226loPI   C4B 3616   2.504  10.460   8.219 -0.1403  0.2360 -0.0230
  227loPI    C1 3617   9.273   5.757  10.883  0.1097 -0.0183 -0.2188
  227loPI    C2 3618   9.661   5.856  10.887  0.1127 -0.0337 -0.0167
  227loPI    C3 3619   9.544   5.499  11.024  0.0171  0.0093  0.0144
  227loPI   PO4 3620   9.137   5.737  10.684 -0.0566 -0.0188  0.1141
  227loPI   GL1 3621   8.972   5.864  10.333  0.1050 -0.2069  0.0868
  227loPI   GL2 3622   8.815   5.672  10.119  0.0015  0.3640  0.1351
  227loPI   C1A 3623   9.125   6.167  10.005  0.0208  0.0976  0.2530
  227loPI   C2A 3624   9.055   6.152   9.614 -0.0616 -0.1009 -0.3095
  227loPI   C3A 3625   9.157   6.223   9.244  0.0576  0.0052 -0.0036
  227loPI   C4A 3626   9.130   6.248   8.760 -0.1255 -0.1378 -0.3288
  227loPI   C5A 3627   9.212   6.408   8.383 -0.0889  0.1509  0.0649
  227loPI   C6A 3628   9.603   6.582   8.113  0.3151 -0.3937  0.0022
  227loPI   C1B 3629   8.798   5.732   9.694  0.0126 -0.1003  0.0394
  227loPI   C2B 3630   8.834   5.806   9.189 -0.0473  0.2175  0.1027
  227loPI   C3B 3631   8.885   5.803   8.698 -0.2571  0.0028 -0.0066
  227loPI   C4B 3632   9.002   5.955   8.238 -0.0096  0.0700 -0.0417
  228loPI    C1 3633  13.024  11.495  10.502 -0.0602 -0.0075 -0.0345
  228loPI    C2 3634  12.671  11.673  10.563 -0.0192  0.0928 -0.0877
  228loPI    C3 3635  12.822  11.429  10.841 -0.1965 -0.0626 -0.1255
  228loPI   PO4 3636  12.950  11.415  10.248  0.1161 -0.2603 -0.0597
  228loPI   GL1 3637  12.968  11.559   9.901  0.1045  0.1386 -0.0005
  228loPI   GL2 3638  12.817  11.839   9.935  0.0190  0.0555  0.1945
  228loPI   C1A 3639  12.770  11.581   9.488  0.0288  0.2112  0.1393
  228loPI   C2A 3640  12.505  11.524   9.122  0.1388 -0.1973  0.0091
  228loPI   C3A 3641  12.285  11.871   8.876  0.0642  0.2775  0.1363
  228loPI   C4A 3642  11.994  12.162   8.992 -0.0575  0.2096  0.0686
  228loPI   C5A 3643  11.631  12.189   9.211 -0.1741  0.0162 -0.2185
  228loPI   C6A 3644  11.275  12.307   9.337  0.0811  0.0541  0.2490
  228loPI   C1B 3645  13.161  11.898   9.583 -0.0363 -0.0751 -0.1035
  228loPI   C2B 3646  13.327  11.797   9.144 -0.0264  0.1902  0.0515
  228loPI   C3B 3647  13.426  11.867   8.723  0.0689 -0.3607  0.3250
  228loPI   C4B 3648  13.633  11.583   8.403  0.0839 -0.3456 -0.2049
  229loPI    C1 3649   2.720   0.682  10.540  0.0402 -0.0374  0.1624
  229loPI    C2 3650   2.351   0.803  10.637  0.0197 -0.0258  0.0713
  229loPI    C3 3651   2.510   0.482  10.816  0.0129  0.0412  0.1988
  229loPI   PO4 3652   2.720   0.824  10.297  0.2770 -0.1589 -0.0571
  229loPI   GL1 3653   2.479   0.875   9.941  0.2595 -0.2173  0.1637
  229loPI   GL2 3654   2.257   0.791  10.090  0.3264 -0.2701  0.4049
  229loPI   C1A 3655   2.452   1.058   9.523 -0.0301  0.2465 -0.0180
  229loPI   C2A 3656   2.523   1.069   9.123 -0.3558 -0.3382 -0.0585
  229loPI   C3A 3657   2.596   1.126   8.721 -0.2151  0.1140 -0.2904
  229loPI   C4A 3658   2.694   1.024   8.195 -0.1294 -0.3953 -0.0920
  229loPI   C5A 3659   2.485   1.203   7.809 -0.1640  0.0266  0.1670
  229loPI   C6A 3660   2.481   1.574   7.500 -0.0411 -0.1899  0.0010
  229loPI   C1B 3661   2.038   0.375   9.947  0.0312 -0.0795  0.0370
  229loPI   C2B 3662   2.234   0.094   9.584 -0.0101 -0.0931  0.1472
  229loPI   C3B 3663   2.436   0.062   9.219 -0.0502 -0.2315  0.1003
  229loPI   C4B 3664   2.433   0.088   8.765 -0.0455  0.0040  0.0015
  230loPI    C1 3665   8.931   6.499  11.137 -0.0792  0.1559 -0.1038
  230loPI    C2 3666   9.068   6.700  10.819  0.3466 -0.0422 -0.0526
  230loPI    C3 3667   9.140   6.837  11.188  0.1167  0.0258 -0.0314
  230loPI   PO4 3668   8.642   6.403  11.086 -0.1446 -0.1310 -0.1218
  230loPI   GL1 3669   8.503   6.447  10.713  0.1556  0.2076  0.3979
  230loPI   GL2 3670   8.563   6.727  10.603  0.0205 -0.1040 -0.2613
  230loPI   C1A 3671   8.894   6.451  10.381  0.0787 -0.1414 -0.0987
  230loPI   C2A 3672   8.936   6.603  10.064 -0.0391 -0.1618 -0.1728
  230loPI   C3A 3673   8.947   6.629   9.599  0.1768  0.1508 -0.0944
  230loPI   C4A 3674   8.913   6.747   9.171  0.0601  0.1331  0.1598
  230loPI   C5A 3675   8.963   6.774   8.691 -0.4132  0.0576  0.1169
  230loPI   C6A 3676   9.118   6.858   8.229 -0.0438 -0.1346 -0.1455
  230loPI   C1B 3677   8.441   6.687  10.206  0.1670  0.2852 -0.0002
  230loPI   C2B 3678   8.397   6.599   9.733 -0.1699 -0.1159  0.1195
  230loPI   C3B 3679   8.411   6.790   9.292  0.1060 -0.0667  0.1120
  230loPI   C4B 3680   8.456   6.721   8.871 -0.0330 -0.1210 -0.0952
  231loPI    C1 3681   7.672   5.773  10.653 -0.2989 -0.0018  0.0621
  231loPI    C2 3682   7.496   5.626  10.980 -0.0679  0.2134  0.2876
  231loPI    C3 3683   7.616   6.008  10.972  0.0865  0.1613  0.0161
  231loPI   PO4 3684   7.526   5.795  10.485 -0.0789 -0.0033  0.0424
  231loPI   GL1 3685   7.323   5.889  10.106  0.1083 -0.1189  0.0826
  231loPI   GL2 3686   7.151   6.122  10.281  0.0666  0.1604  0.0557
  231loPI   C1A 3687   7.350   5.993   9.713 -0.1846  0.0774  0.1790
  231loPI   C2A 3688   7.361   5.979   9.340 -0.2283  0.1756  0.3103
  231loPI   C3A 3689   7.393   6.000   8.814 -0.0065  0.3082 -0.1737
  231loPI   C4A 3690   7.492   6.052   8.362  0.0174 -0.1060 -0.0832
  231loPI   C5A 3691   7.572   5.998   7.906  0.3303 -0.2511  0.2748
  231loPI   C6A 3692   7.478   5.939   7.437  0.0897  0.0651 -0.0663
  231loPI   C1B 3693   7.065   6.340   9.886  0.1837 -0.0726 -0.2943
  231loPI   C2B 3694   7.174   6.545   9.522  0.0403  0.0607  0.0271
  231loPI   C3B 3695   7.157   6.417   9.015  0.2778  0.2498 -0.1334
  231loPI   C4B 3696   7.218   6.470   8.586 -0.1714  0.0321 -0.0228
  232loPI    C1 3697  17.411  17.270  10.533  0.1048  0.0838  0.0584
  232loPI    C2 3698  17.176  17.527  10.729  0.1509  0.0777  0.1222
  232loPI    C3 3699  17.435  17.300  10.931  0.2064  0.0789  0.0530
  232loPI   PO4 3700  17.302  17.155  10.400 -0.0357  0.0067  0.1754
  232loPI   GL1 3701  17.094  17.010  10.014 -0.0608  0.0583 -0.0541
  232loPI   GL2 3702  17.006  16.752   9.959  0.0217  0.2582  0.1918
  232loPI   C1A 3703  17.413  17.119   9.761  0.0205  0.0771 -0.1227
  232loPI   C2A 3704  17.621  16.940   9.432  0.0780 -0.5112 -0.2029
  232loPI   C3A 3705  17.580  16.890   9.126  0.2547 -0.0759  0.0582
  232loPI   C4A 3706  17.679  16.878   8.678 -0.0626  0.0760 -0.2353
  232loPI   C5A 3707  17.659  16.890   8.157  0.1274 -0.0720  0.0888
  232loPI   C6A 3708  17.735  16.721   7.829 -0.0406 -0.0001  0.1386
  232loPI   C1B 3709  17.000  16.961   9.541 -0.4075  0.2461 -0.1204
  232loPI   C2B 3710  17.156  17.103   9.222  0.5802 -0.4402 -0.0177
  232loPI   C3B 3711  17.100  17.050   8.913  0.0058 -0.3032  0.0354
  232loPI   C4B 3712  17.200  16.950   8.540 -0.0286 -0.2472  0.0640
  233loPI    C1 3713  18.652  18.484  10.588  0.1692  0.1551 -0.0326
  233loPI    C2 3714  18.299  18.374  10.740  0.1260  0.3107 -0.0186
  233loPI    C3 3715  18.637  18.289  10.937  0.0972  0.1616 -0.0321
  233loPI   PO4 3716  18.669  18.393  10.343  0.2389  0.1128  0.0202
  233loPI   GL1 3717  18.581  18.303   9.975 -0.1398 -0.0341  0.0412
  233loPI   GL2 3718  18.415  18.036   9.821  0.0461 -0.2826  0.1899
  233loPI   C1A 3719  18.784  18.311   9.567 -0.1393  0.1947 -0.0529
  233loPI   C2A 3720  18.840  18.299   9.056  0.4062  0.0712 -0.1332
  233loPI   C3A 3721  18.714  18.273   8.584  0.1046 -0.0083  0.0642
  233loPI   C4A 3722  18.650  18.413   8.120 -0.4362 -0.1784 -0.1057
  233loPI   C5A 3723  18.662  18.514   7.720 -0.2048  0.4067 -0.2754
  233loPI   C6A 3724  18.941  18.422   7.437  0.1345  0.0779  0.1051
  233loPI   C1B 3725  18.495  17.992   9.323 -0.0721  0.1891 -0.0675
  233loPI   C2B 3726  18.338  17.967   8.874  0.1876  0.2534  0.2668
  233loPI   C3B 3727  18.333  18.002   8.451 -0.3069  0.4868  0.2734
  233loPI   C4B 3728  18.314  17.997   8.008 -0.1359 -0.1250  0.2442
  234loPI    C1 3729  14.855   8.233  11.158  0.0732 -0.0886  0.0085
  234loPI    C2 3730  14.803   8.594  10.993 -0.0190 -0.0987  0.0148
  234loPI    C3 3731  14.575   8.480  11.301 -0.0135 -0.1761 -0.0094
  234loPI   PO4 3732  14.812   8.087  11.012  0.2516  0.0349 -0.0999
  234loPI   GL1 3733  14.695   7.953  10.641 -0.0658 -0.1316 -0.2420
  234loPI   GL2 3734  14.817   7.665  10.478 -0.2227 -0.2055 -0.1289
  234loPI   C1A 3735  14.754   8.221  10.200  0.1738  0.3491 -0.2450
  234loPI   C2A 3736  14.753   8.091   9.859 -0.0249 -0.1297  0.3412
  234loPI   C3A 3737  14.737   8.186   9.417 -0.1716 -0.1094 -0.0696
  234loPI   C4A 3738  14.755   8.068   9.038 -0.1303 -0.2322  0.0001
  234loPI   C5A 3739  14.736   8.223   8.570 -0.0396  0.0486  0.4499
  234loPI   C6A 3740  14.541   8.308   8.142 -0.0830 -0.1966  0.0356
  234loPI   C1B 3741  14.972   7.721  10.069 -0.2733  0.1518  0.0340
  234loPI   C2B 3742  14.938   7.661   9.573 -0.3289 -0.0256  0.2861
  234loPI   C3B 3743  14.917   7.665   9.194  0.0852  0.2583  0.0205
  234loPI   C4B 3744  14.969   7.603   8.738  0.0517  0.2008 -0.0261
  235loPI    C1 3745  12.407  15.662  10.649  0.1246  0.2629  0.0110
  235loPI    C2 3746  12.055  15.756  10.815  0.1068  0.2326 -0.0093
  235loPI    C3 3747  12.360  16.015  10.831  0.1422  0.1812  0.1757
  235loPI   PO4 3748  12.470  15.643  10.421 -0.0404 -0.0804  0.2052
  235loPI   GL1 3749  12.551  15.721  10.001  0.1056  0.0090  0.3025
  235loPI   GL2 3750  12.658  15.460   9.746  0.0647 -0.0718 -0.1248
  235loPI   C1A 3751  12.355  15.878   9.621 -0.1326 -0.0269 -0.0750
  235loPI   C2A 3752  12.315  15.985   9.274  0.0352  0.0855 -0.0941
  235loPI   C3A 3753  12.299  16.230   8.933  0.0658 -0.0288 -0.2204
  235loPI   C4A 3754  12.261  16.270   8.531 -0.1625  0.0663  0.0831
  235loPI   C5A 3755  12.380  16.269   8.083  0.1125 -0.3990  0.0700
  235loPI   C6A 3756  12.541  15.875   7.936 -0.0279 -0.0818 -0.3037
  235loPI   C1B 3757  12.450  15.508   9.374 -0.1294 -0.0413 -0.2798
  235loPI   C2B 3758  12.250  15.217   9.104  0.0204  0.1217  0.1283
  235loPI   C3B 3759  12.163  14.711   9.246  0.0687  0.0659  0.0030
  235loPI   C4B 3760  11.856  14.462   9.178  0.1631  0.1046 -0.0724
  236loPI    C1 3761  15.949   5.345  10.792 -0.1546 -0.0250  0.1399
  236loPI    C2 3762  16.237   5.091  10.906  0.1765  0.2041 -0.1655
  236loPI    C3 3763  16.097   5.363  11.163 -0.1373 -0.2369  0.1448
  236loPI   PO4 3764  16.047   5.446  10.551 -0.1345  0.2255 -0.2498
  236loPI   GL1 3765  16.006   5.502  10.121  0.0770  0.1352 -0.1901
  236loPI   GL2 3766  15.808   5.781  10.316 -0.0424  0.0941  0.5348
  236loPI   C1A 3767  16.015   5.440   9.676 -0.0794 -0.0675 -0.2620
  236loPI   C2A 3768  15.979   5.378   9.239  0.3409 -0.0289  0.3999
  236loPI   C3A 3769  16.240   5.264   8.906  0.3951 -0.1200  0.3917
  236loPI   C4A 3770  16.489   5.276   8.488 -0.0587  0.1766 -0.2326
  236loPI   C5A 3771  16.754   5.374   8.215  0.0890  0.1275 -0.0464
  236loPI   C6A 3772  16.932   5.153   7.773 -0.1117 -0.1363 -0.0742
  236loPI   C1B 3773  15.750   5.869   9.916 -0.1456  0.0019 -0.3796
  236loPI   C2B 3774  15.788   5.884   9.498  0.0222  0.0424 -0.3690
  236loPI   C3B 3775  15.928   5.775   8.991  0.0649  0.0045 -0.2474
  236loPI   C4B 3776  15.935   5.592   8.653 -0.2537 -0.1607 -0.0085
  237loPI    C1 3777  14.187  13.237  10.654 -0.0638  0.1064 -0.1553
  237loPI    C2 3778  13.985  12.918  10.787  0.1431  0.0443  0.0153
  237loPI    C3 3779  14.019  13.243  11.017  0.2015  0.0702 -0.0296
  237loPI   PO4 3780  14.032  13.227  10.386 -0.0020 -0.3641  0.3587
  237loPI   GL1 3781  13.854  13.064  10.088  0.3654  0.0005  0.1044
  237loPI   GL2 3782  13.831  13.190   9.854  0.0781  0.0962  0.0452
  237loPI   C1A 3783  14.317  13.105   9.775 -0.0711 -0.3360 -0.0496
  237loPI   C2A 3784  14.649  13.220   9.582 -0.0590 -0.1732  0.0846
  237loPI   C3A 3785  15.017  13.485   9.684 -0.0178  0.1703 -0.3051
  237loPI   C4A 3786  15.294  13.652   9.491  0.1741  0.0150 -0.1815
  237loPI   C5A 3787  15.346  14.053   9.244  0.0687 -0.0722  0.1841
  237loPI   C6A 3788  15.279  14.190   8.800 -0.0736 -0.1772  0.1806
  237loPI   C1B 3789  14.074  13.463   9.555 -0.0186  0.1191 -0.0734
  237loPI   C2B 3790  13.979  13.535   9.143  0.4402 -0.1079 -0.1816
  237loPI   C3B 3791  14.001  13.375   8.732  0.2117 -0.0033  0.0338
  237loPI   C4B 3792  14.232  13.080   8.436 -0.2737  0.0924  0.2094
  238loPI    C1 3793  13.929  10.761  11.067  0.1206  0.0877 -0.1930
  238loPI    C2 3794  13.704  10.441  10.983 -0.0868  0.1191  0.2163
  238loPI    C3 3795  13.871  10.479  11.344  0.1900  0.3279  0.0703
  238loPI   PO4 3796  14.066  10.809  10.886  0.4644  0.1265  0.0644
  238loPI   GL1 3797  14.104  10.558  10.479 -0.1727  0.2088  0.0438
  238loPI   GL2 3798  13.840  10.411  10.509 -0.0483 -0.0362 -0.0438
  238loPI   C1A 3799  14.030  10.753  10.107 -0.1621  0.2787 -0.0281
  238loPI   C2A 3800  13.952  10.844   9.660 -0.0774  0.2869 -0.3324
  238loPI   C3A 3801  13.833  11.141   9.538 -0.1167 -0.2298  0.0571
  238loPI   C4A 3802  13.558  11.366   9.184 -0.2195 -0.1963 -0.0105
  238loPI   C5A 3803  13.425  11.318   8.817  0.1818 -0.1838  0.0408
  238loPI   C6A 3804  13.354  10.968   8.528 -0.1845  0.4937 -0.2295
  238loPI   C1B 3805  13.799  10.219  10.064 -0.2300  0.1477 -0.0784
  238loPI   C2B 3806  13.837  10.031   9.746  0.3326 -0.0421  0.3802
  238loPI   C3B 3807  13.787   9.819   9.260  0.1375 -0.2102  0.2221
  238loPI   C4B 3808  14.032   9.533   9.124  0.0582  0.1514 -0.0382
  239loPI    C1 3809   5.685   5.711  10.404 -0.0932 -0.2764  0.1349
  239loPI    C2 3810   5.471   5.376  10.355 -0.1280 -0.2239 -0.0819
  239loPI    C3 3811   5.314   5.686  10.553 -0.0738 -0.3547  0.1709
  239loPI   PO4 3812   5.720   5.837  10.169 -0.1780 -0.1359 -0.1999
  239loPI   GL1 3813   5.984   5.799   9.846  0.1346  0.3688  0.0306
  239loPI   GL2 3814   6.213   6.035   9.817  0.1157  0.2330  0.0942
  239loPI   C1A 3815   5.958   5.550   9.442 -0.4670 -0.0266  0.0457
  239loPI   C2A 3816   6.058   5.710   9.063 -0.0685  0.0708  0.1156
  239loPI   C3A 3817   6.103   5.782   8.649 -0.0706 -0.2690 -0.3932
  239loPI   C4A 3818   6.050   5.859   8.167 -0.4189 -0.0386 -0.1328
  239loPI   C5A 3819   5.848   6.015   7.745 -0.0839 -0.2298 -0.0489
  239loPI   C6A 3820   5.456   5.781   7.513 -0.2483  0.3229  0.0206
  239loPI   C1B 3821   6.297   6.068   9.355  0.0697  0.0799  0.1886
  239loPI   C2B 3822   6.294   6.183   8.993 -0.0590 -0.2713 -0.0207
  239loPI   C3B 3823   5.985   6.263   8.585 -0.0749 -0.0754  0.2729
  239loPI   C4B 3824   5.588   6.089   8.286  0.1382  0.0663  0.0756
  240loPI    C1 3825   3.216  14.184  10.390  0.0726  0.1287 -0.0079
  240loPI    C2 3826   3.436  14.495  10.513  0.1741  0.0031  0.1316
  240loPI    C3 3827   3.083  14.420  10.684 -0.0272  0.2636 -0.1599
  240loPI   PO4 3828   3.283  14.255  10.059 -0.2023 -0.1389 -0.1122
  240loPI   GL1 3829   3.662  14.170   9.805 -0.3692 -0.0564  0.2134
  240loPI   GL2 3830   3.445  13.866   9.736 -0.2916 -0.2933  0.0296
  240loPI   C1A 3831   3.750  13.863   9.363 -0.3376 -0.3469  0.0326
  240loPI   C2A 3832   3.851  13.948   9.050  0.0686  0.0641  0.3406
  240loPI   C3A 3833   3.940  13.951   8.575  0.0462 -0.1303  0.3390
  240loPI   C4A 3834   3.946  14.037   8.152  0.0925  0.2719  0.0376
  240loPI   C5A 3835   3.956  14.015   7.706  0.1683  0.1717  0.0401
  240loPI   C6A 3836   3.926  13.917   7.329  0.0791 -0.1081  0.1267
  240loPI   C1B 3837   3.339  14.130   9.269 -0.1277  0.1889 -0.0005
  240loPI   C2B 3838   3.347  14.164   8.845  0.0287  0.1911  0.0665
  240loPI   C3B 3839   3.429  14.097   8.444 -0.1952 -0.2871  0.0196
  240loPI   C4B 3840   3.483  13.981   8.029  0.1692 -0.0799  0.1574
  241loPI    C1 3841   4.733   8.125  10.399  0.0970  0.1621  0.0143
  241loPI    C2 3842   4.478   7.942  10.646 -0.0153 -0.1754 -0.3399
  241loPI    C3 3843   4.872   7.893  10.693 -0.0260 -0.0302 -0.0771
  241loPI   PO4 3844   4.593   8.192  10.197  0.0464  0.1184 -0.2679
  241loPI   GL1 3845   4.415   8.323   9.852 -0.0208  0.0996  0.0355
  241loPI   GL2 3846   4.299   8.032   9.794  0.3799 -0.1694  0.1518
  241loPI   C1A 3847   4.390   8.509   9.416 -0.1430  0.0666  0.0384
  241loPI   C2A 3848   4.291   8.463   9.006 -0.1644 -0.1701  0.0626
  241loPI   C3A 3849   4.318   8.640   8.587  0.1245 -0.0347  0.0069
  241loPI   C4A 3850   4.460   8.704   8.084 -0.1368  0.1171  0.2006
  241loPI   C5A 3851   4.582   8.843   7.620  0.2230  0.0281 -0.0477
  241loPI   C6A 3852   4.622   8.993   7.195 -0.2046 -0.2388  0.2329
  241loPI   C1B 3853   4.381   7.969   9.352 -0.0555 -0.0361 -0.3340
  241loPI   C2B 3854   4.392   7.951   9.003  0.2412  0.0896 -0.1317
  241loPI   C3B 3855   4.353   7.972   8.658  0.0203 -0.1062 -0.1020
  241loPI   C4B 3856   4.330   8.205   8.312 -0.0899 -0.1011  0.1043
  242loPI    C1 3857  16.062  16.803  10.718 -0.1133 -0.0106  0.0260
  242loPI    C2 3858  16.451  16.735  10.649 -0.0959  0.1584 -0.0484
  242loPI    C3 3859  16.333  17.084  10.806 -0.2169  0.1016 -0.0113
  242loPI   PO4 3860  15.912  16.802  10.477  0.1729 -0.1030  0.0506
  242loPI   GL1 3861  15.816  16.627  10.018  0.1979  0.2089  0.2395
  242loPI   GL2 3862  15.759  17.011   9.986 -0.1971  0.0935  0.1092
  242loPI   C1A 3863  15.931  16.696   9.599  0.0268  0.1696  0.2532
  242loPI   C2A 3864  15.810  16.527   9.132 -0.2742 -0.3171 -0.2417
  242loPI   C3A 3865  15.762  16.437   8.635 -0.0653 -0.0534  0.0022
  242loPI   C4A 3866  15.775  16.801   8.252 -0.1725 -0.1959  0.2004
  242loPI   C5A 3867  16.146  16.854   7.967  0.0584 -0.1544 -0.0396
  242loPI   C6A 3868  16.357  17.112   7.613 -0.0666 -0.1601 -0.2010
  242loPI   C1B 3869  15.644  17.082   9.559 -0.1894 -0.0396 -0.0145
  242loPI   C2B 3870  15.728  16.969   9.223 -0.2624  0.1899 -0.0501
  242loPI   C3B 3871  15.785  17.012   8.747  0.1995  0.0145  0.0292
  242loPI   C4B 3872  16.180  17.048   8.508  0.0434  0.0055  0.0140
  243loPI    C1 3873  17.621   6.112  10.595  0.2255 -0.0154 -0.2523
  243loPI    C2 3874  17.904   6.278  10.824 -0.0140  0.0812 -0.0215
  243loPI    C3 3875  17.866   5.880  10.810  0.0777  0.0710  0.0132
  243loPI   PO4 3876  17.599   6.252  10.356  0.2182  0.0103 -0.0351
  243loPI   GL1 3877  17.721   6.403   9.992  0.0109  0.0236  0.0514
  243loPI   GL2 3878  17.632   6.135   9.814 -0.0260  0.0452 -0.1144
  243loPI   C1A 3879  17.412   6.574   9.754 -0.0078  0.0305  0.0041
  243loPI   C2A 3880  17.453   6.603   9.350  0.0821 -0.1280  0.0505
  243loPI   C3A 3881  17.404   6.644   8.881 -0.0064 -0.0270 -0.0385
  243loPI   C4A 3882  17.347   6.262   8.526  0.0126  0.2262  0.2915
  243loPI   C5A 3883  17.303   5.991   8.203 -0.1871 -0.1014 -0.1149
  243loPI   C6A 3884  17.215   5.535   8.186  0.2586  0.0855 -0.1032
  243loPI   C1B 3885  17.865   6.326   9.483  0.1556  0.3163  0.0829
  243loPI   C2B 3886  17.992   6.527   9.066 -0.2967  0.0713 -0.1506
  243loPI   C3B 3887  18.253   6.551   8.684 -0.1000 -0.0594 -0.3653
  243loPI   C4B 3888  18.457   6.539   8.299  0.0333  0.3544 -0.1504
  244loPI    C1 3889   5.016   4.417  10.762  0.2821  0.1490 -0.0263
  244loPI    C2 3890   5.313   4.160  10.835  0.0123 -0.1605  0.0048
  244loPI    C3 3891   5.155   4.373  11.134  0.1506 -0.0514  0.0009
  244loPI   PO4 3892   4.839   4.214  10.554 -0.1287  0.1423 -0.1785
  244loPI   GL1 3893   4.891   4.081  10.145  0.2674 -0.2287 -0.1028
  244loPI   GL2 3894   4.993   4.315   9.999 -0.0640  0.0989  0.0583
  244loPI   C1A 3895   4.908   3.838   9.799 -0.0032  0.2821  0.0604
  244loPI   C2A 3896   4.929   3.933   9.337  0.0002  0.0850 -0.1544
  244loPI   C3A 3897   4.881   3.827   8.929 -0.2454  0.1300  0.0712
  244loPI   C4A 3898   4.979   3.901   8.493  0.0767 -0.0820  0.3729
  244loPI   C5A 3899   5.092   3.848   8.173 -0.2574 -0.2247  0.2968
  244loPI   C6A 3900   5.058   3.997   7.803 -0.1418 -0.0364  0.1152
  244loPI   C1B 3901   4.958   4.429   9.614  0.1848  0.1515 -0.0585
  244loPI   C2B 3902   5.028   4.424   9.176 -0.1113 -0.1173  0.0647
  244loPI   C3B 3903   5.002   4.348   8.728 -0.0132  0.0487 -0.0577
  244loPI   C4B 3904   5.027   4.370   8.218 -0.0725 -0.0056 -0.1336
  245loPI    C1 3905   6.345   4.960  10.606 -0.2098 -0.0464  0.0188
  245loPI    C2 3906   6.502   4.757  10.913 -0.0737  0.0429  0.0084
  245loPI    C3 3907   6.281   5.083  10.981 -0.3183 -0.1246  0.0266
  245loPI   PO4 3908   6.195   4.847  10.445  0.2658 -0.0316 -0.1549
  245loPI   GL1 3909   6.098   4.837   9.952 -0.4445  0.3869 -0.1113
  245loPI   GL2 3910   6.347   4.613   9.819 -0.1693 -0.1842 -0.0735
  245loPI   C1A 3911   6.247   5.128   9.653 -0.0390 -0.0212 -0.1569
  245loPI   C2A 3912   6.298   5.178   9.177 -0.0235 -0.3560 -0.1172
  245loPI   C3A 3913   6.071   5.212   8.802  0.0207  0.0381 -0.1366
  245loPI   C4A 3914   5.992   5.365   8.322 -0.0222 -0.0462 -0.1582
  245loPI   C5A 3915   6.273   5.381   8.016  0.0953  0.0982 -0.3898
  245loPI   C6A 3916   6.440   5.119   7.690  0.0885 -0.0483 -0.1857
  245loPI   C1B 3917   6.495   4.750   9.444  0.1862 -0.0220  0.1993
  245loPI   C2B 3918   6.417   4.664   9.023  0.0976  0.2631 -0.0746
  245loPI   C3B 3919   6.501   4.862   8.637  0.2782 -0.0740  0.0994
  245loPI   C4B 3920   6.507   4.988   8.152  0.1341 -0.2352  0.1508
  246loPI    C1 3921  11.520   5.756  10.556  0.0955  0.0232 -0.0366
  246loPI    C2 3922  11.737   5.933  10.841  0.2351 -0.1506 -0.0335
  246loPI    C3 3923  11.887   5.622  10.639  0.1846  0.0446 -0.3795
  246loPI   PO4 3924  11.441   5.971  10.355 -0.0250  0.1472 -0.0273
  246loPI   GL1 3925  11.536   6.090  10.061 -0.1721 -0.0157  0.1062
  246loPI   GL2 3926  11.471   6.403   9.994 -0.1003  0.0783  0.2182
  246loPI   C1A 3927  11.648   6.037   9.570  0.0491  0.1435  0.0114
  246loPI   C2A 3928  11.721   6.076   9.158  0.1760 -0.1105 -0.0969
  246loPI   C3A 3929  11.806   5.957   8.837  0.3162 -0.1536 -0.1069
  246loPI   C4A 3930  11.804   6.057   8.379  0.0435  0.0516 -0.1077
  246loPI   C5A 3931  12.049   6.260   8.040 -0.0529 -0.0020  0.0324
  246loPI   C6A 3932  12.482   6.248   7.837 -0.1735 -0.2735 -0.2160
  246loPI   C1B 3933  11.417   6.551   9.588 -0.3112  0.2718  0.2388
  246loPI   C2B 3934  11.578   6.503   9.052  0.1570 -0.2322 -0.2684
  246loPI   C3B 3935  11.578   6.524   8.611 -0.0204 -0.0635 -0.2516
  246loPI   C4B 3936  11.417   6.397   8.131 -0.0807 -0.1229 -0.0765
  247loPI    C1 3937  11.208  12.213  10.390  0.0079  0.0676 -0.0350
  247loPI    C2 3938  11.482  12.376  10.632 -0.0103  0.2079 -0.1081
  247loPI    C3 3939  11.094  12.391  10.730 -0.0054  0.1414 -0.0779
  247loPI   PO4 3940  11.503  12.162  10.138  0.1622  0.2249  0.3030
  247loPI   GL1 3941  11.579  12.113   9.797 -0.0358 -0.0240  0.1860
  247loPI   GL2 3942  11.691  11.780   9.550 -0.0273  0.0044 -0.2750
  247loPI   C1A 3943  11.665  12.581   9.586 -0.0500  0.1842 -0.2546
  247loPI   C2A 3944  11.894  12.652   9.209  0.3347  0.1424 -0.0395
  247loPI   C3A 3945  12.226  12.686   8.909  0.1718  0.0315  0.3288
  247loPI   C4A 3946  12.247  12.653   8.499 -0.1260 -0.1748  0.0573
  247loPI   C5A 3947  12.224  12.326   8.138  0.1732 -0.0822 -0.2050
  247loPI   C6A 3948  12.016  11.880   8.130  0.0707 -0.1447  0.1382
  247loPI   C1B 3949  11.664  11.749   9.063 -0.1224 -0.0936 -0.1470
  247loPI   C2B 3950  11.501  11.988   8.780 -0.1078 -0.1643  0.3082
  247loPI   C3B 3951  11.287  12.320   8.840 -0.1060  0.4276 -0.0103
  247loPI   C4B 3952  11.262  12.686   8.567  0.3288 -0.0721 -0.3357
  248loPI    C1 3953   1.339   6.987  10.833  0.0529  0.2686 -0.0207
  248loPI    C2 3954   1.731   7.057  10.796  0.0710  0.0002 -0.3998
  248loPI    C3 3955   1.601   6.771  11.043  0.0973  0.2233 -0.1219
  248loPI   PO4 3956   1.206   7.029  10.470  0.1093  0.2580  0.0876
  248loPI   GL1 3957   0.962   6.861  10.072  0.0211 -0.2836  0.1127
  248loPI   GL2 3958   0.945   6.613   9.832 -0.0871  0.0003  0.3041
  248loPI   C1A 3959   0.775   7.095   9.672 -0.0896  0.1406  0.1158
  248loPI   C2A 3960   0.387   7.390   9.490 -0.3712  0.0709 -0.0618
  248loPI   C3A 3961   0.254   7.409   9.108  0.0841 -0.1006 -0.1980
  248loPI   C4A 3962   0.337   7.498   8.679 -0.5217  0.1407 -0.1355
  248loPI   C5A 3963   0.582   7.615   8.351  0.1607 -0.1621 -0.1706
  248loPI   C6A 3964   0.615   7.943   8.075 -0.1291 -0.1855  0.3220
  248loPI   C1B 3965   0.871   6.741   9.319 -0.1010 -0.0052 -0.0940
  248loPI   C2B 3966   0.990   6.684   8.900 -0.3236 -0.0254  0.1235
  248loPI   C3B 3967   1.175   6.740   8.523  0.2800 -0.0284 -0.0441
  248loPI   C4B 3968   1.370   6.999   8.303 -0.0519  0.0395  0.2637
  249loPI    C1 3969   9.974  13.189  10.378 -0.1610  0.1616  0.1324
  249loPI    C2 3970   9.682  13.027  10.598 -0.0670  0.1242  0.2303
  249loPI    C3 3971  10.038  13.104  10.764  0.0299  0.0233  0.0720
  249loPI   PO4 3972  10.040  13.070  10.160 -0.0528 -0.1630  0.0479
  249loPI   GL1 3973   9.994  12.857   9.838 -0.1026 -0.0397 -0.2491
  249loPI   GL2 3974   9.724  12.938   9.667 -0.2878 -0.0188 -0.1107
  249loPI   C1A 3975  10.236  12.867   9.564  0.0672 -0.0345 -0.0409
  249loPI   C2A 3976  10.294  13.014   9.181  0.1433 -0.1305  0.3248
  249loPI   C3A 3977  10.406  12.903   8.795  0.3715  0.0341 -0.1368
  249loPI   C4A 3978  10.328  12.747   8.507 -0.0592  0.1579  0.0029
  249loPI   C5A 3979  10.437  12.619   8.163 -0.0309 -0.2456 -0.0477
  249loPI   C6A 3980  10.401  12.917   7.721 -0.0474 -0.1125  0.2414
  249loPI   C1B 3981   9.883  13.240   9.446 -0.4375  0.2937  0.0223
  249loPI   C2B 3982   9.857  13.073   8.971  0.1300  0.1142  0.2539
  249loPI   C3B 3983   9.763  13.065   8.520 -0.2000 -0.1852 -0.4682
  249loPI   C4B 3984   9.534  12.997   8.086 -0.0000 -0.1825  0.0798
  250loPI    C1 3985   8.815  13.297  10.372 -0.1187 -0.1664 -0.0238
  250loPI    C2 3986   8.779  13.402  10.757  0.1438 -0.3061  0.0415
  250loPI    C3 3987   8.992  13.630  10.506 -0.2064 -0.0986 -0.0752
  250loPI   PO4 3988   8.560  13.157  10.277  0.0851  0.0217  0.1882
  250loPI   GL1 3989   8.467  13.239   9.820 -0.1975 -0.0122  0.1071
  250loPI   GL2 3990   8.754  13.075   9.808  0.1500 -0.2029  0.0886
  250loPI   C1A 3991   8.428  13.565   9.456  0.1066 -0.2510  0.1088
  250loPI   C2A 3992   8.236  13.824   9.132  0.0266  0.2121 -0.0153
  250loPI   C3A 3993   8.023  13.771   8.740  0.3275  0.1831 -0.0791
  250loPI   C4A 3994   7.857  13.677   8.313 -0.0870 -0.3471 -0.2058
  250loPI   C5A 3995   7.641  13.408   8.116 -0.1117 -0.2182 -0.0058
  250loPI   C6A 3996   7.235  13.177   8.025 -0.0157 -0.0449 -0.1645
  250loPI   C1B 3997   8.878  13.226   9.439  0.0820 -0.0250  0.2102
  250loPI   C2B 3998   8.688  13.437   9.083  0.0300  0.1423  0.1350
  250loPI   C3B 3999   8.780  13.347   8.687 -0.0149  0.2441  0.2125
  250loPI   C4B 4000   8.652  13.342   8.270  0.0742  0.2132  0.0573
  251loPI    C1 4001   2.942  12.767  10.494 -0.1300 -0.1702  0.0413
  251loPI    C2 4002   3.302  12.772  10.668 -0.0593  0.0483 -0.1079
  251loPI    C3 4003   3.032  12.498  10.777  0.0539  0.0556  0.2012
  251loPI   PO4 4004   2.989  12.781  10.258  0.1746  0.4799 -0.2037
  251loPI   GL1 4005   2.763  12.681   9.910  0.2695 -0.3656 -0.3392
  251loPI   GL2 4006   2.716  13.035   9.798  0.0322 -0.1377 -0.1808
  251loPI   C1A 4007   2.818  12.431   9.419  0.0506  0.0655  0.1734
  251loPI   C2A 4008   2.728  12.478   8.930 -0.0178  0.1071  0.0633
  251loPI   C3A 4009   2.792  12.434   8.473  0.1699 -0.0283 -0.0349
  251loPI   C4A 4010   2.703  12.481   8.054  0.0952 -0.2709  0.1533
  251loPI   C5A 4011   2.762  12.704   7.687 -0.0868  0.4354 -0.1545
  251loPI   C6A 4012   2.684  12.954   7.390 -0.1856 -0.0723 -0.1626
  251loPI   C1B 4013   2.621  12.951   9.320 -0.1216  0.0200 -0.1203
  251loPI   C2B 4014   2.598  12.977   8.896  0.0525 -0.1610 -0.0701
  251loPI   C3B 4015   2.636  12.910   8.539  0.2069  0.1410 -0.0911
  251loPI   C4B 4016   2.662  12.982   8.187  0.0286 -0.1017  0.0802
  252loPI    C1 4017   1.900  15.854  10.809 -0.2680 -0.0464  0.3423
  252loPI    C2 4018   2.123  16.071  11.060 -0.0388 -0.0175  0.1181
  252loPI    C3 4019   2.293  15.785  10.838 -0.1770  0.1699 -0.2372
  252loPI   PO4 4020   1.788  16.059  10.619 -0.1297 -0.5420  0.1252
  252loPI   GL1 4021   1.692  16.156  10.243  0.2223 -0.2526  0.1031
  252loPI   GL2 4022   1.634  16.521  10.101 -0.0491  0.0436 -0.0510
  252loPI   C1A 4023   1.616  16.096   9.834  0.4048 -0.1299  0.1347
  252loPI   C2A 4024   1.777  16.277   9.462 -0.2696 -0.2245 -0.0031
  252loPI   C3A 4025   1.710  16.288   9.051  0.1224 -0.0937 -0.1679
  252loPI   C4A 4026   1.607  16.216   8.601  0.0985 -0.0993  0.1242
  252loPI   C5A 4027   1.581  16.097   8.140  0.2313 -0.0759  0.2348
  252loPI   C6A 4028   1.570  16.390   7.799  0.2082 -0.1522  0.0550
  252loPI   C1B 4029   1.649  16.727   9.649 -0.0063 -0.0820  0.0022
  252loPI   C2B 4030   1.660  16.831   9.321 -0.0253  0.1899  0.0987
  252loPI   C3B 4031   1.564  16.738   8.930  0.2553 -0.2283 -0.0152
  252loPI   C4B 4032   1.453  16.733   8.430 -0.2816  0.1186  0.0065
  253loPI    C1 4033  10.177   6.511  11.073 -0.0568 -0.0083  0.0102
  253loPI    C2 4034  10.543   6.500  11.233  0.0591  0.1986 -0.2325
  253loPI    C3 4035  10.277   6.214  11.321  0.2309  0.1230  0.0549
  253loPI   PO4 4036  10.209   6.735  10.866 -0.1735  0.1199  0.2305
  253loPI   GL1 4037  10.153   6.738  10.484 -0.0490  0.1876 -0.1675
  253loPI   GL2 4038  10.450   6.653  10.286  0.0076  0.2072 -0.1709
  253loPI   C1A 4039  10.223   7.044  10.072  0.1554 -0.0432 -0.2119
  253loPI   C2A 4040  10.298   7.073   9.623  0.0412  0.0740  0.3115
  253loPI   C3A 4041  10.288   7.045   9.150  0.1837 -0.2223  0.3745
  253loPI   C4A 4042  10.272   7.048   8.703 -0.3334 -0.0026 -0.0521
  253loPI   C5A 4043  10.388   7.121   8.291  0.0033 -0.0591 -0.0817
  253loPI   C6A 4044  10.390   6.880   7.868  0.0317  0.0962  0.3115
  253loPI   C1B 4045  10.489   6.651   9.798 -0.0114  0.0793 -0.1270
  253loPI   C2B 4046  10.440   6.590   9.309  0.0604  0.0134  0.2712
  253loPI   C3B 4047  10.498   6.616   8.907  0.0850  0.1164  0.2064
  253loPI   C4B 4048  10.498   6.627   8.479 -0.0423 -0.2665 -0.0007
  254loPI    C1 4049  15.246   2.591  10.635 -0.0082 -0.2384  0.0323
  254loPI    C2 4050  15.494   2.543  10.945 -0.0572 -0.1024  0.0938
  254loPI    C3 4051  15.119   2.666  11.007  0.0043  0.1587 -0.0392
  254loPI   PO4 4052  15.464   2.687  10.445 -0.0557  0.1137  0.2278
  254loPI   GL1 4053  15.448   2.893   9.999 -0.2081 -0.0512 -0.0751
  254loPI   GL2 4054  15.235   2.793   9.930  0.2825  0.3632 -0.3059
  254loPI   C1A 4055  15.549   3.144   9.640 -0.0681  0.2498  0.0550
  254loPI   C2A 4056  15.597   3.004   9.158  0.2958 -0.1955 -0.0170
  254loPI   C3A 4057  15.777   2.673   9.022  0.0239 -0.1600 -0.0548
  254loPI   C4A 4058  15.940   2.356   8.704  0.3589  0.3377 -0.0082
  254loPI   C5A 4059  16.308   2.180   8.526 -0.2146 -0.1047 -0.0211
  254loPI   C6A 4060  16.498   1.798   8.365 -0.0272 -0.3390  0.3542
  254loPI   C1B 4061  15.352   2.702   9.469  0.3014  0.0022  0.0266
  254loPI   C2B 4062  15.243   2.608   9.006  0.0180  0.0691 -0.2959
  254loPI   C3B 4063  15.291   2.448   8.600 -0.1149  0.0030  0.0201
  254loPI   C4B 4064  15.390   2.541   8.219  0.1150 -0.1270  0.1474
  255loPI    C1 4065   2.506  18.009  10.445  0.1987 -0.0732 -0.0573
  255loPI    C2 4066   2.815  17.811  10.602  0.1123  0.0008  0.2118
  255loPI    C3 4067   2.482  17.864  10.817  0.0130  0.1553  0.0226
  255loPI   PO4 4068   2.584  18.083  10.210  0.1982 -0.0595 -0.0742
  255loPI   GL1 4069   2.739  17.885   9.909  0.0379  0.1718 -0.1757
  255loPI   GL2 4070   2.898  18.016   9.716 -0.0940  0.0527 -0.1487
  255loPI   C1A 4071   2.403  17.982   9.600 -0.0807  0.3075  0.2407
  255loPI   C2A 4072   2.355  17.976   9.150  0.4199  0.0127  0.2459
  255loPI   C3A 4073   2.272  17.958   8.788  0.0638 -0.0106  0.0481
  255loPI   C4A 4074   2.180  17.964   8.329  0.0761 -0.2375  0.2067
  255loPI   C5A 4075   2.142  17.908   7.900 -0.0299 -0.0313 -0.3025
  255loPI   C6A 4076   2.101  17.530   7.676  0.0966  0.2363  0.2306
  255loPI   C1B 4077   2.836  17.847   9.345  0.4342 -0.1238 -0.0073
  255loPI   C2B 4078   2.751  17.866   8.896  0.1017  0.2632  0.1194
  255loPI   C3B 4079   2.652  17.896   8.473  0.1562  0.1469 -0.0598
  255loPI   C4B 4080   2.620  17.790   8.006 -0.2007 -0.1084  0.0877
  256loPI    C1 4081  18.694  15.515  10.450  0.2303  0.0265 -0.2569
  256loPI    C2 4082  18.439  15.454  10.752  0.1107 -0.0062 -0.3640
  256loPI    C3 4083  18.755  15.694  10.803 -0.0509  0.1938 -0.2909
  256loPI   PO4 4084  18.494  15.615  10.260 -0.0362  0.2962  0.0262
  256loPI   GL1 4085  18.227  15.645   9.900 -0.0669  0.2475 -0.1961
  256loPI   GL2 4086  17.937  15.744   9.689 -0.4365 -0.2273 -0.2754
  256loPI   C1A 4087  18.298  15.562   9.490 -0.1597  0.0632 -0.1407
  256loPI   C2A 4088  18.273  15.665   9.076 -0.0796  0.0027 -0.1678
  256loPI   C3A 4089  18.244  15.636   8.701 -0.2171 -0.1808  0.2197
  256loPI   C4A 4090  18.155  15.636   8.278  0.3568  0.1807 -0.0864
  256loPI   C5A 4091  18.270  15.910   8.048  0.0046  0.0868 -0.0042
  256loPI   C6A 4092  18.515  16.257   7.955  0.2446  0.1390 -0.1116
  256loPI   C1B 4093  17.943  15.918   9.285 -0.0418 -0.0229  0.0058
  256loPI   C2B 4094  17.787  15.870   8.914 -0.0747 -0.1784  0.1883
  256loPI   C3B 4095  17.693  15.832   8.549 -0.0073  0.1392 -0.0680
  256loPI   C4B 4096  17.780  16.054   8.143  0.0502  0.3431 -0.2262
  257loPI    C1 4097  15.156   1.251  10.371  0.0304  0.2752  0.0991
  257loPI    C2 4098  14.830   1.252  10.139  0.1972 -0.0598 -0.1457
  257loPI    C3 4099  14.800   1.345  10.527 -0.1632  0.0509 -0.1964
  257loPI   PO4 4100  15.335   1.117  10.196 -0.0898 -0.0572  0.1705
  257loPI   GL1 4101  15.375   1.169   9.856 -0.0824  0.2393  0.2842
  257loPI   GL2 4102  15.309   1.573   9.935 -0.0831  0.2711 -0.0016
  257loPI   C1A 4103  15.614   1.318   9.564  0.1629 -0.1456  0.0501
  257loPI   C2A 4104  15.864   1.493   9.281 -0.1940  0.2949  0.0243
  257loPI   C3A 4105  16.198   1.434   8.953 -0.2536  0.1503  0.4000
  257loPI   C4A 4106  16.491   1.823   8.931  0.1249  0.1677 -0.0463
  257loPI   C5A 4107  16.864   1.979   8.783  0.2591  0.1445 -0.0848
  257loPI   C6A 4108  17.098   2.332   8.797  0.0407 -0.2775 -0.1946
  257loPI   C1B 4109  15.129   1.480   9.540 -0.2844  0.1672 -0.0046
  257loPI   C2B 4110  14.938   1.164   9.273  0.2560 -0.0488 -0.2565
  257loPI   C3B 4111  15.041   0.902   8.902  0.0681  0.2364 -0.0088
  257loPI   C4B 4112  15.111   0.669   8.461 -0.1903  0.0978  0.0279
  258loPI    C1 4113   8.266  17.833  10.154  0.4067  0.3407 -0.1689
  258loPI    C2 4114   8.467  18.008  10.452  0.0982 -0.1877  0.3713
  258loPI    C3 4115   8.067  18.010  10.453  0.0918 -0.1110 -0.1011
  258loPI   PO4 4116   8.312  17.905   9.959 -0.2627 -0.0913  0.1569
  258loPI   GL1 4117   8.280  18.197   9.657  0.2320 -0.0439 -0.1094
  258loPI   GL2 4118   8.326  18.547   9.600 -0.0519 -0.2718  0.1255
  258loPI   C1A 4119   8.415  18.157   9.313  0.1229 -0.0492  0.1829
  258loPI   C2A 4120   8.499  18.210   8.798  0.0139  0.2323 -0.4065
  258loPI   C3A 4121   8.550  18.033   8.444  0.0543  0.2001 -0.1224
  258loPI   C4A 4122   8.614  18.306   8.060  0.0673  0.0681  0.1047
  258loPI   C5A 4123   8.740  18.668   7.737  0.0897 -0.0776  0.0168
  258loPI   C6A 4124   8.707  18.981   7.461 -0.4185  0.0703 -0.0238
  258loPI   C1B 4125   8.264  18.662   9.193 -0.0645 -0.0481 -0.2083
  258loPI   C2B 4126   7.956  18.711   8.751  0.1588  0.0079  0.1514
  258loPI   C3B 4127   7.736  18.363   8.389 -0.0678 -0.0837 -0.1772
  258loPI   C4B 4128   7.616  18.204   8.055 -0.3340  0.0244  0.0510
  259loPI    C1 4129  15.155   5.213  10.835  0.1004  0.0429  0.0033
  259loPI    C2 4130  14.941   5.227  10.497 -0.0916 -0.0553  0.1186
  259loPI    C3 4131  15.083   5.565  10.658  0.1276 -0.0216 -0.1370
  259loPI   PO4 4132  15.424   5.107  10.687 -0.2124 -0.2216  0.0640
  259loPI   GL1 4133  15.594   5.285  10.387 -0.0890 -0.0442 -0.4012
  259loPI   GL2 4134  15.429   5.394  10.248  0.1285  0.0456  0.1307
  259loPI   C1A 4135  15.754   5.066  10.067  0.1119  0.0781 -0.1278
  259loPI   C2A 4136  15.768   4.933   9.700  0.1928  0.1852  0.2178
  259loPI   C3A 4137  15.735   4.868   9.173  0.6579 -0.2092 -0.1717
  259loPI   C4A 4138  15.877   4.941   8.826  0.0914  0.1368  0.0983
  259loPI   C5A 4139  16.009   5.167   8.287 -0.0733 -0.5260 -0.1167
  259loPI   C6A 4140  15.802   5.470   8.116 -0.0109 -0.0251 -0.2326
  259loPI   C1B 4141  15.523   5.428   9.857 -0.1254  0.1538  0.1401
  259loPI   C2B 4142  15.531   5.308   9.460  0.1152  0.0327 -0.0028
  259loPI   C3B 4143  15.501   5.250   9.005 -0.0565  0.2519 -0.1312
  259loPI   C4B 4144  15.558   5.246   8.567  0.4998 -0.1017  0.0086
  260loPI    C1 4145  13.529   9.578  11.247  0.2244  0.1427 -0.1919
  260loPI    C2 4146  13.781   9.290  11.363  0.1011  0.0547 -0.1417
  260loPI    C3 4147  13.754   9.629  11.573  0.1582  0.0531 -0.1319
  260loPI   PO4 4148  13.512   9.580  10.946 -0.0745  0.1240  0.2502
  260loPI   GL1 4149  13.441   9.452  10.575  0.1128  0.0707 -0.2255
  260loPI   GL2 4150  13.641   9.261  10.343 -0.2971  0.0687 -0.0004
  260loPI   C1A 4151  13.236   9.569  10.173  0.0716  0.2724  0.1463
  260loPI   C2A 4152  13.016   9.632   9.714 -0.0318 -0.1379 -0.1017
  260loPI   C3A 4153  13.074   9.659   9.317 -0.0153  0.2554  0.1224
  260loPI   C4A 4154  13.416   9.516   9.040 -0.1306 -0.4874  0.0025
  260loPI   C5A 4155  13.670   9.607   8.758 -0.0973 -0.0306 -0.0451
  260loPI   C6A 4156  14.079   9.535   8.468 -0.2897 -0.1260 -0.0841
  260loPI   C1B 4157  13.510   9.097   9.954  0.0465 -0.0894  0.1821
  260loPI   C2B 4158  13.255   9.091   9.566  0.0196  0.0812  0.1913
  260loPI   C3B 4159  13.256   9.035   9.039 -0.0215  0.1491  0.0261
  260loPI   C4B 4160  13.252   8.921   8.662 -0.0383  0.1291  0.1716
  261loPI    C1 4161  -0.104   4.825  10.711 -0.0911  0.0326  0.0794
  261loPI    C2 4162   0.264   4.983  10.726 -0.1149  0.0969 -0.0033
  261loPI    C3 4163  -0.055   5.211  10.806 -0.1433  0.0670 -0.0310
  261loPI   PO4 4164  -0.052   4.717  10.481  0.3303  0.1806  0.0574
  261loPI   GL1 4165   0.112   5.004  10.143  0.0829 -0.1087 -0.0544
  261loPI   GL2 4166   0.183   4.730   9.999 -0.3113 -0.0101  0.0740
  261loPI   C1A 4167   0.160   5.092   9.609 -0.0445  0.2185  0.1108
  261loPI   C2A 4168   0.322   5.118   9.195 -0.1138 -0.0437  0.2076
  261loPI   C3A 4169   0.294   5.371   8.837  0.0909 -0.2450  0.1892
  261loPI   C4A 4170   0.183   5.251   8.483  0.1612  0.1877 -0.2977
  261loPI   C5A 4171   0.032   5.137   8.086 -0.1578  0.0050 -0.0244
  261loPI   C6A 4172  -0.350   5.151   7.871  0.2551  0.0258 -0.2494
  261loPI   C1B 4173  -0.019   4.634   9.533 -0.2605  0.0339  0.0319
  261loPI   C2B 4174  -0.049   4.703   9.177 -0.2145 -0.1567  0.0984
  261loPI   C3B 4175  -0.131   4.796   8.774  0.2229 -0.0138  0.0347
  261loPI   C4B 4176  -0.285   4.978   8.453  0.2172  0.1042 -0.0471
  262loPI    C1 4177  18.329  14.788  10.571  0.1786  0.1499  0.1039
  262loPI    C2 4178  18.119  15.066  10.767  0.0939  0.0547  0.1494
  262loPI    C3 4179  18.048  14.678  10.834  0.0995  0.0214 -0.0333
  262loPI   PO4 4180  18.543  15.008  10.450 -0.1214 -0.0298 -0.0563
  262loPI   GL1 4181  18.769  15.197  10.090  0.2013 -0.0284 -0.0071
  262loPI   GL2 4182  18.613  15.360   9.833 -0.0117  0.2301  0.1678
  262loPI   C1A 4183  18.830  14.919   9.682  0.1229 -0.0018 -0.0085
  262loPI   C2A 4184  18.780  14.885   9.249 -0.0764  0.0285  0.2096
  262loPI   C3A 4185  18.796  14.973   8.744  0.3303 -0.0232 -0.2051
  262loPI   C4A 4186  18.736  14.892   8.282  0.1586  0.2383  0.1614
  262loPI   C5A 4187  18.442  14.858   7.978  0.0229  0.2802 -0.0562
  262loPI   C6A 4188  18.565  14.645   7.565 -0.1975 -0.0023 -0.2487
  262loPI   C1B 4189  18.812  15.498   9.470  0.2538  0.0116 -0.0595
  262loPI   C2B 4190  18.785  15.429   8.976  0.1051  0.0182 -0.1809
  262loPI   C3B 4191  18.731  15.436   8.618 -0.1621  0.0435 -0.1007
  262loPI   C4B 4192  18.539  15.374   8.225  0.0147  0.2681  0.1088
  263loPI    C1 4193   2.542  10.742  10.562  0.0090  0.0874  0.1107
  263loPI    C2 4194   2.760  10.792  10.894  0.0825  0.2865  0.0342
  263loPI    C3 4195   2.723  10.428  10.731  0.0915  0.1976  0.2286
  263loPI   PO4 4196   2.592  10.886  10.413  0.2327 -0.2397  0.1801
  263loPI   GL1 4197   2.637  11.058  10.038 -0.0314  0.2289 -0.2092
  263loPI   GL2 4198   2.320  10.927   9.938 -0.3767  0.1914 -0.1614
  263loPI   C1A 4199   2.534  11.102   9.524  0.5004  0.1955  0.0737
  263loPI   C2A 4200   2.542  11.150   9.133 -0.2361  0.1583 -0.0894
  263loPI   C3A 4201   2.428  11.126   8.735 -0.0206  0.1958  0.1187
  263loPI   C4A 4202   2.441  11.096   8.200 -0.0664  0.2103  0.0109
  263loPI   C5A 4203   2.786  10.909   8.070 -0.0653 -0.1408  0.0220
  263loPI   C6A 4204   2.988  10.604   7.894  0.0300 -0.2317  0.0864
  263loPI   C1B 4205   2.194  10.740   9.680  0.1067 -0.0752  0.0857
  263loPI   C2B 4206   2.136  10.835   9.291 -0.0425 -0.0054 -0.0007
  263loPI   C3B 4207   2.056  10.850   8.847  0.2036 -0.1201  0.2412
  263loPI   C4B 4208   2.051  10.766   8.366 -0.1156  0.0541 -0.1249
  264loPI    C1 4209  16.564   7.485  10.889  0.3103  0.1620  0.0210
  264loPI    C2 4210  16.394   7.388  11.238  0.2691 -0.1590 -0.0855
  264loPI    C3 4211  16.756   7.557  11.232  0.1270  0.1603  0.1252
  264loPI   PO4 4212  16.510   7.411  10.761  0.0354 -0.3500  0.1563
  264loPI   GL1 4213  16.139   7.450  10.543 -0.0869  0.0130  0.2383
  264loPI   GL2 4214  16.196   7.728  10.366  0.3388  0.1791 -0.0203
  264loPI   C1A 4215  16.178   7.237  10.152 -0.1091 -0.0772 -0.1418
  264loPI   C2A 4216  16.191   7.274   9.752 -0.0665 -0.1122 -0.0748
  264loPI   C3A 4217  16.286   7.137   9.315  0.0236 -0.2634  0.0601
  264loPI   C4A 4218  16.212   7.072   8.820 -0.1534  0.0466 -0.1305
  264loPI   C5A 4219  16.158   6.991   8.393  0.1096  0.0662 -0.4016
  264loPI   C6A 4220  16.501   6.749   8.189  0.1090 -0.2361 -0.1791
  264loPI   C1B 4221  16.017   7.741   9.988  0.1244 -0.0795  0.0256
  264loPI   C2B 4222  15.959   7.656   9.485  0.3082 -0.1084 -0.1551
  264loPI   C3B 4223  16.022   7.501   9.051 -0.1929  0.0622  0.2144
  264loPI   C4B 4224  16.048   7.506   8.664  0.0455 -0.1877  0.2449
  265loPI    C1 4225  13.056  12.132  10.536 -0.1586  0.0442  0.0607
  265loPI    C2 4226  13.001  11.918  10.869 -0.0422  0.2874  0.2392
  265loPI    C3 4227  13.349  11.897  10.673 -0.1663  0.0225  0.0402
  265loPI   PO4 4228  12.841  12.178  10.390 -0.1819 -0.2373  0.3525
  265loPI   GL1 4229  12.982  12.514  10.103 -0.2867  0.0952  0.1254
  265loPI   GL2 4230  13.207  12.703  10.018  0.1408 -0.1922 -0.1321
  265loPI   C1A 4231  13.171  12.470   9.631 -0.1114  0.1925 -0.0919
  265loPI   C2A 4232  13.109  12.358   9.114  0.0459  0.1359  0.1221
  265loPI   C3A 4233  13.138  12.253   8.655 -0.3313 -0.1586 -0.0425
  265loPI   C4A 4234  13.059  12.255   8.179  0.1752 -0.0165 -0.0211
  265loPI   C5A 4235  13.064  12.069   7.771 -0.0446  0.1244 -0.1572
  265loPI   C6A 4236  13.278  12.141   7.448  0.2122 -0.0928 -0.0863
  265loPI   C1B 4237  13.508  12.791   9.877  0.1951 -0.0821 -0.0085
  265loPI   C2B 4238  13.724  12.806   9.515 -0.0018  0.0521 -0.0865
  265loPI   C3B 4239  14.029  13.016   9.305  0.1042  0.3509 -0.0365
  265loPI   C4B 4240  14.338  13.216   9.158 -0.1750 -0.2520 -0.0118
  266loPI    C1 4241   1.743   6.452  10.097 -0.0557 -0.1705  0.0250
  266loPI    C2 4242   1.451   6.723  10.060 -0.0214 -0.1761 -0.3163
  266loPI    C3 4243   1.691   6.730  10.380 -0.1400  0.0783 -0.2306
  266loPI   PO4 4244   1.815   6.418   9.941  0.2346  0.0051 -0.0996
  266loPI   GL1 4245   1.511   6.594   9.629  0.1351 -0.2212 -0.1082
  266loPI   GL2 4246   1.299   6.291   9.767  0.2141 -0.0734  0.0717
  266loPI   C1A 4247   1.345   6.540   9.241  0.0337  0.0784 -0.0378
  266loPI   C2A 4248   1.274   6.283   8.818  0.0179 -0.2229 -0.1512
  266loPI   C3A 4249   1.148   6.098   8.424  0.0715  0.1460 -0.0498
  266loPI   C4A 4250   1.004   6.185   8.140  0.1204  0.0781 -0.2711
  266loPI   C5A 4251   1.084   5.886   7.796 -0.2066  0.1749 -0.0247
  266loPI   C6A 4252   1.437   5.620   7.811  0.0428  0.2706  0.0105
  266loPI   C1B 4253   1.548   6.147   9.416 -0.0796  0.1141 -0.0728
  266loPI   C2B 4254   1.643   5.860   9.057  0.2054  0.0784  0.3096
  266loPI   C3B 4255   1.509   5.853   8.691  0.2034  0.1324 -0.1627
  266loPI   C4B 4256   1.603   6.019   8.241 -0.0274  0.1701 -0.1971
  267loPI    C1 4257   2.997   5.336  10.349  0.1053  0.0404 -0.0317
  267loPI    C2 4258   3.175   5.462  10.685 -0.0313  0.2954 -0.0528
  267loPI    C3 4259   2.806   5.308  10.699  0.1009 -0.0278 -0.0394
  267loPI   PO4 4260   3.153   5.219  10.138  0.1314 -0.2132  0.3064
  267loPI   GL1 4261   3.221   5.062   9.764  0.0128 -0.0817  0.2127
  267loPI   GL2 4262   3.384   5.287   9.625 -0.1287  0.0070  0.0068
  267loPI   C1A 4263   3.156   4.746   9.465 -0.0052 -0.0597  0.0272
  267loPI   C2A 4264   3.269   4.605   9.030 -0.1616  0.2874  0.2940
  267loPI   C3A 4265   3.225   4.630   8.584 -0.0513  0.1104  0.2270
  267loPI   C4A 4266   3.297   4.567   8.192 -0.2127  0.0298  0.0290
  267loPI   C5A 4267   3.349   4.381   7.871  0.1968  0.3550 -0.0689
  267loPI   C6A 4268   3.101   4.307   7.523 -0.1301  0.0646  0.0967
  267loPI   C1B 4269   3.317   5.182   9.178 -0.2331  0.1793  0.0235
  267loPI   C2B 4270   3.305   5.132   8.783  0.1322  0.0335  0.1179
  267loPI   C3B 4271   3.363   5.122   8.382  0.0403 -0.1193 -0.1378
  267loPI   C4B 4272   3.399   5.144   7.917  0.0872  0.3418 -0.0377
  268loPI    C1 4273   1.303  13.017  10.497  0.0683  0.0354  0.0431
  268loPI    C2 4274   1.275  13.013  10.896 -0.0075  0.1403  0.0393
  268loPI    C3 4275   0.946  12.973  10.672  0.0549 -0.0912 -0.0146
  268loPI   PO4 4276   1.400  13.278  10.437 -0.2250 -0.2836 -0.0403
  268loPI   GL1 4277   1.186  13.409  10.188  0.0204  0.0648  0.3347
  268loPI   GL2 4278   0.882  13.340  10.296  0.0631  0.1517  0.0769
  268loPI   C1A 4279   1.203  13.542   9.787  0.3163 -0.2893 -0.0257
  268loPI   C2A 4280   1.251  13.569   9.389  0.2877 -0.2561 -0.1269
  268loPI   C3A 4281   1.160  13.518   8.951  0.0505 -0.0405 -0.2111
  268loPI   C4A 4282   1.259  13.404   8.514 -0.2856  0.3904  0.2102
  268loPI   C5A 4283   1.134  13.352   8.146 -0.0635  0.0290 -0.0203
  268loPI   C6A 4284   0.906  13.402   7.645  0.0135  0.3054 -0.2028
  268loPI   C1B 4285   0.827  13.225   9.924  0.1657 -0.0509 -0.0895
  268loPI   C2B 4286   0.798  13.174   9.517 -0.0419 -0.0262  0.3488
  268loPI   C3B 4287   0.667  13.284   9.045 -0.1448 -0.0970  0.2547
  268loPI   C4B 4288   0.825  13.186   8.557  0.1484 -0.0146  0.2548
  269loPI    C1 4289   7.062  10.758  10.808 -0.0249  0.1509  0.1790
  269loPI    C2 4290   6.709  10.571  10.828  0.0714 -0.0498  0.0425
  269loPI    C3 4291   6.901  10.672  11.164 -0.0330 -0.0976  0.1173
  269loPI   PO4 4292   7.161  10.634  10.603 -0.1296  0.1418 -0.2854
  269loPI   GL1 4293   7.361  10.736  10.307 -0.2124  0.0928 -0.1790
  269loPI   GL2 4294   7.585  10.400  10.172  0.3131 -0.0288 -0.3064
  269loPI   C1A 4295   7.364  10.778   9.930 -0.0556  0.1436 -0.2366
  269loPI   C2A 4296   7.706  10.586   9.659  0.0307  0.2897 -0.3755
  269loPI   C3A 4297   7.860  10.534   9.188  0.1816 -0.1604  0.1460
  269loPI   C4A 4298   7.876  10.690   8.774 -0.1769 -0.1795 -0.0627
  269loPI   C5A 4299   7.731  10.557   8.428  0.0550 -0.0178  0.0303
  269loPI   C6A 4300   7.660  10.476   7.988  0.0322 -0.2071  0.1003
  269loPI   C1B 4301   7.173  10.306   9.852  0.2237 -0.0854 -0.1679
  269loPI   C2B 4302   6.980  10.187   9.574 -0.2642 -0.1251 -0.1480
  269loPI   C3B 4303   6.899  10.189   9.139  0.2829 -0.0569  0.1679
  269loPI   C4B 4304   6.941  10.326   8.697 -0.0989 -0.0124 -0.2082
  270loPI    C1 4305  12.725   3.760  11.010 -0.1909 -0.0730 -0.0337
  270loPI    C2 4306  12.528   4.109  11.004  0.2176  0.1722  0.2622
  270loPI    C3 4307  12.652   3.955  11.352  0.0410 -0.2754  0.1347
  270loPI   PO4 4308  12.933   3.759  10.748 -0.1808 -0.0780 -0.0417
  270loPI   GL1 4309  12.920   4.057  10.520 -0.2618 -0.0861 -0.1713
  270loPI   GL2 4310  12.790   3.805  10.315 -0.2561 -0.2952  0.3353
  270loPI   C1A 4311  13.197   4.188  10.096 -0.2432 -0.1654 -0.1763
  270loPI   C2A 4312  13.214   4.160   9.607 -0.1125  0.0953 -0.0720
  270loPI   C3A 4313  13.159   4.286   9.185  0.2431 -0.0068  0.0360
  270loPI   C4A 4314  13.095   4.261   8.679  0.4005  0.2495  0.2461
  270loPI   C5A 4315  13.294   4.257   8.333  0.1346 -0.1014 -0.0092
  270loPI   C6A 4316  13.338   3.963   8.049  0.0161 -0.2231 -0.1652
  270loPI   C1B 4317  12.652   4.150   9.982  0.0704  0.1883  0.2225
  270loPI   C2B 4318  12.670   4.197   9.564 -0.2289  0.0391 -0.1887
  270loPI   C3B 4319  12.615   4.227   9.153  0.1752  0.2682 -0.0615
  270loPI   C4B 4320  12.619   4.223   8.764 -0.1373  0.1738 -0.1324
  271loPI    C1 4321   6.752   0.279  10.156  0.0061 -0.0224  0.1736
  271loPI    C2 4322   6.352   0.276  10.153  0.0060  0.0217 -0.0885
  271loPI    C3 4323   6.553  -0.046  10.279 -0.1115 -0.0091  0.0219
  271loPI   PO4 4324   6.746   0.485   9.930  0.1471  0.0227 -0.2296
  271loPI   GL1 4325   6.838   0.571   9.476  0.2029  0.2500  0.0447
  271loPI   GL2 4326   6.633   0.868   9.583  0.0692 -0.1193 -0.1094
  271loPI   C1A 4327   6.786   0.621   9.091 -0.0133 -0.0812  0.1866
  271loPI   C2A 4328   6.711   0.821   8.778  0.4304 -0.2872 -0.1626
  271loPI   C3A 4329   6.405   0.982   8.481 -0.1985 -0.1141  0.2384
  271loPI   C4A 4330   6.296   0.932   7.996 -0.1872 -0.1902  0.1520
  271loPI   C5A 4331   6.179   0.664   7.600  0.1301 -0.2391 -0.0415
  271loPI   C6A 4332   6.356   0.270   7.494  0.1714 -0.1891  0.1468
  271loPI   C1B 4333   6.564   1.017   9.206 -0.0764 -0.0830  0.0871
  271loPI   C2B 4334   6.426   1.369   8.938  0.0768 -0.2423  0.4217
  271loPI   C3B 4335   6.420   1.599   8.646 -0.3325 -0.3068  0.1374
  271loPI   C4B 4336   6.246   1.966   8.542 -0.1026 -0.2740 -0.0985
  272loPI    C1 4337   4.079  15.330  10.171  0.2230 -0.1496  0.0563
  272loPI    C2 4338   4.054  15.680  10.364 -0.2486 -0.0156 -0.2323
  272loPI    C3 4339   3.986  15.339  10.560  0.2729  0.0405  0.0650
  272loPI   PO4 4340   4.037  15.414   9.875  0.1917 -0.0665 -0.0573
  272loPI   GL1 4341   4.201  15.333   9.542  0.1878 -0.0492 -0.2413
  272loPI   GL2 4342   4.470  15.431   9.578  0.0528 -0.0354  0.1155
  272loPI   C1A 4343   4.050  15.317   9.178  0.0496 -0.0773 -0.0496
  272loPI   C2A 4344   4.117  15.197   8.738 -0.1418  0.0975 -0.2447
  272loPI   C3A 4345   4.047  15.343   8.305 -0.0529 -0.0661 -0.0148
  272loPI   C4A 4346   3.934  15.479   7.809  0.2778 -0.1504 -0.0442
  272loPI   C5A 4347   4.068  15.743   7.548 -0.1875  0.0673  0.3366
  272loPI   C6A 4348   4.381  16.051   7.417  0.0698 -0.1231 -0.2141
  272loPI   C1B 4349   4.523  15.539   9.162  0.0886 -0.0951  0.0637
  272loPI   C2B 4350   4.468  15.594   8.745  0.0981  0.2755 -0.2201
  272loPI   C3B 4351   4.454  15.831   8.389 -0.0067 -0.2973 -0.1634
  272loPI   C4B 4352   4.310  16.325   8.355  0.2975 -0.2002 -0.2522
  273loPI    C1 4353   1.552   7.702  10.275  0.0376  0.1361 -0.1212
  273loPI    C2 4354   1.914   7.828  10.387  0.1204 -0.0596 -0.1636
  273loPI    C3 4355   1.724   7.551  10.603 -0.0066  0.0453 -0.1393
  273loPI   PO4 4356   1.604   7.726  10.000 -0.0858  0.0138  0.1970
  273loPI   GL1 4357   1.834   7.434   9.800  0.2436 -0.1022  0.3164
  273loPI   GL2 4358   2.073   7.541   9.532 -0.3085 -0.1914 -0.0171
  273loPI   C1A 4359   1.471   7.143   9.594 -0.3103 -0.5779 -0.0306
  273loPI   C2A 4360   1.270   7.046   9.225  0.0994 -0.3176 -0.6064
  273loPI   C3A 4361   1.211   7.142   8.870  0.0461 -0.0791 -0.1936
  273loPI   C4A 4362   0.854   7.206   8.521  0.0427  0.1843 -0.2076
  273loPI   C5A 4363   0.764   7.052   8.133  0.2412  0.1275  0.3200
  273loPI   C6A 4364   0.967   6.691   8.054 -0.1148 -0.0126  0.0185
  273loPI   C1B 4365   2.156   7.484   9.047  0.4583 -0.0605  0.0161
  273loPI   C2B 4366   2.090   7.634   8.672  0.0417 -0.1463 -0.0793
  273loPI   C3B 4367   1.912   7.467   8.256 -0.0488  0.1173  0.1435
  273loPI   C4B 4368   1.800   7.803   7.927  0.0305 -0.2109  0.0086
  274loPI    C1 4369   0.447  17.772  10.157 -0.0524 -0.0467 -0.3544
  274loPI    C2 4370   0.319  18.130  10.033 -0.2421  0.1333  0.3198
  274loPI    C3 4371   0.072  17.888  10.234 -0.0379 -0.2761  0.0915
  274loPI   PO4 4372   0.588  17.692  10.004  0.0864 -0.1777 -0.0240
  274loPI   GL1 4373   0.744  17.728   9.583 -0.0372  0.2368  0.0195
  274loPI   GL2 4374   1.082  17.736   9.666  0.2415 -0.1360  0.1419
  274loPI   C1A 4375   0.633  17.675   9.114  0.1000  0.0661 -0.0717
  274loPI   C2A 4376   0.531  17.597   8.694  0.0526  0.0176 -0.1133
  274loPI   C3A 4377   0.452  17.574   8.351  0.1847 -0.0269 -0.0098
  274loPI   C4A 4378   0.390  17.509   7.823 -0.0590  0.1805 -0.0755
  274loPI   C5A 4379   0.157  17.070   7.418 -0.0084  0.1733 -0.2026
  274loPI   C6A 4380  -0.001  16.732   7.263  0.0759 -0.0932  0.0841
  274loPI   C1B 4381   1.061  17.508   9.243  0.0105  0.1871  0.1329
  274loPI   C2B 4382   1.012  17.443   8.813 -0.1572 -0.0499  0.0926
  274loPI   C3B 4383   0.951  17.468   8.411 -0.0683  0.0294  0.0402
  274loPI   C4B 4384   0.842  17.562   7.971  0.0365  0.0628 -0.1358
  275loPI    C1 4385  12.289  10.971  10.355 -0.1502 -0.0521  0.1889
  275loPI    C2 4386  12.660  11.083  10.453 -0.1479 -0.0035  0.1262
  275loPI    C3 4387  12.346  11.269  10.617 -0.1445  0.1236 -0.0095
  275loPI   PO4 4388  12.232  11.043  10.154  0.0393  0.1804 -0.1018
  275loPI   GL1 4389  12.445  11.080   9.842  0.0288 -0.0022  0.3861
  275loPI   GL2 4390  12.771  11.024   9.997  0.1860  0.2659  0.1917
  275loPI   C1A 4391  12.321  10.932   9.361 -0.2053 -0.1911 -0.1467
  275loPI   C2A 4392  12.368  10.891   8.852 -0.1685 -0.0667 -0.1541
  275loPI   C3A 4393  12.375  11.033   8.504 -0.3248  0.2466 -0.1396
  275loPI   C4A 4394  12.293  10.975   8.054 -0.1239  0.1522  0.0505
  275loPI   C5A 4395  12.197  11.086   7.659 -0.3477  0.3071  0.1178
  275loPI   C6A 4396  12.396  11.005   7.346  0.0034  0.0077 -0.1007
  275loPI   C1B 4397  12.850  10.930   9.560 -0.3571  0.0931 -0.4028
  275loPI   C2B 4398  12.845  10.865   9.068  0.0729 -0.0007 -0.1230
  275loPI   C3B 4399  12.825  10.796   8.623 -0.3085 -0.0273 -0.0795
  275loPI   C4B 4400  12.607  10.610   8.232  0.1554  0.0272 -0.1210
  276loPI    C1 4401   6.323  17.515  10.033 -0.1388  0.0758  0.1491
  276loPI    C2 4402   6.216  17.879  10.159 -0.1306  0.1341 -0.0113
  276loPI    C3 4403   5.971  17.568  10.216 -0.1685  0.1774  0.0634
  276loPI   PO4 4404   6.391  17.564   9.810 -0.1878  0.2995  0.1415
  276loPI   GL1 4405   6.465  17.621   9.499 -0.0505 -0.2372  0.1393
  276loPI   GL2 4406   6.256  17.788   9.354 -0.0483 -0.1607  0.1340
  276loPI   C1A 4407   6.743  17.773   9.099  0.2270 -0.0254  0.0534
  276loPI   C2A 4408   6.819  17.860   8.603 -0.2514 -0.2807 -0.1472
  276loPI   C3A 4409   6.817  18.277   8.479 -0.1639  0.3035  0.0366
  276loPI   C4A 4410   7.154  18.498   8.321 -0.3209  0.0079  0.2951
  276loPI   C5A 4411   7.370  18.662   7.954  0.2218  0.3245  0.1520
  276loPI   C6A 4412   7.269  18.922   7.554 -0.0122 -0.1500  0.0075
  276loPI   C1B 4413   6.269  17.637   8.877  0.0870  0.0632 -0.0258
  276loPI   C2B 4414   6.101  17.729   8.399  0.0144 -0.1331 -0.0132
  276loPI   C3B 4415   6.013  17.732   7.958 -0.1625 -0.2558  0.2057
  276loPI   C4B 4416   6.043  17.481   7.598  0.2248  0.2497  0.0269
  277loPI    C1 4417   3.839   7.934  10.630 -0.1783  0.2914  0.0558
  277loPI    C2 4418   3.676   7.752  10.947 -0.0443  0.0547 -0.0090
  277loPI    C3 4419   4.040   7.915  10.975 -0.0620  0.0964 -0.0209
  277loPI   PO4 4420   3.733   8.097  10.488 -0.1605 -0.0435  0.2126
  277loPI   GL1 4421   3.703   8.054  10.077  0.0994 -0.1862 -0.3455
  277loPI   GL2 4422   3.489   8.332   9.848  0.3073 -0.2642 -0.1001
  277loPI   C1A 4423   3.772   7.979   9.669 -0.0193 -0.1354 -0.0907
  277loPI   C2A 4424   3.936   7.693   9.410  0.5336 -0.1383  0.0122
  277loPI   C3A 4425   3.904   7.571   9.062 -0.0568 -0.1648  0.0653
  277loPI   C4A 4426   4.012   7.613   8.723 -0.1167  0.1118 -0.0507
  277loPI   C5A 4427   4.125   7.635   8.315  0.2185 -0.0006 -0.0496
  277loPI   C6A 4428   4.148   7.891   7.986 -0.1255  0.1564  0.0612
  277loPI   C1B 4429   3.520   8.459   9.437  0.2621 -0.1692  0.0852
  277loPI   C2B 4430   3.507   8.465   9.047  0.0535  0.0031 -0.2962
  277loPI   C3B 4431   3.352   8.508   8.599 -0.1147  0.1233 -0.2991
  277loPI   C4B 4432   3.153   8.533   8.183 -0.1471  0.1269 -0.0082
  278loPI    C1 4433  17.503   1.692  10.544  0.2040  0.0991  0.0674
  278loPI    C2 4434  17.704   1.942  10.784  0.1051  0.0900  0.1609
  278loPI    C3 4435  17.304   1.947  10.780  0.1041 -0.0040  0.0957
  278loPI   PO4 4436  17.677   1.695  10.339  0.0823  0.0803  0.0974
  278loPI   GL1 4437  18.033   1.784  10.062 -0.0721 -0.1487 -0.0778
  278loPI   GL2 4438  17.810   2.062   9.960  0.2365  0.2517 -0.1815
  278loPI   C1A 4439  18.022   1.695   9.673 -0.2139  0.0907 -0.1143
  278loPI   C2A 4440  18.000   1.407   9.383 -0.0034 -0.0271  0.1303
  278loPI   C3A 4441  17.989   1.398   8.993 -0.0830  0.2512 -0.0364
  278loPI   C4A 4442  17.728   1.302   8.720 -0.0358 -0.1573  0.2219
  278loPI   C5A 4443  17.393   1.236   8.346  0.1476  0.0517  0.1676
  278loPI   C6A 4444  16.991   1.551   8.361  0.0443 -0.1556 -0.2388
  278loPI   C1B 4445  17.593   2.320   9.669  0.1516  0.1859  0.2203
  278loPI   C2B 4446  17.749   2.265   9.293 -0.0231  0.0123  0.0713
  278loPI   C3B 4447  17.602   2.333   8.843 -0.3964 -0.2081  0.0519
  278loPI   C4B 4448  17.478   2.420   8.432  0.0724 -0.2332 -0.0554
  279loPI    C1 4449   3.423   3.124  10.341  0.1569  0.0705  0.0600
  279loPI    C2 4450   3.577   2.951  10.667  0.0118  0.0734  0.1313
  279loPI    C3 4451   3.819   3.119  10.396  0.1492 -0.1604  0.1058
  279loPI   PO4 4452   3.261   2.983  10.274  0.1615  0.0638  0.0341
  279loPI   GL1 4453   3.193   2.929   9.908 -0.1664  0.0774  0.0070
  279loPI   GL2 4454   3.345   2.757   9.660  0.1315 -0.0461 -0.1309
  279loPI   C1A 4455   2.916   3.023   9.622 -0.1012 -0.5064 -0.3431
  279loPI   C2A 4456   2.986   3.111   9.214 -0.0127 -0.3359  0.1571
  279loPI   C3A 4457   2.952   3.122   8.731  0.0288  0.0315 -0.1114
  279loPI   C4A 4458   3.049   3.079   8.360  0.1772 -0.2136 -0.0259
  279loPI   C5A 4459   3.059   3.108   7.843 -0.0296  0.0520  0.0298
  279loPI   C6A 4460   2.968   3.040   7.422 -0.1641  0.0078  0.1849
  279loPI   C1B 4461   3.368   2.810   9.272 -0.1210  0.0417 -0.0562
  279loPI   C2B 4462   3.371   2.733   8.793  0.0076  0.1132  0.2381
  279loPI   C3B 4463   3.470   2.813   8.383  0.1423  0.0644 -0.1204
  279loPI   C4B 4464   3.425   2.704   7.924  0.1243  0.2421 -0.0725
  280loPI    C1 4465  -0.010   3.414  10.505 -0.0597  0.0601  0.0030
  280loPI    C2 4466  -0.044   3.020  10.561 -0.2148  0.0553 -0.1179
  280loPI    C3 4467   0.159   3.242  10.824 -0.1098 -0.1074 -0.0597
  280loPI   PO4 4468  -0.004   3.399  10.219 -0.2251  0.1343  0.2049
  280loPI   GL1 4469  -0.065   3.358   9.822 -0.1526  0.2383 -0.2542
  280loPI   GL2 4470   0.112   3.589   9.716 -0.2093 -0.0503  0.0012
  280loPI   C1A 4471   0.443   3.218   9.647 -0.0352  0.1146 -0.1216
  280loPI   C2A 4472   0.586   3.195   9.254 -0.0857  0.0804 -0.2004
  280loPI   C3A 4473   0.771   3.053   8.805 -0.2923  0.0211  0.0073
  280loPI   C4A 4474   0.791   3.223   8.392  0.0428 -0.1150  0.0099
  280loPI   C5A 4475   0.624   3.308   8.031  0.0682  0.1545  0.1761
  280loPI   C6A 4476   0.320   3.419   7.739 -0.0441  0.0332 -0.0294
  280loPI   C1B 4477   0.256   3.578   9.299 -0.3198 -0.1742 -0.1210
  280loPI   C2B 4478   0.382   3.417   8.882 -0.3015  0.0840 -0.1051
  280loPI   C3B 4479   0.283   3.262   8.481 -0.2072 -0.0536 -0.0270
  280loPI   C4B 4480   0.124   3.429   8.164 -0.0207  0.2216  0.0551
  281loPI    C1 4481   7.863   9.741  10.638  0.0434  0.0298 -0.0326
  281loPI    C2 4482   8.223   9.778  10.466 -0.0119  0.2731 -0.0993
  281loPI    C3 4483   8.156   9.484  10.729  0.2597  0.2751 -0.0255
  281loPI   PO4 4484   7.751   9.814  10.433  0.1455  0.0084 -0.2599
  281loPI   GL1 4485   7.530   9.914  10.013 -0.2748 -0.2373  0.0302
  281loPI   GL2 4486   7.416   9.583  10.186  0.2945  0.0239  0.2320
  281loPI   C1A 4487   7.744   9.653   9.714  0.1606 -0.1588 -0.0258
  281loPI   C2A 4488   7.589   9.701   9.224  0.0689  0.2609  0.3037
  281loPI   C3A 4489   7.611   9.694   8.759 -0.1380 -0.1214 -0.0523
  281loPI   C4A 4490   7.862   9.463   8.499 -0.1970  0.2348 -0.2128
  281loPI   C5A 4491   7.879   9.208   8.113 -0.2244 -0.0970  0.3391
  281loPI   C6A 4492   7.775   8.816   8.096  0.0522 -0.2077  0.2559
  281loPI   C1B 4493   7.207   9.687   9.732  0.0779  0.1177  0.1774
  281loPI   C2B 4494   7.111   9.766   9.320  0.0893  0.2360  0.3901
  281loPI   C3B 4495   7.154   9.879   8.929 -0.5080  0.0855  0.1846
  281loPI   C4B 4496   7.326  10.027   8.532  0.1204  0.1555  0.2914
  282loPI    C1 4497   2.553  17.011  10.860 -0.0407 -0.1457 -0.2481
  282loPI    C2 4498   2.708  17.323  10.663  0.3249 -0.2502 -0.1318
  282loPI    C3 4499   2.663  17.339  11.060  0.0202 -0.2157 -0.1658
  282loPI   PO4 4500   2.267  16.994  10.624 -0.0352 -0.3052  0.1804
  282loPI   GL1 4501   2.388  17.074  10.172  0.1518  0.3371 -0.0065
  282loPI   GL2 4502   2.661  16.848   9.995 -0.0851 -0.4977  0.0211
  282loPI   C1A 4503   2.428  17.411   9.880 -0.3333  0.2261 -0.1334
  282loPI   C2A 4504   2.466  17.449   9.432  0.1949 -0.1868  0.1022
  282loPI   C3A 4505   2.387  17.491   9.041  0.0610  0.1305 -0.1593
  282loPI   C4A 4506   2.377  17.466   8.576  0.1120 -0.1811  0.1077
  282loPI   C5A 4507   2.453  17.313   8.217  0.0170 -0.2157 -0.0084
  282loPI   C6A 4508   2.285  17.030   7.934  0.0907  0.0942 -0.2279
  282loPI   C1B 4509   2.484  16.980   9.605  0.2057 -0.1370  0.0231
  282loPI   C2B 4510   2.511  16.968   9.130 -0.2298  0.1965  0.0830
  282loPI   C3B 4511   2.451  16.854   8.749 -0.2398  0.1799  0.1574
  282loPI   C4B 4512   2.370  16.707   8.357  0.2022 -0.1366  0.2690
  283loPI    C1 4513   4.071   7.182  10.372  0.1557 -0.0561  0.2073
  283loPI    C2 4514   3.845   7.352  10.655  0.0570 -0.1017  0.1565
  283loPI    C3 4515   4.181   7.531  10.532 -0.1192  0.1289  0.0019
  283loPI   PO4 4516   3.933   7.094  10.181 -0.0554 -0.1789  0.2313
  283loPI   GL1 4517   3.856   6.861   9.842 -0.0557  0.0541  0.0148
  283loPI   GL2 4518   3.627   6.629   9.760 -0.2687 -0.0366 -0.4605
  283loPI   C1A 4519   3.645   7.157   9.520 -0.3727 -0.0855 -0.2392
  283loPI   C2A 4520   3.475   7.351   9.143  0.0370 -0.2572 -0.1402
  283loPI   C3A 4521   3.540   7.408   8.750  0.2155  0.2439 -0.0561
  283loPI   C4A 4522   3.640   7.614   8.363 -0.1832  0.1780 -0.1806
  283loPI   C5A 4523   3.609   7.595   8.036 -0.0901  0.2821  0.2042
  283loPI   C6A 4524   3.775   7.563   7.617  0.1657  0.2622 -0.0381
  283loPI   C1B 4525   3.773   6.628   9.377  0.1288  0.0444  0.1454
  283loPI   C2B 4526   3.810   6.521   8.922  0.0884 -0.1124  0.2290
  283loPI   C3B 4527   3.886   6.353   8.542 -0.0048 -0.1789 -0.0611
  283loPI   C4B 4528   3.868   6.196   8.095  0.0513  0.2317 -0.1618
  284loPI    C1 4529  18.067   0.823  10.315 -0.0122 -0.1561  0.0285
  284loPI    C2 4530  18.397   0.939  10.509 -0.0070 -0.1137 -0.0051
  284loPI    C3 4531  18.146   1.212  10.361 -0.1153 -0.1455  0.1183
  284loPI   PO4 4532  18.093   0.564  10.204 -0.2126  0.0735  0.0456
  284loPI   GL1 4533  18.213   0.537   9.780 -0.1271  0.0344 -0.0397
  284loPI   GL2 4534  17.875   0.714   9.773 -0.1948  0.0049  0.0862
  284loPI   C1A 4535  18.152   0.275   9.464 -0.0625  0.1186  0.1503
  284loPI   C2A 4536  18.168   0.178   9.023 -0.3024 -0.1095  0.3109
  284loPI   C3A 4537  18.042   0.354   8.529 -0.1966 -0.0130  0.1676
  284loPI   C4A 4538  17.849   0.202   8.121 -0.1305  0.0359 -0.3340
  284loPI   C5A 4539  17.555   0.453   7.876  0.2337  0.2153  0.1509
  284loPI   C6A 4540  17.146   0.391   7.906  0.3399  0.1691  0.0962
  284loPI   C1B 4541  17.787   0.561   9.334  0.0807 -0.0325  0.1705
  284loPI   C2B 4542  17.642   0.396   8.955  0.2380  0.0668  0.1053
  284loPI   C3B 4543  17.471   0.421   8.473 -0.0427 -0.0275  0.1110
  284loPI   C4B 4544  17.653   0.753   8.321  0.2513 -0.1083  0.0229
  285loPI    C1 4545   0.676   3.927  10.321 -0.2015  0.1240  0.0698
  285loPI    C2 4546   0.904   3.836  10.638 -0.0172  0.1270 -0.0602
  285loPI    C3 4547   0.539   3.992  10.692  0.0060  0.1114  0.1502
  285loPI   PO4 4548   0.845   4.003  10.181  0.2506  0.1561  0.0023
  285loPI   GL1 4549   0.959   3.712   9.867  0.0722 -0.0160 -0.0900
  285loPI   GL2 4550   1.225   3.526   9.852 -0.0067  0.3001  0.1071
  285loPI   C1A 4551   0.748   3.617   9.450 -0.1851  0.2790  0.3184
  285loPI   C2A 4552   0.799   3.680   9.015  0.5327 -0.0534  0.0643
  285loPI   C3A 4553   0.749   3.734   8.642  0.1424  0.0677 -0.1327
  285loPI   C4A 4554   0.510   3.811   8.238  0.3437  0.0099 -0.0127
  285loPI   C5A 4555   0.154   4.011   8.032 -0.1129  0.0472  0.2212
  285loPI   C6A 4556  -0.045   4.242   7.732 -0.2094 -0.2671  0.0269
  285loPI   C1B 4557   1.278   3.460   9.399  0.1236  0.0193 -0.2721
  285loPI   C2B 4558   1.192   3.366   9.061  0.1022 -0.1395 -0.0342
  285loPI   C3B 4559   1.171   3.471   8.581 -0.2096 -0.1136  0.0830
  285loPI   C4B 4560   1.184   3.443   8.186 -0.0632  0.2019  0.3428
  286loPI    C1 4561  11.556   7.904  10.922 -0.1832 -0.0359  0.3606
  286loPI    C2 4562  11.418   7.571  10.749 -0.0923  0.0678  0.0818
  286loPI    C3 4563  11.553   7.560  11.125  0.1663 -0.2710 -0.0166
  286loPI   PO4 4564  11.639   8.032  10.629  0.0340  0.2431  0.1618
  286loPI   GL1 4565  11.501   8.078  10.266 -0.4255 -0.2833 -0.1860
  286loPI   GL2 4566  11.445   7.753  10.214  0.2138 -0.0625  0.3511
  286loPI   C1A 4567  11.599   8.220   9.885  0.0895 -0.0065 -0.1578
  286loPI   C2A 4568  11.664   8.291   9.541 -0.1019 -0.0161 -0.1673
  286loPI   C3A 4569  11.833   8.151   9.223  0.1359 -0.1825 -0.1010
  286loPI   C4A 4570  11.755   8.174   8.741 -0.2518  0.0681  0.0602
  286loPI   C5A 4571  11.989   8.177   8.366  0.4527  0.0310  0.0682
  286loPI   C6A 4572  12.119   8.483   8.080  0.2312  0.0519  0.0652
  286loPI   C1B 4573  11.301   7.828   9.868  0.1878 -0.0229 -0.1990
  286loPI   C2B 4574  11.305   7.877   9.451 -0.1683  0.0789  0.0416
  286loPI   C3B 4575  11.370   7.870   9.079 -0.2209 -0.0465  0.1900
  286loPI   C4B 4576  11.806   7.748   8.914  0.0943  0.0448  0.1395
  287loPI    C1 4577   4.056   5.630  10.461 -0.0910  0.1897  0.0775
  287loPI    C2 4578   4.178   5.302  10.654 -0.0640  0.1387 -0.0256
  287loPI    C3 4579   3.919   5.552  10.828 -0.0141  0.1105  0.0896
  287loPI   PO4 4580   4.031   5.472  10.196 -0.0586 -0.3915  0.3996
  287loPI   GL1 4581   4.078   5.284   9.741  0.0953 -0.1457  0.0647
  287loPI   GL2 4582   3.875   5.589   9.685 -0.0311  0.0216  0.0162
  287loPI   C1A 4583   4.164   5.070   9.413 -0.1587  0.1271  0.3151
  287loPI   C2A 4584   4.164   4.958   8.903 -0.2895 -0.1048  0.0945
  287loPI   C3A 4585   4.236   4.925   8.458  0.0227 -0.0906 -0.1520
  287loPI   C4A 4586   4.266   4.990   8.039  0.1367  0.2780  0.2134
  287loPI   C5A 4587   4.629   4.782   7.761 -0.1598 -0.0195  0.0167
  287loPI   C6A 4588   4.802   4.405   7.670  0.1492 -0.1563  0.0025
  287loPI   C1B 4589   3.770   5.362   9.293 -0.1797 -0.0805 -0.1099
  287loPI   C2B 4590   3.748   5.293   8.830 -0.0566  0.0964  0.0353
  287loPI   C3B 4591   3.875   5.264   8.410  0.2435  0.0176  0.1064
  287loPI   C4B 4592   3.857   5.234   7.989  0.2944 -0.2502  0.0156
  288loPI    C1 4593   7.260  14.771  10.313  0.1070  0.3028 -0.0522
  288loPI    C2 4594   7.372  14.906  10.673 -0.0496  0.0949  0.0765
  288loPI    C3 4595   7.422  14.520  10.579 -0.1035  0.1268 -0.0873
  288loPI   PO4 4596   7.349  14.964  10.151 -0.0907 -0.1329  0.0435
  288loPI   GL1 4597   7.389  15.032   9.712 -0.0047  0.2741  0.1979
  288loPI   GL2 4598   7.089  14.761   9.788 -0.1660  0.1030 -0.1294
  288loPI   C1A 4599   7.310  15.016   9.232 -0.1415  0.2805  0.2304
  288loPI   C2A 4600   7.407  14.879   8.764  0.5599  0.0967 -0.1457
  288loPI   C3A 4601   7.427  14.934   8.375  0.4259 -0.3142  0.0573
  288loPI   C4A 4602   7.347  14.960   7.937 -0.1026 -0.0632  0.0395
  288loPI   C5A 4603   7.503  14.846   7.520 -0.1478 -0.0536 -0.1511
  288loPI   C6A 4604   7.404  14.932   7.108 -0.0805  0.0985  0.3497
  288loPI   C1B 4605   6.946  14.689   9.380  0.2891 -0.0602 -0.1566
  288loPI   C2B 4606   6.902  14.728   8.980 -0.0140 -0.1601 -0.0517
  288loPI   C3B 4607   6.975  14.669   8.565 -0.3109  0.2105  0.3358
  288loPI   C4B 4608   7.015  14.735   8.142  0.0152 -0.1507  0.1147
  289loPI    C1 4609   5.353  16.553   9.711  0.0957 -0.0875  0.0249
  289loPI    C2 4610   5.212  16.386  10.046 -0.0349  0.0067  0.0179
  289loPI    C3 4611   5.028  16.320   9.697  0.1428 -0.1493 -0.0479
  289loPI   PO4 4612   5.576  16.345   9.666 -0.0637 -0.0695 -0.0084
  289loPI   GL1 4613   5.474  16.162   9.370 -0.1443 -0.0817 -0.2165
  289loPI   GL2 4614   5.893  16.008   9.375 -0.0775 -0.2953 -0.0757
  289loPI   C1A 4615   5.661  16.185   8.962  0.1406  0.1410  0.0690
  289loPI   C2A 4616   6.044  16.068   8.851 -0.1350  0.0816 -0.3326
  289loPI   C3A 4617   6.283  15.716   8.598  0.2699 -0.0107  0.0262
  289loPI   C4A 4618   6.682  15.720   8.322  0.1674  0.0970 -0.0390
  289loPI   C5A 4619   6.838  15.687   7.964  0.0299 -0.0157  0.1266
  289loPI   C6A 4620   6.641  15.831   7.552 -0.2303  0.1364  0.0265
  289loPI   C1B 4621   5.790  15.647   9.088 -0.0672 -0.0341  0.1727
  289loPI   C2B 4622   5.774  15.692   8.667  0.0941 -0.3098 -0.1484
  289loPI   C3B 4623   5.853  16.044   8.357  0.1938  0.0529 -0.0284
  289loPI   C4B 4624   5.970  16.315   8.083 -0.1179 -0.0161 -0.0657
  290loPI    C1 4625   2.546  12.914  10.732 -0.0128 -0.4576  0.0136
  290loPI    C2 4626   2.566  13.058  11.104  0.0347 -0.2681 -0.0607
  290loPI    C3 4627   2.574  12.663  11.042  0.0993 -0.2986  0.1340
  290loPI   PO4 4628   2.394  13.148  10.613  0.0372  0.0484  0.1031
  290loPI   GL1 4629   2.315  13.355  10.179 -0.1235  0.3438  0.0928
  290loPI   GL2 4630   2.521  13.548  10.015 -0.3115 -0.0382 -0.1096
  290loPI   C1A 4631   2.164  13.188   9.832 -0.0671  0.0921 -0.3913
  290loPI   C2A 4632   2.198  13.161   9.404  0.0101  0.2619 -0.5490
  290loPI   C3A 4633   2.148  13.122   8.975 -0.4988 -0.1174 -0.0203
  290loPI   C4A 4634   2.168  13.109   8.516  0.1088 -0.0735 -0.0031
  290loPI   C5A 4635   2.097  13.092   8.121 -0.0998 -0.2523 -0.0235
  290loPI   C6A 4636   1.903  13.089   7.698  0.1331 -0.1417  0.0949
  290loPI   C1B 4637   2.584  13.459   9.535 -0.0166 -0.0898 -0.3089
  290loPI   C2B 4638   2.565  13.477   9.048 -0.0660  0.0416 -0.2532
  290loPI   C3B 4639   2.584  13.406   8.603  0.2015  0.0520  0.0563
  290loPI   C4B 4640   2.542  13.479   8.180  0.1521 -0.2453 -0.3575
  291loPI    C1 4641   2.523  13.671  10.598  0.1038  0.0621 -0.0264
  291loPI    C2 4642   2.445  13.884  10.927 -0.2618 -0.1798  0.0500
  291loPI    C3 4643   2.666  13.552  10.952  0.2186  0.1236 -0.0520
  291loPI   PO4 4644   2.250  13.747  10.484 -0.0593 -0.1238  0.1238
  291loPI   GL1 4645   2.175  13.874  10.167 -0.0624  0.1619 -0.0602
  291loPI   GL2 4646   2.235  14.217  10.102  0.0812  0.1447 -0.0154
  291loPI   C1A 4647   2.474  13.915   9.711  0.2805 -0.2968 -0.0874
  291loPI   C2A 4648   2.537  13.962   9.318 -0.1979 -0.0358 -0.0136
  291loPI   C3A 4649   2.534  14.022   8.847  0.2743 -0.0205 -0.2171
  291loPI   C4A 4650   2.594  13.905   8.475 -0.1689 -0.0630 -0.0884
  291loPI   C5A 4651   2.494  14.114   8.049  0.0192  0.1964  0.4015
  291loPI   C6A 4652   2.108  14.253   7.819  0.3740 -0.0413  0.0492
  291loPI   C1B 4653   2.078  14.211   9.632 -0.0892  0.1061  0.1539
  291loPI   C2B 4654   2.076  14.162   9.208 -0.0590 -0.0137 -0.1037
  291loPI   C3B 4655   1.946  14.254   8.672  0.0417  0.0627  0.2104
  291loPI   C4B 4656   2.080  14.102   8.288  0.1530 -0.0266 -0.0272
  292loPI    C1 4657  10.533   1.778  10.595 -0.0248  0.0701  0.0532
  292loPI    C2 4658  10.701   1.559  10.885 -0.0237 -0.0668 -0.0500
  292loPI    C3 4659  10.307   1.538  10.822 -0.0215 -0.0503 -0.0695
  292loPI   PO4 4660  10.731   1.640  10.286 -0.0803  0.0165 -0.1172
  292loPI   GL1 4661  10.660   1.808   9.837  0.1636  0.2743 -0.0863
  292loPI   GL2 4662  10.801   2.091   9.800 -0.2413  0.4391 -0.0140
  292loPI   C1A 4663  10.553   1.868   9.434  0.1480  0.0089 -0.0655
  292loPI   C2A 4664  10.758   2.124   9.083  0.1910 -0.1791 -0.0265
  292loPI   C3A 4665  10.694   2.208   8.617  0.1499  0.0595  0.2473
  292loPI   C4A 4666  10.656   2.201   8.178 -0.0576  0.0660 -0.2495
  292loPI   C5A 4667  10.645   2.507   7.920 -0.2947 -0.0279  0.2892
  292loPI   C6A 4668  10.990   2.770   7.719  0.3519  0.2775 -0.1917
  292loPI   C1B 4669  10.569   2.380   9.499  0.2928 -0.2601 -0.2329
  292loPI   C2B 4670  10.496   2.582   9.101  0.2644 -0.1837  0.1838
  292loPI   C3B 4671  10.401   2.623   8.771  0.1599  0.1133 -0.0348
  292loPI   C4B 4672  10.441   2.593   8.414 -0.0931 -0.3409  0.2206
  293loPI    C1 4673  10.731  17.688   9.991 -0.2321  0.0013  0.1072
  293loPI    C2 4674  11.018  17.728  10.267  0.0581  0.0042 -0.1883
  293loPI    C3 4675  10.808  17.388  10.244 -0.1044  0.0769  0.1586
  293loPI   PO4 4676  10.579  18.022   9.937  0.0125  0.1311 -0.1425
  293loPI   GL1 4677  10.426  18.395   9.632 -0.2613 -0.0265 -0.2397
  293loPI   GL2 4678  10.809  18.392   9.639  0.1293  0.1073 -0.0135
  293loPI   C1A 4679  10.301  18.338   9.186  0.1427  0.1897  0.0698
  293loPI   C2A 4680  10.242  18.453   8.710  0.1337 -0.2589  0.0705
  293loPI   C3A 4681  10.225  18.614   8.206 -0.1303  0.4168  0.2939
  293loPI   C4A 4682  10.501  18.527   7.805 -0.1695 -0.2894 -0.0246
  293loPI   C5A 4683  10.804  18.522   7.544 -0.1337 -0.0179  0.1996
  293loPI   C6A 4684  11.035  18.903   7.399  0.1265  0.1210 -0.0440
  293loPI   C1B 4685  10.804  18.545   9.201  0.1446 -0.1122  0.1605
  293loPI   C2B 4686  10.914  18.914   8.941 -0.3298  0.0182  0.2409
  293loPI   C3B 4687  11.121  19.070   8.563  0.3041  0.0597  0.0354
  293loPI   C4B 4688  11.062  19.071   8.189 -0.0146 -0.2273  0.1730
  294loPI    C1 4689   9.689   6.634  11.135  0.0988 -0.0211  0.0214
  294loPI    C2 4690   9.757   6.247  11.210  0.0850 -0.0343 -0.0339
  294loPI    C3 4691   9.486   6.448  11.425  0.2367 -0.0035  0.1305
  294loPI   PO4 4692   9.553   6.681  10.861 -0.0194  0.0251 -0.0083
  294loPI   GL1 4693   9.678   6.929  10.481 -0.1029  0.2530  0.0371
  294loPI   GL2 4694   9.406   6.701  10.390 -0.0005  0.0557 -0.0633
  294loPI   C1A 4695   9.697   6.994   9.995 -0.1566  0.0921 -0.4436
  294loPI   C2A 4696   9.804   7.076   9.611 -0.3577  0.3783 -0.1392
  294loPI   C3A 4697   9.769   7.114   9.200 -0.1932 -0.3521  0.2568
  294loPI   C4A 4698   9.778   7.158   8.722 -0.0508  0.1221  0.0623
  294loPI   C5A 4699   9.701   7.113   8.304  0.0200 -0.2358 -0.0259
  294loPI   C6A 4700   9.761   7.008   7.878 -0.1639 -0.1028  0.3807
  294loPI   C1B 4701   9.412   6.542   9.924 -0.2080 -0.0482 -0.2322
  294loPI   C2B 4702   9.443   6.747   9.535  0.1375  0.0705 -0.1593
  294loPI   C3B 4703   9.509   6.719   9.114  0.1960  0.1624 -0.0508
  294loPI   C4B 4704   9.539   6.705   8.627  0.0508  0.3052  0.2016
  295loPI    C1 4705  12.857   2.696  10.925 -0.4257 -0.2674 -0.0739
  295loPI    C2 4706  13.087   2.378  11.004 -0.0764 -0.0072 -0.0178
  295loPI    C3 4707  13.118   2.708  11.228 -0.2048  0.1817 -0.2726
  295loPI   PO4 4708  12.888   2.881  10.661  0.0224  0.2577  0.1217
  295loPI   GL1 4709  12.766   2.869  10.126 -0.0275  0.0291 -0.0601
  295loPI   GL2 4710  13.107   2.667   9.959  0.0775 -0.1495 -0.0873
  295loPI   C1A 4711  12.752   2.847   9.669  0.0319  0.2680  0.1043
  295loPI   C2A 4712  12.800   2.817   9.286  0.2440 -0.2711 -0.0152
  295loPI   C3A 4713  12.759   2.901   8.816  0.0495 -0.1397  0.0063
  295loPI   C4A 4714  12.761   3.076   8.352 -0.1538 -0.0202 -0.1277
  295loPI   C5A 4715  12.615   3.020   7.955  0.0669  0.1248 -0.1691
  295loPI   C6A 4716  12.374   2.984   7.567 -0.0328  0.2528 -0.1152
  295loPI   C1B 4717  13.268   2.749   9.601  0.0371 -0.0429 -0.0823
  295loPI   C2B 4718  13.362   2.863   9.291 -0.1687  0.2801 -0.0613
  295loPI   C3B 4719  13.225   2.768   8.950 -0.2005  0.0773 -0.0234
  295loPI   C4B 4720  13.271   2.888   8.547 -0.1774 -0.1738  0.3314
  296loPI    C1 4721   3.247   2.082  10.639  0.0837 -0.2781  0.0311
  296loPI    C2 4722   2.905   1.915  10.517 -0.0559  0.1420 -0.1734
  296loPI    C3 4723   2.901   2.187  10.810  0.1278  0.0229 -0.0581
  296loPI   PO4 4724   3.382   2.090  10.424 -0.1287  0.1692  0.0462
  296loPI   GL1 4725   3.468   2.111  10.027 -0.1733  0.1727  0.0597
  296loPI   GL2 4726   3.618   1.898   9.880 -0.1661 -0.0691 -0.0478
  296loPI   C1A 4727   3.269   2.258   9.647 -0.0269 -0.0841  0.0504
  296loPI   C2A 4728   3.231   2.194   9.258  0.0966 -0.1245  0.0594
  296loPI   C3A 4729   3.226   2.280   8.809 -0.2782  0.4127 -0.0031
  296loPI   C4A 4730   3.309   2.342   8.400 -0.1886 -0.1552 -0.1102
  296loPI   C5A 4731   3.240   2.237   8.047 -0.1845 -0.3008  0.1701
  296loPI   C6A 4732   3.192   1.774   7.810 -0.1718 -0.0384  0.4724
  296loPI   C1B 4733   3.661   1.970   9.522 -0.0431 -0.0178  0.1301
  296loPI   C2B 4734   3.624   1.843   9.097  0.3366  0.2312  0.0135
  296loPI   C3B 4735   3.686   1.973   8.707 -0.0462 -0.3281 -0.2685
  296loPI   C4B 4736   3.737   1.977   8.327 -0.2127  0.2117  0.1087
  297loPI    C1 4737   3.275   0.571  10.494 -0.0964  0.1400 -0.1106
  297loPI    C2 4738   3.288   0.205  10.654 -0.1454  0.1876  0.0033
  297loPI    C3 4739   3.393   0.523  10.873 -0.1321  0.2448 -0.0857
  297loPI   PO4 4740   3.135   0.524  10.283 -0.2043  0.1876  0.0265
  297loPI   GL1 4741   3.013   0.261  10.012  0.2250 -0.1895 -0.2357
  297loPI   GL2 4742   3.062   0.164   9.722  0.1755  0.1628 -0.0437
  297loPI   C1A 4743   2.615   0.315   9.841  0.0321  0.0838 -0.0428
  297loPI   C2A 4744   2.363   0.545   9.533 -0.0964 -0.2465  0.2132
  297loPI   C3A 4745   2.450   0.564   9.142 -0.0253  0.2775  0.1124
  297loPI   C4A 4746   2.530   0.606   8.705 -0.4580 -0.1310  0.0799
  297loPI   C5A 4747   2.737   0.387   8.329  0.3052  0.1687  0.1136
  297loPI   C6A 4748   2.913   0.309   7.816  0.1396 -0.2372 -0.0061
  297loPI   C1B 4749   3.271   0.387   9.469  0.0478 -0.1547  0.2747
  297loPI   C2B 4750   3.317   0.350   8.984 -0.3993  0.1755  0.0157
  297loPI   C3B 4751   3.287   0.377   8.515  0.0235  0.2072  0.3325
  297loPI   C4B 4752   3.237   0.281   8.155 -0.0229  0.1995 -0.1304
  298loPI    C1 4753  18.010   8.890  10.818  0.0374  0.3211  0.0865
  298loPI    C2 4754  18.234   8.864  11.148  0.0593  0.1514  0.0591
  298loPI    C3 4755  17.842   8.940  11.178 -0.0348 -0.3375  0.1558
  298loPI   PO4 4756  18.220   8.853  10.629 -0.1145  0.2670  0.1117
  298loPI   GL1 4757  18.270   8.832  10.194 -0.2956 -0.0534  0.1305
  298loPI   GL2 4758  18.182   9.198  10.057 -0.2331  0.1837  0.1110
  298loPI   C1A 4759  18.360   8.665   9.885  0.0499  0.1473  0.1222
  298loPI   C2A 4760  18.302   8.647   9.506 -0.0318 -0.1432  0.1498
  298loPI   C3A 4761  18.381   8.745   9.089 -0.0123 -0.2170  0.1543
  298loPI   C4A 4762  18.380   8.822   8.621 -0.3794 -0.0347  0.0049
  298loPI   C5A 4763  18.561   8.734   8.179  0.4105 -0.1792 -0.0105
  298loPI   C6A 4764  18.770   8.640   7.799  0.0005  0.1050  0.2626
  298loPI   C1B 4765  18.221   9.117   9.673 -0.2659 -0.0462 -0.5025
  298loPI   C2B 4766  18.071   9.261   9.289 -0.0151  0.0696 -0.2524
  298loPI   C3B 4767  18.115   9.312   8.899  0.0232  0.2248 -0.1051
  298loPI   C4B 4768  17.996   9.329   8.498  0.1113 -0.1734 -0.2265
  299loPI    C1 4769   8.808   3.053  10.817 -0.2016  0.0263  0.0627
  299loPI    C2 4770   8.771   3.450  10.786  0.1794  0.0815  0.2556
  299loPI    C3 4771   8.633   3.260  11.110 -0.4373 -0.0128 -0.0485
  299loPI   PO4 4772   8.795   2.888  10.470 -0.1282  0.0184 -0.1035
  299loPI   GL1 4773   8.848   3.069  10.022  0.1476 -0.4715 -0.1541
  299loPI   GL2 4774   8.552   2.998  10.037 -0.1897  0.3622 -0.1720
  299loPI   C1A 4775   9.078   3.053   9.623  0.0787 -0.2238  0.1731
  299loPI   C2A 4776   9.113   3.105   9.174  0.1316 -0.0798 -0.0029
  299loPI   C3A 4777   9.167   3.132   8.793  0.0643  0.0087  0.0976
  299loPI   C4A 4778   9.121   3.162   8.383  0.2996 -0.1332 -0.3983
  299loPI   C5A 4779   8.937   3.118   7.944 -0.1972  0.2952 -0.1600
  299loPI   C6A 4780   8.989   3.059   7.523  0.1238  0.4182 -0.0265
  299loPI   C1B 4781   8.460   3.051   9.659  0.0124 -0.1507 -0.1926
  299loPI   C2B 4782   8.643   3.102   9.314  0.1709  0.1202  0.1039
  299loPI   C3B 4783   8.664   3.187   8.878  0.1192 -0.3406 -0.0275
  299loPI   C4B 4784   8.650   3.115   8.449  0.0743 -0.3233 -0.2873
  300loPI    C1 4785   4.426   1.475  10.071 -0.2092 -0.0544  0.0917
  300loPI    C2 4786   4.420   1.742  10.369 -0.0379  0.0694 -0.0133
  300loPI    C3 4787   4.753   1.533  10.295 -0.1777 -0.1922  0.0824
  300loPI   PO4 4788   4.096   1.438  10.045  0.0055 -0.1405 -0.1452
  300loPI   GL1 4789   4.021   1.500   9.652  0.2193 -0.1156  0.4072
  300loPI   GL2 4790   3.855   1.189   9.638 -0.0044  0.0808  0.0505
  300loPI   C1A 4791   4.057   1.596   9.229 -0.0775 -0.2587  0.1410
  300loPI   C2A 4792   4.007   1.487   8.821  0.1680  0.1652  0.0924
  300loPI   C3A 4793   4.040   1.603   8.412  0.1542 -0.0774  0.0089
  300loPI   C4A 4794   4.011   1.711   8.005 -0.3085 -0.1084 -0.0861
  300loPI   C5A 4795   4.349   1.820   7.689 -0.1721  0.2338  0.1382
  300loPI   C6A 4796   4.624   2.245   7.655 -0.1432  0.1049 -0.0939
  300loPI   C1B 4797   3.885   1.144   9.252  0.1983  0.0336  0.3449
  300loPI   C2B 4798   3.947   0.983   8.866 -0.0085  0.1282 -0.1592
  300loPI   C3B 4799   3.964   1.058   8.509 -0.4394 -0.0691  0.0089
  300loPI   C4B 4800   4.066   1.236   8.145 -0.1336  0.1782 -0.1951
  301loPI    C1 4801  11.487   9.778  10.910  0.3474  0.2390  0.1651
  301loPI    C2 4802  11.366   9.669  11.275  0.0025  0.1386  0.0252
  301loPI    C3 4803  11.234  10.010  11.114 -0.2762 -0.0768 -0.2152
  301loPI   PO4 4804  11.503   9.640  10.656  0.1478 -0.1910  0.3728
  301loPI   GL1 4805  11.505   9.629  10.275  0.2231  0.0984 -0.1497
  301loPI   GL2 4806  11.669   9.378  10.167 -0.1601 -0.3238 -0.0348
  301loPI   C1A 4807  11.534   9.690   9.802  0.0580 -0.0769  0.3872
  301loPI   C2A 4808  11.543   9.669   9.386 -0.0990  0.1337 -0.0337
  301loPI   C3A 4809  11.569   9.570   8.933 -0.0448  0.0647 -0.2204
  301loPI   C4A 4810  11.439   9.582   8.490 -0.1079 -0.3079  0.1747
  301loPI   C5A 4811  11.235   9.635   8.093  0.0873 -0.1262  0.0367
  301loPI   C6A 4812  11.148   9.992   7.839  0.1428  0.1452  0.0547
  301loPI   C1B 4813  11.777   9.231   9.772 -0.2445 -0.0505 -0.0743
  301loPI   C2B 4814  11.692   9.168   9.337  0.3349 -0.0892 -0.1202
  301loPI   C3B 4815  11.751   9.080   8.875 -0.2234 -0.0397  0.0299
  301loPI   C4B 4816  11.780   9.219   8.507 -0.0141 -0.2912 -0.2846
  302loPI    C1 4817  14.543  12.894  10.864  0.2018 -0.1257 -0.0792
  302loPI    C2 4818  14.835  13.059  11.083  0.1281  0.1611 -0.1931
  302loPI    C3 4819  14.455  13.077  11.209  0.1398 -0.0838 -0.1170
  302loPI   PO4 4820  14.650  12.869  10.627 -0.3581 -0.1495  0.2048
  302loPI   GL1 4821  14.429  12.864  10.184  0.0201  0.1667 -0.1043
  302loPI   GL2 4822  14.200  12.729  10.299 -0.1092 -0.0308  0.0315
  302loPI   C1A 4823  14.616  12.731   9.721  0.0725 -0.0738 -0.1518
  302loPI   C2A 4824  14.521  12.803   9.289  0.1436 -0.0269  0.3048
  302loPI   C3A 4825  14.406  12.870   8.847 -0.1737 -0.0514  0.0658
  302loPI   C4A 4826  14.460  12.651   8.379  0.0775 -0.1781 -0.3473
  302loPI   C5A 4827  14.289  12.876   7.996  0.0455  0.3261  0.0642
  302loPI   C6A 4828  13.913  12.893   7.687  0.0212  0.1256  0.3937
  302loPI   C1B 4829  14.094  12.657   9.841  0.0813 -0.1436 -0.3816
  302loPI   C2B 4830  14.154  12.500   9.459 -0.1189  0.0479  0.1912
  302loPI   C3B 4831  14.073  12.552   9.067 -0.0221 -0.1793  0.1877
  302loPI   C4B 4832  13.941  12.733   8.634 -0.1368  0.0403  0.0126
  303loPI    C1 4833   7.722   4.708  10.867 -0.1286  0.0284 -0.0686
  303loPI    C2 4834   7.626   4.348  11.013 -0.1253  0.0399 -0.0379
  303loPI    C3 4835   7.497   4.679  11.196 -0.0480  0.0552 -0.0108
  303loPI   PO4 4836   7.700   4.652  10.610 -0.2080  0.3845 -0.0602
  303loPI   GL1 4837   7.402   4.659  10.326 -0.0184  0.2572  0.1955
  303loPI   GL2 4838   7.341   4.965  10.300 -0.6102 -0.1115 -0.0085
  303loPI   C1A 4839   7.442   4.530   9.926 -0.2959 -0.0929 -0.0216
  303loPI   C2A 4840   7.390   4.581   9.485  0.0140  0.1274 -0.1351
  303loPI   C3A 4841   7.389   4.554   9.079  0.1172  0.0970 -0.2178
  303loPI   C4A 4842   7.446   4.578   8.619 -0.0999  0.1809 -0.0038
  303loPI   C5A 4843   7.400   4.855   8.320  0.0155  0.0389 -0.2664
  303loPI   C6A 4844   7.336   5.207   8.105  0.2832 -0.2317  0.0191
  303loPI   C1B 4845   7.224   5.021   9.971 -0.0688  0.0094  0.0778
  303loPI   C2B 4846   7.222   5.017   9.556 -0.0175  0.0894  0.1713
  303loPI   C3B 4847   7.216   5.027   9.175 -0.1611 -0.0149 -0.2582
  303loPI   C4B 4848   7.277   5.040   8.751  0.2461  0.1489  0.0983
  304loPI    C1 4849   2.800   4.359  10.362  0.1937  0.0377  0.1224
  304loPI    C2 4850   2.678   4.082  10.624  0.1115  0.1035  0.1541
  304loPI    C3 4851   2.621   4.470  10.702  0.3043  0.1337  0.1498
  304loPI   PO4 4852   2.764   4.325  10.154 -0.2637 -0.0582 -0.0049
  304loPI   GL1 4853   2.575   4.156   9.868  0.5777  0.0615  0.1558
  304loPI   GL2 4854   2.736   4.472   9.686 -0.5169  0.1493  0.1273
  304loPI   C1A 4855   2.725   4.007   9.489  0.1217 -0.1984  0.1936
  304loPI   C2A 4856   2.682   3.880   9.008  0.0232 -0.0253  0.0429
  304loPI   C3A 4857   2.706   3.901   8.606  0.0966  0.2704  0.0380
  304loPI   C4A 4858   2.675   3.878   8.118  0.1217  0.0573  0.1100
  304loPI   C5A 4859   2.883   3.829   7.758 -0.1937 -0.2332 -0.0910
  304loPI   C6A 4860   3.240   3.472   7.603  0.2527 -0.1276  0.1904
  304loPI   C1B 4861   2.810   4.431   9.236 -0.0480 -0.2801  0.0331
  304loPI   C2B 4862   2.774   4.441   8.771  0.3984 -0.2163  0.0453
  304loPI   C3B 4863   2.750   4.437   8.258  0.0129  0.2865 -0.0052
  304loPI   C4B 4864   2.630   4.475   7.743  0.1200  0.1156  0.1769
  305loPI    C1 4865   8.520   3.947  10.802 -0.0031  0.0497  0.1189
  305loPI    C2 4866   8.616   4.043  11.178 -0.0600  0.1046  0.1196
  305loPI    C3 4867   8.420   3.703  11.102  0.0766  0.0241  0.1247
  305loPI   PO4 4868   8.693   3.962  10.627  0.0951 -0.2497  0.0829
  305loPI   GL1 4869   8.602   4.131  10.248 -0.1160 -0.0661 -0.1508
  305loPI   GL2 4870   8.643   3.898  10.098  0.0071  0.1518  0.0682
  305loPI   C1A 4871   8.377   4.320   9.987  0.0048  0.1463 -0.0887
  305loPI   C2A 4872   8.480   4.449   9.579  0.0157 -0.0434  0.2030
  305loPI   C3A 4873   8.484   4.527   9.132 -0.0518  0.3569  0.0602
  305loPI   C4A 4874   8.546   4.442   8.747  0.1515  0.1097 -0.0271
  305loPI   C5A 4875   8.547   4.483   8.338 -0.1256  0.5099  0.2801
  305loPI   C6A 4876   8.650   4.612   7.934 -0.1054  0.2707  0.1611
  305loPI   C1B 4877   8.702   3.949   9.644 -0.0659  0.2407  0.1643
  305loPI   C2B 4878   8.710   4.003   9.256  0.0724 -0.0528 -0.0451
  305loPI   C3B 4879   8.787   4.031   8.836 -0.1238  0.1715 -0.1952
  305loPI   C4B 4880   8.816   4.047   8.387 -0.2948  0.0913  0.0769
  306loPI    C1 4881   9.348  17.097  10.584  0.0562  0.0187 -0.0719
  306loPI    C2 4882   8.957  17.179  10.566  0.0744  0.1214 -0.0086
  306loPI    C3 4883   9.154  17.220  10.911  0.2186  0.4273 -0.1228
  306loPI   PO4 4884   9.439  17.108  10.351 -0.0511 -0.1502 -0.2687
  306loPI   GL1 4885   9.635  16.799  10.089 -0.0074 -0.2741  0.3012
  306loPI   GL2 4886   9.382  16.963   9.887 -0.1392  0.1636  0.0372
  306loPI   C1A 4887   9.713  16.534   9.788 -0.1738 -0.2310  0.1623
  306loPI   C2A 4888   9.832  16.470   9.339  0.0750  0.0826 -0.0240
  306loPI   C3A 4889   9.862  16.480   8.888  0.0277  0.1560  0.0652
  306loPI   C4A 4890   9.960  16.484   8.459  0.0230  0.0436  0.1871
  306loPI   C5A 4891  10.117  16.568   8.011  0.2448 -0.2472  0.2489
  306loPI   C6A 4892  10.461  16.514   7.745 -0.1042  0.0095  0.0264
  306loPI   C1B 4893   9.389  16.820   9.451 -0.1263  0.2021  0.1560
  306loPI   C2B 4894   9.446  16.844   9.017 -0.1173  0.1436 -0.3100
  306loPI   C3B 4895   9.458  17.069   8.659  0.0494 -0.2734  0.0736
  306loPI   C4B 4896   9.493  17.051   8.215  0.0609 -0.1722  0.1533
  307loPI    C1 4897  10.617  12.425  10.205 -0.2235 -0.2267 -0.0989
  307loPI    C2 4898  10.566  12.602   9.849 -0.0924 -0.1381 -0.0742
  307loPI    C3 4899  10.522  12.814  10.186  0.2619 -0.0995 -0.0482
  307loPI   PO4 4900  10.776  12.150  10.141 -0.0669  0.1153  0.1939
  307loPI   GL1 4901  10.692  12.137   9.751 -0.2145  0.1149 -0.1566
  307loPI   GL2 4902  10.673  11.796   9.724 -0.1380  0.1998 -0.0865
  307loPI   C1A 4903  10.436  12.473   9.368 -0.0640 -0.2747  0.0843
  307loPI   C2A 4904  10.448  12.415   8.880 -0.1758 -0.0004 -0.0784
  307loPI   C3A 4905  10.762  12.495   8.586 -0.2763  0.0002 -0.0187
  307loPI   C4A 4906  11.038  12.227   8.456  0.1395 -0.2425  0.1403
  307loPI   C5A 4907  11.420  12.222   8.313 -0.0658 -0.0075  0.0904
  307loPI   C6A 4908  11.650  12.291   8.002  0.3294  0.2073  0.1204
  307loPI   C1B 4909  10.375  11.535   9.425  0.1677 -0.1088  0.0075
  307loPI   C2B 4910  10.234  11.606   9.013 -0.0445  0.0399 -0.0356
  307loPI   C3B 4911  10.243  11.621   8.547 -0.2304 -0.0812  0.1292
  307loPI   C4B 4912  10.186  11.608   8.153  0.1480  0.1069  0.0676
  308loPI    C1 4913   3.193   5.930  10.461 -0.0688  0.1887  0.0222
  308loPI    C2 4914   3.570   5.806  10.511 -0.0933  0.1140  0.0226
  308loPI    C3 4915   3.494   6.192  10.438 -0.0179  0.1320  0.0390
  308loPI   PO4 4916   3.121   5.802  10.186 -0.1556  0.2339  0.1548
  308loPI   GL1 4917   3.218   5.745   9.708 -0.0184 -0.1845 -0.1838
  308loPI   GL2 4918   2.958   5.971   9.759  0.0765  0.2013 -0.0094
  308loPI   C1A 4919   3.360   5.697   9.385 -0.1760 -0.2007 -0.0274
  308loPI   C2A 4920   3.421   5.669   8.970 -0.1642  0.1212  0.2292
  308loPI   C3A 4921   3.477   5.632   8.481  0.0587  0.1713  0.1978
  308loPI   C4A 4922   3.418   5.778   8.013 -0.0581  0.0970 -0.1775
  308loPI   C5A 4923   3.496   6.105   7.728 -0.2056  0.0781  0.0886
  308loPI   C6A 4924   3.385   6.587   7.600 -0.0661  0.0365  0.2944
  308loPI   C1B 4925   2.939   5.972   9.291  0.2777  0.3816 -0.0360
  308loPI   C2B 4926   2.977   5.977   8.792  0.3396  0.0785 -0.2952
  308loPI   C3B 4927   3.012   5.963   8.411 -0.0126  0.0829  0.0402
  308loPI   C4B 4928   3.165   6.411   8.199 -0.2833  0.4795  0.1591
  309loPI    C1 4929   9.484   0.306  10.350 -0.0195  0.0770  0.0476
  309loPI    C2 4930   9.633  -0.014  10.537  0.0038  0.0688  0.0151
  309loPI    C3 4931   9.524   0.308  10.748 -0.0996  0.0074  0.0561
  309loPI   PO4 4932   9.292   0.185  10.180  0.0607 -0.2642 -0.0022
  309loPI   GL1 4933   9.374   0.356   9.799 -0.2178  0.1413  0.1512
  309loPI   GL2 4934   9.360  -0.073   9.745 -0.0278 -0.0123  0.0272
  309loPI   C1A 4935   9.308   0.525   9.429  0.0342  0.2664  0.1476
  309loPI   C2A 4936   9.057   0.582   9.061  0.1058  0.3007  0.0069
  309loPI   C3A 4937   9.217   0.801   8.727 -0.1957 -0.1195  0.1100
  309loPI   C4A 4938   9.523   0.615   8.556 -0.0170 -0.1605  0.1796
  309loPI   C5A 4939   9.718   0.646   8.083  0.0643 -0.0447 -0.2931
  309loPI   C6A 4940   9.906   0.911   7.736  0.0863  0.0002  0.0736
  309loPI   C1B 4941   9.534   0.097   9.346  0.1296  0.0072  0.1450
  309loPI   C2B 4942   9.582   0.322   9.006 -0.0723  0.1000 -0.0562
  309loPI   C3B 4943   9.715   0.816   9.019  0.1549 -0.0896  0.2380
  309loPI   C4B 4944   9.844   1.145   9.193 -0.2040  0.3812 -0.0119
  310loPI    C1 4945  11.207   6.086  10.821  0.1564  0.0198 -0.0280
  310loPI    C2 4946  11.054   6.302  11.121  0.1030 -0.1028  0.0335
  310loPI    C3 4947  11.429   6.167  11.144  0.1965  0.1316 -0.0829
  310loPI   PO4 4948  10.999   6.069  10.623 -0.1453 -0.0011 -0.3831
  310loPI   GL1 4949  10.754   6.181  10.323  0.0387 -0.2198 -0.1350
  310loPI   GL2 4950  11.027   6.032  10.106  0.0168  0.0368  0.0850
  310loPI   C1A 4951  10.893   6.521  10.059 -0.4384 -0.1621  0.0140
  310loPI   C2A 4952  10.910   6.550   9.535 -0.0841 -0.1952 -0.2326
  310loPI   C3A 4953  11.051   6.556   9.071 -0.0832 -0.0264  0.2261
  310loPI   C4A 4954  11.042   6.497   8.624 -0.4285 -0.0870 -0.1329
  310loPI   C5A 4955  10.929   6.609   8.192 -0.1254 -0.4284 -0.0353
  310loPI   C6A 4956  10.856   7.038   7.920  0.2104  0.3761 -0.1799
  310loPI   C1B 4957  11.179   6.144   9.687 -0.1584 -0.1852  0.1659
  310loPI   C2B 4958  11.180   6.164   9.292  0.1130  0.1491 -0.3319
  310loPI   C3B 4959  11.255   6.075   8.879 -0.3652  0.1350  0.1005
  310loPI   C4B 4960  11.284   6.001   8.418  0.4343 -0.2400 -0.0973
  311loPI    C1 4961   7.686   2.624  10.529 -0.1647  0.0316  0.1670
  311loPI    C2 4962   8.068   2.560  10.627 -0.1435 -0.0010  0.0647
  311loPI    C3 4963   7.827   2.250  10.552 -0.0464  0.0314 -0.4115
  311loPI   PO4 4964   7.718   2.891  10.397 -0.2703  0.0238  0.0510
  311loPI   GL1 4965   7.832   2.960  10.011 -0.0936 -0.0406 -0.0849
  311loPI   GL2 4966   7.734   3.210   9.919  0.0967 -0.2761 -0.1179
  311loPI   C1A 4967   7.793   2.707   9.689  0.1385 -0.3323  0.3685
  311loPI   C2A 4968   7.700   2.789   9.233  0.1820  0.1505  0.0560
  311loPI   C3A 4969   7.284   2.867   9.127 -0.1358 -0.0147 -0.0631
  311loPI   C4A 4970   7.210   2.776   8.761 -0.1339  0.0476 -0.4115
  311loPI   C5A 4971   7.291   2.772   8.334  0.2349 -0.1849  0.2845
  311loPI   C6A 4972   7.205   2.854   7.902 -0.1214  0.5602  0.1544
  311loPI   C1B 4973   8.007   3.206   9.509  0.2358 -0.2344 -0.2878
  311loPI   C2B 4974   8.107   3.181   9.083  0.2351  0.0965  0.1986
  311loPI   C3B 4975   8.174   3.205   8.647 -0.0667  0.3715 -0.0014
  311loPI   C4B 4976   8.001   3.346   8.237 -0.1098  0.0628  0.0073
  312loPI    C1 4977  11.453   6.797  10.461  0.1485 -0.0954  0.0171
  312loPI    C2 4978  11.338   6.630  10.806  0.3001 -0.0616  0.0846
  312loPI    C3 4979  11.203   6.484  10.458 -0.1654  0.1481  0.1693
  312loPI   PO4 4980  11.717   6.811  10.507  0.0133  0.0030 -0.2686
  312loPI   GL1 4981  11.888   6.914  10.118 -0.0919  0.0096 -0.2695
  312loPI   GL2 4982  11.931   6.532  10.094  0.0395  0.1688  0.2067
  312loPI   C1A 4983  11.711   6.934   9.734 -0.0607  0.2189  0.0880
  312loPI   C2A 4984  11.696   6.979   9.355  0.0280  0.1369 -0.0112
  312loPI   C3A 4985  11.826   6.938   8.922  0.0880 -0.3131  0.4278
  312loPI   C4A 4986  11.862   6.988   8.512 -0.1873 -0.0368 -0.5406
  312loPI   C5A 4987  11.704   7.256   8.128  0.0466 -0.0488 -0.1372
  312loPI   C6A 4988  11.724   7.558   7.805  0.0130  0.2072  0.0246
  312loPI   C1B 4989  11.965   6.508   9.645 -0.2453 -0.3095  0.2072
  312loPI   C2B 4990  12.048   6.587   9.287  0.0678  0.1210 -0.2251
  312loPI   C3B 4991  12.043   6.507   8.859 -0.1337 -0.1020  0.3434
  312loPI   C4B 4992  12.174   6.466   8.465 -0.0061  0.0453  0.0258
  313loPI    C1 4993  12.454  14.926  10.389 -0.1492  0.0359 -0.3064
  313loPI    C2 4994  12.413  14.581  10.190 -0.2833 -0.0581 -0.1190
  313loPI    C3 4995  12.156  14.676  10.482  0.0388 -0.0243  0.1595
  313loPI   PO4 4996  12.455  15.150  10.218 -0.0380 -0.1945  0.0484
  313loPI   GL1 4997  12.646  14.948   9.908 -0.0817  0.2777 -0.2111
  313loPI   GL2 4998  12.896  14.795   9.783  0.0830  0.1575  0.1977
  313loPI   C1A 4999  12.608  15.013   9.434  0.0729 -0.0432  0.2797
  313loPI   C2A 5000  12.591  14.822   9.074 -0.0783  0.1833  0.2843
  313loPI   C3A 5001  12.368  14.850   8.704 -0.0434 -0.0424  0.0932
  313loPI   C4A 5002  12.102  14.840   8.273 -0.0301  0.0929 -0.1235
  313loPI   C5A 5003  11.825  14.826   7.870  0.1313 -0.3881  0.3290
  313loPI   C6A 5004  11.641  14.450   7.703  0.1561 -0.1830 -0.1534
  313loPI   C1B 5005  12.898  14.553   9.448 -0.0952 -0.2727 -0.1864
  313loPI   C2B 5006  12.997  14.493   9.063 -0.1716 -0.1106  0.0050
  313loPI   C3B 5007  12.757  14.427   8.704  0.1404  0.1592  0.5027
  313loPI   C4B 5008  12.469  14.490   8.361  0.1279 -0.1357 -0.1452
  314loPI    C1 5009  11.788   6.907  11.001  0.0341 -0.2200  0.0252
  314loPI    C2 5010  12.187   6.898  10.973  0.0298 -0.2247 -0.0358
  314loPI    C3 5011  12.008   6.809  11.319  0.0898 -0.0317  0.0460
  314loPI   PO4 5012  11.703   7.158  10.850 -0.0935 -0.1202  0.0699
  314loPI   GL1 5013  11.680   7.343  10.420 -0.0380 -0.1169 -0.1807
  314loPI   GL2 5014  11.383   7.276  10.353  0.0824 -0.0881 -0.2864
  314loPI   C1A 5015  11.592   7.399   9.907  0.6249  0.0288 -0.0158
  314loPI   C2A 5016  11.492   7.375   9.583 -0.1222  0.0571 -0.1022
  314loPI   C3A 5017  11.541   7.398   9.127 -0.0751  0.0334 -0.0616
  314loPI   C4A 5018  11.561   7.368   8.745 -0.0766 -0.3101  0.2041
  314loPI   C5A 5019  11.378   7.473   8.439  0.4832  0.1261  0.0596
  314loPI   C6A 5020  11.055   7.396   8.132 -0.2391  0.2650  0.2628
  314loPI   C1B 5021  11.072   7.371  10.045 -0.0458  0.2791  0.0753
  314loPI   C2B 5022  11.025   7.444   9.670 -0.0110 -0.0936  0.0844
  314loPI   C3B 5023  11.065   7.469   9.278  0.0506  0.0544 -0.2616
  314loPI   C4B 5024  11.049   7.341   8.800 -0.0114 -0.3421 -0.2773
  315loPI    C1 5025  13.296  13.806  10.513  0.2232 -0.0115 -0.2143
  315loPI    C2 5026  13.015  14.027  10.692  0.1193 -0.1921 -0.1524
  315loPI    C3 5027  13.145  14.127  10.328  0.3967  0.2303  0.0554
  315loPI   PO4 5028  13.161  13.591  10.473  0.1130  0.2755  0.0372
  315loPI   GL1 5029  13.135  13.465  10.097  0.0726  0.1226  0.1801
  315loPI   GL2 5030  13.018  13.803   9.980 -0.2201 -0.0587  0.2551
  315loPI   C1A 5031  13.209  13.131   9.735 -0.1207 -0.2121  0.0389
  315loPI   C2A 5032  13.193  12.936   9.384 -0.2686 -0.0830  0.0313
  315loPI   C3A 5033  13.382  12.770   9.151 -0.0700 -0.1279  0.0308
  315loPI   C4A 5034  13.411  12.665   8.727 -0.2852  0.2758 -0.1268
  315loPI   C5A 5035  13.552  12.504   8.364  0.1404  0.0399 -0.4152
  315loPI   C6A 5036  13.530  12.487   7.895  0.0472 -0.1074  0.1351
  315loPI   C1B 5037  13.049  13.571   9.596 -0.1651  0.1813  0.0811
  315loPI   C2B 5038  13.178  13.670   9.154  0.2025  0.1639  0.1619
  315loPI   C3B 5039  13.451  13.690   8.811 -0.1602  0.0458  0.0378
  315loPI   C4B 5040  13.594  13.941   8.447  0.2839 -0.2218  0.0483
  316loPI    C1 5041   5.649   3.238  10.341 -0.1003 -0.0679 -0.0746
  316loPI    C2 5042   5.314   3.341  10.534 -0.0121  0.1490 -0.0333
  316loPI    C3 5043   5.654   3.288  10.738 -0.0240 -0.0901 -0.0726
  316loPI   PO4 5044   5.631   3.444  10.108  0.0042 -0.2393 -0.0138
  316loPI   GL1 5045   5.677   3.620   9.685  0.0165  0.0522  0.0869
  316loPI   GL2 5046   5.988   3.524   9.601 -0.1817  0.0154  0.1836
  316loPI   C1A 5047   5.387   3.980   9.479  0.3072 -0.2745  0.0731
  316loPI   C2A 5048   5.329   4.037   9.020  0.0472 -0.1085  0.1819
  316loPI   C3A 5049   5.466   4.052   8.714 -0.1088 -0.1821 -0.1287
  316loPI   C4A 5050   5.627   3.772   8.401  0.1534 -0.0023 -0.0789
  316loPI   C5A 5051   5.502   3.615   7.956  0.1274  0.0007  0.0254
  316loPI   C6A 5052   5.475   3.182   7.799  0.0805 -0.1103 -0.0997
  316loPI   C1B 5053   6.036   3.384   9.121  0.0144 -0.0432  0.0518
  316loPI   C2B 5054   6.028   3.510   8.556 -0.5629 -0.0244  0.2807
  316loPI   C3B 5055   5.968   3.400   8.102  0.3508 -0.0970  0.0701
  316loPI   C4B 5056   5.912   3.492   7.673  0.0472 -0.2049 -0.2182
  317loPI    C1 5057  13.195   0.563  10.394  0.1043  0.0348 -0.0825
  317loPI    C2 5058  12.923   0.852  10.442 -0.0619 -0.1399  0.0454
  317loPI    C3 5059  13.177   0.765  10.739 -0.0048 -0.1183  0.0031
  317loPI   PO4 5060  13.271   0.628  10.132 -0.2387 -0.0012  0.1511
  317loPI   GL1 5061  13.182   0.709   9.734  0.2569 -0.3099 -0.0315
  317loPI   GL2 5062  12.868   0.802   9.911 -0.1217  0.1494 -0.1051
  317loPI   C1A 5063  13.091   0.551   9.315  0.1400  0.0388 -0.1472
  317loPI   C2A 5064  12.978   0.451   8.985 -0.0171  0.1225 -0.2559
  317loPI   C3A 5065  12.848   0.300   8.654 -0.0675 -0.2038  0.1164
  317loPI   C4A 5066  12.909   0.455   8.242  0.1007 -0.1211  0.0038
  317loPI   C5A 5067  12.930   0.475   7.756 -0.0069  0.0037 -0.0611
  317loPI   C6A 5068  12.946   0.708   7.344  0.1559  0.0772  0.1245
  317loPI   C1B 5069  12.692   0.752   9.538  0.2265  0.0278 -0.1049
  317loPI   C2B 5070  12.786   0.933   9.091  0.0570  0.0418 -0.1371
  317loPI   C3B 5071  12.797   1.006   8.633  0.0498 -0.1394 -0.0978
  317loPI   C4B 5072  12.963   0.986   8.189  0.6113  0.5941 -0.0247
  318loPI    C1 5073   8.987   8.203  10.611  0.3661  0.1497  0.2744
  318loPI    C2 5074   8.743   8.518  10.639 -0.1226 -0.2026  0.1335
  318loPI    C3 5075   8.900   8.356  10.970 -0.1438 -0.0242  0.2326
  318loPI   PO4 5076   8.931   8.059  10.507  0.1349  0.4724  0.3629
  318loPI   GL1 5077   8.906   8.007  10.077 -0.1728  0.0285  0.0958
  318loPI   GL2 5078   8.611   8.185  10.144 -0.0268 -0.1681 -0.0276
  318loPI   C1A 5079   8.893   8.042   9.632  0.0426 -0.0848  0.0242
  318loPI   C2A 5080   8.851   8.144   9.231 -0.1476  0.3070 -0.1986
  318loPI   C3A 5081   8.800   8.122   8.827  0.3323  0.2139  0.2794
  318loPI   C4A 5082   8.854   8.180   8.452 -0.2095 -0.2791 -0.1034
  318loPI   C5A 5083   8.549   8.347   8.205  0.3619 -0.0520  0.0383
  318loPI   C6A 5084   8.110   8.469   8.287 -0.0223  0.1771 -0.1750
  318loPI   C1B 5085   8.590   8.463   9.878  0.1166 -0.0771 -0.1065
  318loPI   C2B 5086   8.615   8.637   9.396 -0.1170  0.1323 -0.1192
  318loPI   C3B 5087   8.578   8.701   8.968  0.0546  0.1900 -0.0044
  318loPI   C4B 5088   8.534   8.688   8.544 -0.2880  0.1547  0.0935
  319loPI    C1 5089   1.438   3.225  10.194 -0.1618  0.2009  0.1897
  319loPI    C2 5090   1.831   3.230  10.272 -0.1023  0.1474 -0.0950
  319loPI    C3 5091   1.580   3.449  10.493  0.0815  0.1463  0.1179
  319loPI   PO4 5092   1.395   3.086  10.100 -0.1311 -0.2498  0.2659
  319loPI   GL1 5093   1.466   2.986   9.719  0.1138  0.0530 -0.1878
  319loPI   GL2 5094   1.507   2.654   9.553 -0.1148  0.4451  0.1376
  319loPI   C1A 5095   1.657   3.073   9.333  0.0072  0.0441  0.1852
  319loPI   C2A 5096   1.543   3.058   8.917  0.1184 -0.1495 -0.1186
  319loPI   C3A 5097   1.574   3.103   8.482 -0.0908 -0.2725  0.0987
  319loPI   C4A 5098   1.699   2.999   8.062  0.0646 -0.1157  0.0532
  319loPI   C5A 5099   1.507   3.322   7.749 -0.0952  0.1104 -0.0552
  319loPI   C6A 5100   1.672   3.562   7.411 -0.0883  0.4020 -0.1131
  319loPI   C1B 5101   1.418   2.585   9.149 -0.0875  0.1636  0.4086
  319loPI   C2B 5102   1.548   2.575   8.743 -0.1112  0.0541 -0.1125
  319loPI   C3B 5103   1.487   2.559   8.385  0.0543  0.1104  0.0664
  319loPI   C4B 5104   1.333   2.315   8.049 -0.0001 -0.1477 -0.1353
  320loPI    C1 5105   0.308   7.669  10.681 -0.0931  0.0068  0.3450
  320loPI    C2 5106   0.643   7.576  10.878  0.0593  0.0002  0.0858
  320loPI    C3 5107   0.365   7.802  11.054  0.1852 -0.0197  0.3140
  320loPI   PO4 5108   0.353   7.674  10.442  0.3695 -0.0608 -0.0945
  320loPI   GL1 5109   0.092   7.756  10.093  0.0109  0.0016  0.1244
  320loPI   GL2 5110   0.166   8.068  10.035  0.1525  0.0338  0.0202
  320loPI   C1A 5111   0.024   7.703   9.673 -0.3143 -0.0382  0.0880
  320loPI   C2A 5112   0.160   7.824   9.314 -0.0080  0.0343 -0.2794
  320loPI   C3A 5113   0.175   7.934   8.905 -0.5622 -0.1480 -0.1379
  320loPI   C4A 5114   0.101   7.836   8.411  0.0046 -0.3021 -0.1213
  320loPI   C5A 5115  -0.293   7.838   8.164  0.1749  0.1237  0.0752
  320loPI   C6A 5116  -0.692   7.952   8.043 -0.0215 -0.1355  0.2208
  320loPI   C1B 5117   0.312   8.205   9.633 -0.1527 -0.2027 -0.3000
  320loPI   C2B 5118   0.408   8.283   9.201 -0.0134 -0.2736  0.0114
  320loPI   C3B 5119   0.437   8.428   8.761  0.4205  0.0419  0.1077
  320loPI   C4B 5120   0.401   8.245   8.414 -0.0196 -0.3746  0.0924
  321loPI    C1 5121   4.653  18.560   9.568  0.1837  0.1542  0.1201
  321loPI    C2 5122   4.991  18.454   9.382  0.1546  0.1092  0.0928
  321loPI    C3 5123   4.881  18.268   9.718  0.0242 -0.0554 -0.0387
  321loPI   PO4 5124   4.695  18.834   9.539 -0.0800  0.0328 -0.1669
  321loPI   GL1 5125   4.485  19.110   9.407  0.1475  0.0098 -0.0394
  321loPI   GL2 5126   4.788  19.110   9.123  0.0846 -0.1683 -0.3225
  321loPI   C1A 5127   4.282  18.972   8.995 -0.1841 -0.0773  0.1189
  321loPI   C2A 5128   4.416  18.870   8.663  0.2406 -0.0388  0.0623
  321loPI   C3A 5129   4.321  18.656   8.261  0.1317 -0.2062  0.2275
  321loPI   C4A 5130   4.550  18.638   7.843  0.0780 -0.0205  0.0470
  321loPI   C5A 5131   4.755  18.576   7.587 -0.0540 -0.1444  0.1750
  321loPI   C6A 5132   4.844  18.694   7.149  0.2609  0.0806  0.0402
  321loPI   C1B 5133   4.981  19.148   8.823  0.0410 -0.1503  0.0590
  321loPI   C2B 5134   5.174  19.458   8.538  0.3477 -0.0406 -0.1607
  321loPI   C3B 5135   5.422  19.656   8.127 -0.1590 -0.0187 -0.1046
  321loPI   C4B 5136   5.694  19.652   7.868  0.0947  0.0034 -0.0397
  322loPI    C1 5137   3.704  15.020   9.917  0.2036 -0.0202 -0.0059
  322loPI    C2 5138   3.779  14.939  10.301  0.1462 -0.0033  0.0087
  322loPI    C3 5139   3.650  14.650  10.057  0.1513 -0.0066  0.0100
  322loPI   PO4 5140   3.550  15.201   9.893 -0.0804 -0.1185  0.0398
  322loPI   GL1 5141   3.375  15.123   9.498  0.2999 -0.1398 -0.1215
  322loPI   GL2 5142   3.159  15.365   9.532 -0.2880 -0.0973  0.1666
  322loPI   C1A 5143   3.619  15.000   9.072  0.1251  0.0236  0.0314
  322loPI   C2A 5144   3.622  14.985   8.613  0.2048  0.0629  0.1849
  322loPI   C3A 5145   3.659  15.000   8.169 -0.0217 -0.0307 -0.0914
  322loPI   C4A 5146   4.001  15.019   7.876  0.1562  0.1008  0.0476
  322loPI   C5A 5147   4.182  15.153   7.544 -0.2933  0.0580  0.0225
  322loPI   C6A 5148   4.491  15.496   7.391 -0.5476 -0.1044  0.1223
  322loPI   C1B 5149   3.134  15.322   9.073 -0.0152 -0.0131  0.1478
  322loPI   C2B 5150   3.123  15.046   8.703 -0.2803 -0.2753  0.0131
  322loPI   C3B 5151   3.176  15.053   8.239 -0.0747  0.0111  0.0755
  322loPI   C4B 5152   3.072  14.830   7.881 -0.2034  0.0591  0.2489
  323loPI    C1 5153   6.172  11.060  10.425  0.1145  0.0172 -0.1437
  323loPI    C2 5154   5.994  10.715  10.523  0.0149  0.1264  0.0672
  323loPI    C3 5155   6.253  10.885  10.776  0.0110  0.2413 -0.0057
  323loPI   PO4 5156   6.299  10.968  10.147  0.1598 -0.1527 -0.1538
  323loPI   GL1 5157   6.109  10.872   9.796  0.1678  0.0439  0.1603
  323loPI   GL2 5158   5.952  11.198   9.803 -0.0905 -0.0539 -0.0973
  323loPI   C1A 5159   6.340  11.096   9.500 -0.1498 -0.0977  0.5117
  323loPI   C2A 5160   6.639  11.188   9.145 -0.0824 -0.2764 -0.2352
  323loPI   C3A 5161   6.657  11.198   8.716  0.1366  0.1305  0.2715
  323loPI   C4A 5162   6.651  11.056   8.275  0.2608  0.1477 -0.1795
  323loPI   C5A 5163   6.886  10.831   7.933  0.0848 -0.0567 -0.1911
  323loPI   C6A 5164   7.033  10.578   7.696  0.0048  0.2628  0.0676
  323loPI   C1B 5165   5.899  11.319   9.445 -0.2358  0.1474 -0.2747
  323loPI   C2B 5166   5.886  11.319   9.034  0.1552 -0.3860 -0.0186
  323loPI   C3B 5167   5.780  11.476   8.619  0.0531 -0.0931 -0.0097
  323loPI   C4B 5168   5.669  11.292   8.215 -0.3819 -0.4679  0.0920
  324loPI    C1 5169  13.498  14.585  10.543 -0.1795  0.0869 -0.0067
  324loPI    C2 5170  13.144  14.496  10.707 -0.1286  0.0433  0.0798
  324loPI    C3 5171  13.448  14.237  10.733 -0.1714 -0.0439 -0.2399
  324loPI   PO4 5172  13.476  14.613  10.383  0.2776 -0.3799  0.0849
  324loPI   GL1 5173  13.423  14.563   9.977 -0.1002  0.1090 -0.1998
  324loPI   GL2 5174  13.530  14.502   9.770 -0.0678  0.1260 -0.0219
  324loPI   C1A 5175  13.062  14.355   9.892 -0.1111 -0.1077 -0.1462
  324loPI   C2A 5176  12.958  14.084   9.497  0.0078 -0.0851  0.0084
  324loPI   C3A 5177  12.836  14.017   9.102 -0.0924  0.0097 -0.1499
  324loPI   C4A 5178  12.537  13.986   8.705  0.3107 -0.1857 -0.2053
  324loPI   C5A 5179  12.315  13.984   8.284 -0.1678  0.2155 -0.2817
  324loPI   C6A 5180  12.204  13.806   7.880 -0.0464 -0.2881 -0.0757
  324loPI   C1B 5181  13.386  14.418   9.423  0.0879 -0.0731 -0.1107
  324loPI   C2B 5182  13.349  14.148   9.069  0.1545  0.1990 -0.3801
  324loPI   C3B 5183  13.084  14.039   8.684 -0.0696  0.0499  0.1316
  324loPI   C4B 5184  12.968  14.057   8.308  0.0449  0.1365  0.1220
  325loPI    C1 5185   9.736  14.742   9.845 -0.0521  0.0395 -0.2126
  325loPI    C2 5186   9.456  14.786  10.127  0.0787 -0.2926 -0.0253
  325loPI    C3 5187   9.779  15.021  10.129 -0.1031 -0.0375 -0.1284
  325loPI   PO4 5188   9.813  14.499   9.871 -0.0649 -0.1703 -0.1090
  325loPI   GL1 5189  10.057  14.365   9.621 -0.2159  0.0159  0.0054
  325loPI   GL2 5190  10.386  14.306   9.666 -0.1027  0.1372  0.0060
  325loPI   C1A 5191   9.799  14.621   9.284  0.0945  0.1070 -0.0052
  325loPI   C2A 5192   9.915  14.589   8.783  0.0367 -0.3143  0.1653
  325loPI   C3A 5193  10.095  14.353   8.391  0.0793  0.0840  0.1414
  325loPI   C4A 5194  10.342  13.980   8.296  0.0582 -0.2428 -0.4430
  325loPI   C5A 5195  10.436  13.722   7.971 -0.1393 -0.0905 -0.0302
  325loPI   C6A 5196  10.699  13.879   7.588  0.3110  0.1377 -0.1258
  325loPI   C1B 5197  10.307  14.044   9.288  0.1062  0.1549  0.2430
  325loPI   C2B 5198  10.429  14.262   8.870 -0.1949  0.1201  0.2882
  325loPI   C3B 5199  10.642  14.431   8.468 -0.1001 -0.0215 -0.0663
  325loPI   C4B 5200  10.779  14.785   8.177 -0.0691 -0.2088 -0.0801
  326loPI    C1 5201  16.034   7.173  10.939 -0.1358  0.0345  0.1371
  326loPI    C2 5202  15.865   6.969  11.238 -0.1252 -0.2626 -0.0560
  326loPI    C3 5203  16.253   6.917  11.155 -0.0522  0.0534  0.0756
  326loPI   PO4 5204  15.888   7.093  10.732  0.1465  0.0001  0.0981
  326loPI   GL1 5205  15.877   6.877  10.302 -0.2072  0.1255 -0.2975
  326loPI   GL2 5206  15.520   6.858  10.363  0.0185  0.0078  0.2251
  326loPI   C1A 5207  16.032   6.811   9.899  0.1880  0.0528  0.1424
  326loPI   C2A 5208  15.984   6.760   9.496  0.2096  0.0331 -0.0434
  326loPI   C3A 5209  15.938   6.655   9.047  0.1162 -0.2163 -0.4653
  326loPI   C4A 5210  15.909   6.581   8.577  0.1181  0.3376 -0.0966
  326loPI   C5A 5211  16.050   6.497   8.152 -0.0849 -0.0634 -0.1186
  326loPI   C6A 5212  16.121   6.596   7.681  0.0479  0.2990  0.0234
  326loPI   C1B 5213  15.494   6.740   9.915 -0.0051  0.2300  0.3698
  326loPI   C2B 5214  15.383   6.770   9.509  0.2909  0.1188 -0.5009
  326loPI   C3B 5215  15.400   6.769   9.113  0.1786 -0.0859  0.0291
  326loPI   C4B 5216  15.443   6.720   8.652 -0.2996  0.1059 -0.2963
  327loPI    C1 5217   1.386   4.703  10.549 -0.0896 -0.0162 -0.0021
  327loPI    C2 5218   1.008   4.817  10.617  0.0030  0.1498  0.2504
  327loPI    C3 5219   1.228   4.667  10.915  0.0419 -0.2356  0.0347
  327loPI   PO4 5220   1.363   4.642  10.305  0.1387  0.4995 -0.1758
  327loPI   GL1 5221   1.190   4.367   9.958 -0.4033  0.0869 -0.0874
  327loPI   GL2 5222   0.735   4.430   9.970 -0.0741  0.1868 -0.0259
  327loPI   C1A 5223   0.993   4.135   9.595 -0.1703  0.1722 -0.4667
  327loPI   C2A 5224   1.180   3.946   9.229  0.2704  0.3056 -0.2465
  327loPI   C3A 5225   1.181   3.978   8.740 -0.0314  0.0318 -0.1956
  327loPI   C4A 5226   1.125   3.923   8.315 -0.0550 -0.0776 -0.2795
  327loPI   C5A 5227   0.937   3.833   8.005  0.1202 -0.4728  0.0520
  327loPI   C6A 5228   0.556   3.843   7.709 -0.1641 -0.0759 -0.1875
  327loPI   C1B 5229   0.544   4.586   9.594 -0.0612  0.2479 -0.0685
  327loPI   C2B 5230   0.472   4.620   9.150  0.0118 -0.0127 -0.1256
  327loPI   C3B 5231   0.468   4.880   8.777  0.2303 -0.0071  0.2347
  327loPI   C4B 5232   0.487   4.882   8.335 -0.2557 -0.3213 -0.1375
  328loPI    C1 5233   5.023  10.625  10.325 -0.0140 -0.0304 -0.0995
  328loPI    C2 5234   4.805  10.901  10.516  0.1509  0.1058 -0.1067
  328loPI    C3 5235   5.054  10.665  10.722 -0.0051 -0.0532 -0.0979
  328loPI   PO4 5236   5.204  10.816  10.125 -0.0624 -0.0543 -0.1586
  328loPI   GL1 5237   5.205  10.920   9.817 -0.2145  0.3516 -0.1950
  328loPI   GL2 5238   5.450  10.975   9.648  0.2576 -0.3244 -0.1029
  328loPI   C1A 5239   4.973  11.053   9.449 -0.0456  0.0447  0.1747
  328loPI   C2A 5240   4.853  11.335   9.176 -0.1251 -0.0073  0.0029
  328loPI   C3A 5241   4.648  11.190   8.791  0.1507 -0.1502  0.1507
  328loPI   C4A 5242   4.752  11.168   8.321 -0.0249  0.0121 -0.0904
  328loPI   C5A 5243   4.793  11.288   7.884 -0.1359  0.0850  0.1917
  328loPI   C6A 5244   4.787  11.335   7.570  0.0671  0.4568  0.1970
  328loPI   C1B 5245   5.491  11.120   9.266  0.1365 -0.0119 -0.0839
  328loPI   C2B 5246   5.413  11.206   8.817 -0.1119  0.3758 -0.3180
  328loPI   C3B 5247   5.223  11.037   8.470  0.1911 -0.0909  0.1988
  328loPI   C4B 5248   5.082  10.905   8.096  0.0302 -0.2329 -0.2376
  329loPI    C1 5249   4.499  12.987  10.607  0.0713  0.2648  0.0490
  329loPI    C2 5250   4.652  12.631  10.708 -0.2791  0.0767 -0.0653
  329loPI    C3 5251   4.875  12.962  10.741  0.0538 -0.1524  0.0332
  329loPI   PO4 5252   4.415  13.037  10.274 -0.0008 -0.2792 -0.1977
  329loPI   GL1 5253   4.391  12.958   9.861  0.0405 -0.2551  0.0217
  329loPI   GL2 5254   4.008  12.906   9.813  0.1661 -0.0049 -0.1738
  329loPI   C1A 5255   4.581  13.219   9.415 -0.1429  0.3535  0.3307
  329loPI   C2A 5256   4.451  13.289   9.008 -0.0650 -0.2938  0.0669
  329loPI   C3A 5257   4.475  13.265   8.689 -0.2038 -0.2721  0.0998
  329loPI   C4A 5258   4.442  13.289   8.317  0.1624 -0.1583  0.1685
  329loPI   C5A 5259   4.412  13.151   7.884 -0.0218  0.1667 -0.2512
  329loPI   C6A 5260   4.256  12.946   7.548  0.0055 -0.0382  0.3648
  329loPI   C1B 5261   4.059  12.799   9.414  0.1535 -0.3379  0.2624
  329loPI   C2B 5262   4.055  12.941   8.941 -0.0022 -0.2927  0.2863
  329loPI   C3B 5263   4.042  12.912   8.447  0.1461  0.2864 -0.1377
  329loPI   C4B 5264   3.946  12.979   8.013 -0.1818 -0.0359  0.0122
  330loPI    C1 5265   8.072  15.485  10.298 -0.1657  0.1561  0.0762
  330loPI    C2 5266   8.205  15.792  10.518  0.1079  0.0850  0.0138
  330loPI    C3 5267   8.267  15.417  10.641 -0.1352  0.0516  0.0382
  330loPI   PO4 5268   8.135  15.557  10.016 -0.1849 -0.3209 -0.0116
  330loPI   GL1 5269   8.163  15.261   9.585  0.3560 -0.1110  0.1041
  330loPI   GL2 5270   8.251  15.451   9.372 -0.0972 -0.0241 -0.2733
  330loPI   C1A 5271   8.280  14.925   9.343  0.0418 -0.0100 -0.0005
  330loPI   C2A 5272   8.410  14.806   8.915  0.3519  0.2096  0.4013
  330loPI   C3A 5273   8.719  14.651   8.612 -0.3144 -0.1053 -0.1872
  330loPI   C4A 5274   8.790  14.841   8.187  0.1960  0.3320 -0.0097
  330loPI   C5A 5275   8.908  14.673   7.756 -0.3825  0.0101  0.1342
  330loPI   C6A 5276   9.125  14.609   7.340  0.0846  0.2448 -0.0388
  330loPI   C1B 5277   8.510  15.424   9.053 -0.0138 -0.1904 -0.1476
  330loPI   C2B 5278   8.683  15.247   8.705  0.5164  0.1108 -0.3206
  330loPI   C3B 5279   8.849  15.311   8.292 -0.0560  0.0262 -0.0007
  330loPI   C4B 5280   8.708  15.635   8.031  0.0904 -0.3269 -0.1785
  331loPI    C1 5281  14.236  10.266  10.934 -0.0519 -0.0553  0.2100
  331loPI    C2 5282  14.268  10.183  11.324  0.1424 -0.1766  0.1693
  331loPI    C3 5283  14.369  10.545  11.188 -0.1003 -0.0740  0.2562
  331loPI   PO4 5284  14.050  10.133  10.815 -0.3398  0.0851  0.1692
  331loPI   GL1 5285  14.097  10.004  10.413  0.0693 -0.0037  0.0294
  331loPI   GL2 5286  14.487  10.111  10.434 -0.1878  0.1033  0.1165
  331loPI   C1A 5287  14.396   9.844  10.070  0.2421  0.1607 -0.0113
  331loPI   C2A 5288  14.499   9.494   9.832 -0.2860 -0.1201 -0.0132
  331loPI   C3A 5289  14.608   9.415   9.416  0.3860 -0.1416  0.0425
  331loPI   C4A 5290  14.539   9.488   9.038 -0.0495 -0.1153 -0.0106
  331loPI   C5A 5291  14.600   9.654   8.596  0.0755  0.2426 -0.0534
  331loPI   C6A 5292  14.790   9.807   8.218 -0.1106  0.3054 -0.2904
  331loPI   C1B 5293  14.269  10.275  10.042 -0.0392  0.0255  0.2886
  331loPI   C2B 5294  14.165  10.357   9.620 -0.0261  0.0088  0.0359
  331loPI   C3B 5295  14.596  10.426   9.342 -0.3801 -0.0829  0.0037
  331loPI   C4B 5296  15.054  10.330   9.406 -0.0119  0.2281  0.4124
  332loPI    C1 5297   5.462  12.655  10.418  0.1691  0.0321 -0.2017
  332loPI    C2 5298   5.168  12.580  10.678  0.1472  0.0194 -0.2301
  332loPI    C3 5299   5.434  12.869  10.754  0.0842  0.0800 -0.2392
  332loPI   PO4 5300   5.318  12.674  10.203 -0.3213  0.2869  0.2594
  332loPI   GL1 5301   4.992  12.757   9.766 -0.0079 -0.0725 -0.2124
  332loPI   GL2 5302   5.109  12.487   9.796  0.0839 -0.1596 -0.0766
  332loPI   C1A 5303   5.051  13.040   9.468 -0.0649  0.0281  0.0837
  332loPI   C2A 5304   4.952  13.141   9.031  0.0037 -0.0245  0.2297
  332loPI   C3A 5305   4.942  13.098   8.606  0.0834  0.0350 -0.0920
  332loPI   C4A 5306   4.886  13.037   8.182  0.1579  0.0105 -0.0473
  332loPI   C5A 5307   5.035  13.053   7.820 -0.0126  0.0160 -0.3070
  332loPI   C6A 5308   5.229  13.139   7.482  0.0250  0.0383  0.1936
  332loPI   C1B 5309   5.088  12.526   9.362 -0.0971 -0.1149 -0.0438
  332loPI   C2B 5310   5.044  12.557   8.892 -0.1442 -0.1774  0.2650
  332loPI   C3B 5311   4.986  12.603   8.459  0.2010 -0.0025  0.1610
  332loPI   C4B 5312   4.920  12.527   8.057 -0.0425 -0.0198 -0.2655
  333loPI    C1 5313  12.621  10.725  10.830  0.0821  0.2930  0.0104
  333loPI    C2 5314  12.466  10.701  11.197  0.1001  0.0577  0.0044
  333loPI    C3 5315  12.573  11.056  11.048 -0.0973  0.1789  0.1467
  333loPI   PO4 5316  12.451  10.581  10.710  0.2011  0.2167  0.0938
  333loPI   GL1 5317  12.401  10.310  10.292  0.3217 -0.1321 -0.1007
  333loPI   GL2 5318  12.579  10.515  10.201 -0.3919 -0.1379 -0.1141
  333loPI   C1A 5319  12.315  10.073   9.824 -0.0355 -0.0371 -0.1947
  333loPI   C2A 5320  12.291   9.986   9.370  0.0275 -0.3191  0.1410
  333loPI   C3A 5321  12.390   9.959   8.910 -0.0221  0.0186 -0.0035
  333loPI   C4A 5322  12.440   9.981   8.451 -0.0586  0.2478  0.2625
  333loPI   C5A 5323  12.427  10.128   8.074  0.3159 -0.1944  0.2197
  333loPI   C6A 5324  12.112  10.184   7.826 -0.0694  0.0421 -0.0722
  333loPI   C1B 5325  12.520  10.628   9.778  0.1075  0.2813 -0.1788
  333loPI   C2B 5326  12.623  10.532   9.412  0.1214 -0.0043  0.1775
  333loPI   C3B 5327  12.670  10.365   8.940 -0.2454 -0.4172 -0.2447
  333loPI   C4B 5328  12.869  10.289   8.520  0.1825 -0.0676 -0.2200
  334loPI    C1 5329   2.268   8.998  10.470  0.3799  0.1014  0.0284
  334loPI    C2 5330   2.032   9.296  10.345 -0.1290 -0.1995  0.2391
  334loPI    C3 5331   2.137   9.272  10.731  0.2999 -0.0398  0.1383
  334loPI   PO4 5332   2.364   8.947  10.214 -0.1712  0.1155 -0.0171
  334loPI   GL1 5333   2.629   8.976   9.850 -0.0264 -0.2098 -0.0609
  334loPI   GL2 5334   2.579   9.284   9.822 -0.1417 -0.2487  0.1186
  334loPI   C1A 5335   2.671   8.989   9.408 -0.2051  0.0089 -0.1186
  334loPI   C2A 5336   2.511   8.810   9.107  0.3272 -0.0290 -0.0469
  334loPI   C3A 5337   2.256   8.713   8.793 -0.1050  0.0607 -0.0943
  334loPI   C4A 5338   2.232   8.636   8.435 -0.0817 -0.4572 -0.0074
  334loPI   C5A 5339   2.312   8.317   8.168 -0.0255 -0.0763 -0.2495
  334loPI   C6A 5340   2.292   7.909   8.094  0.1205 -0.1562 -0.0527
  334loPI   C1B 5341   2.460   9.575   9.499  0.1390 -0.3903 -0.3653
  334loPI   C2B 5342   2.302   9.705   9.154  0.2552 -0.0903 -0.0650
  334loPI   C3B 5343   2.232   9.660   8.733 -0.1840 -0.0354 -0.0138
  334loPI   C4B 5344   2.127   9.649   8.298 -0.0518 -0.0105  0.0373
  335loPI    C1 5345   1.770  15.151  10.522  0.2333  0.2474  0.0395
  335loPI    C2 5346   2.021  15.384  10.729  0.1930  0.1291  0.2237
  335loPI    C3 5347   1.762  15.148  10.922  0.1903 -0.0218  0.0387
  335loPI   PO4 5348   1.828  15.248  10.263  0.1057  0.0694 -0.1908
  335loPI   GL1 5349   1.901  15.240   9.905  0.2575  0.3150 -0.0185
  335loPI   GL2 5350   1.725  15.597   9.931 -0.0960  0.2322 -0.2394
  335loPI   C1A 5351   1.842  15.172   9.396  0.2788  0.1418  0.3669
  335loPI   C2A 5352   1.778  15.140   8.915 -0.0200 -0.1359 -0.3554
  335loPI   C3A 5353   1.740  15.203   8.490 -0.1192 -0.1253  0.0531
  335loPI   C4A 5354   1.809  15.471   8.087 -0.3119  0.1215  0.1414
  335loPI   C5A 5355   2.084  15.608   7.837  0.0548 -0.0910  0.4376
  335loPI   C6A 5356   2.495  15.566   7.851 -0.0893  0.3644 -0.2477
  335loPI   C1B 5357   1.722  15.697   9.537 -0.0788 -0.3085  0.0224
  335loPI   C2B 5358   1.835  15.630   9.123  0.1160 -0.1463 -0.1340
  335loPI   C3B 5359   1.756  15.770   8.827  0.0648  0.0745  0.0637
  335loPI   C4B 5360   1.594  15.730   8.445  0.0142 -0.0221  0.0251
  336loPI    C1 5361   6.471   1.498  10.183 -0.0721 -0.1476 -0.0504
  336loPI    C2 5362   6.693   1.202  10.334 -0.0734 -0.0661  0.1124
  336loPI    C3 5363   6.368   1.330  10.531 -0.2254 -0.1363 -0.0893
  336loPI   PO4 5364   6.599   1.511   9.947 -0.2885 -0.0500  0.2450
  336loPI   GL1 5365   6.526   1.702   9.548  0.2553 -0.0722 -0.1608
  336loPI   GL2 5366   6.287   1.354   9.532  0.1758  0.1308 -0.2323
  336loPI   C1A 5367   6.523   1.900   9.132 -0.0503  0.4229  0.0983
  336loPI   C2A 5368   6.551   2.233   8.767 -0.0686 -0.1336 -0.1349
  336loPI   C3A 5369   6.281   2.509   8.453  0.4129 -0.0337 -0.1149
  336loPI   C4A 5370   5.964   2.673   8.202  0.1527 -0.1304  0.0822
  336loPI   C5A 5371   5.917   2.909   7.840 -0.3733 -0.5794  0.4587
  336loPI   C6A 5372   6.208   2.909   7.501  0.3137  0.0631 -0.2253
  336loPI   C1B 5373   6.052   1.637   9.325 -0.1758  0.0142 -0.2645
  336loPI   C2B 5374   6.058   1.994   9.012  0.2596 -0.0684  0.0307
  336loPI   C3B 5375   5.864   2.280   8.642 -0.0144 -0.0778  0.0644
  336loPI   C4B 5376   5.555   2.530   8.586 -0.0928 -0.3061  0.0998
  337loPI    C1 5377  11.323   1.703  10.442 -0.1570  0.0312 -0.1075
  337loPI    C2 5378  11.475   1.894  10.759 -0.0150 -0.3468  0.0590
  337loPI    C3 5379  11.079   1.843  10.727 -0.0789  0.1904 -0.1180
  337loPI   PO4 5380  11.443   1.910  10.164  0.0779  0.0538  0.2191
  337loPI   GL1 5381  11.294   2.024   9.799 -0.0603  0.0876 -0.1652
  337loPI   GL2 5382  11.260   1.826   9.538  0.2655  0.5165  0.1939
  337loPI   C1A 5383  11.098   2.320   9.483 -0.0321  0.0284 -0.0804
  337loPI   C2A 5384  10.975   2.571   9.215  0.0723 -0.1906  0.0538
  337loPI   C3A 5385  10.991   2.574   8.742  0.0308  0.1268 -0.1163
  337loPI   C4A 5386  10.979   2.563   8.325 -0.0147  0.0419 -0.2975
  337loPI   C5A 5387  11.193   2.361   7.949 -0.0767 -0.0011  0.0678
  337loPI   C6A 5388  11.477   2.034   7.906  0.0506  0.1265 -0.0932
  337loPI   C1B 5389  11.509   2.009   9.334 -0.1387  0.0670 -0.2879
  337loPI   C2B 5390  11.730   2.048   9.080 -0.1125  0.0982  0.1921
  337loPI   C3B 5391  11.788   2.021   8.616 -0.1734 -0.0700 -0.1262
  337loPI   C4B 5392  11.871   1.994   8.221  0.1699  0.0706 -0.1744
  338loPI    C1 5393  17.183  11.772  10.856 -0.1198  0.2081 -0.0722
  338loPI    C2 5394  16.914  11.787  11.151 -0.1343  0.1246 -0.0809
  338loPI    C3 5395  17.134  12.110  11.064 -0.0185  0.1030  0.1256
  338loPI   PO4 5396  17.041  11.691  10.652 -0.0696 -0.3694  0.1342
  338loPI   GL1 5397  17.020  11.395  10.391  0.2047  0.3380 -0.0190
  338loPI   GL2 5398  17.215  11.182  10.246  0.1359  0.0215  0.2117
  338loPI   C1A 5399  16.912  11.610  10.075 -0.0399  0.1982  0.1577
  338loPI   C2A 5400  16.865  11.854   9.764  0.0483  0.1962  0.0062
  338loPI   C3A 5401  16.795  11.894   9.373 -0.0282 -0.1824 -0.3194
  338loPI   C4A 5402  16.543  11.854   9.129  0.0579 -0.2584 -0.1884
  338loPI   C5A 5403  16.505  11.623   8.828 -0.2067  0.0806 -0.0885
  338loPI   C6A 5404  16.431  11.461   8.402  0.0037  0.3646 -0.0439
  338loPI   C1B 5405  17.357  11.109   9.856 -0.3316 -0.0294 -0.0198
  338loPI   C2B 5406  17.439  11.165   9.446  0.1078  0.2504 -0.0736
  338loPI   C3B 5407  17.384  11.111   8.948  0.3974  0.2047 -0.1682
  338loPI   C4B 5408  17.361  11.066   8.536  0.0812  0.2306 -0.3335
  339loPI    C1 5409   0.494   9.203  10.856 -0.0154 -0.1711  0.0149
  339loPI    C2 5410   0.362   8.967  11.151  0.1317 -0.1915  0.0652
  339loPI    C3 5411   0.643   9.242  11.225 -0.1465  0.1054  0.0410
  339loPI   PO4 5412   0.314   9.098  10.667  0.0440 -0.1349 -0.2290
  339loPI   GL1 5413   0.257   9.072  10.185  0.2381 -0.0715  0.1762
  339loPI   GL2 5414   0.582   9.182  10.044  0.4954 -0.0389  0.2717
  339loPI   C1A 5415  -0.032   9.050   9.777  0.0572  0.1289 -0.0135
  339loPI   C2A 5416  -0.137   9.112   9.312  0.2265 -0.1678  0.0388
  339loPI   C3A 5417  -0.124   9.224   8.851 -0.0551 -0.0528  0.2216
  339loPI   C4A 5418  -0.233   9.341   8.426  0.0430  0.1374  0.3766
  339loPI   C5A 5419  -0.204   9.248   7.994  0.2446  0.3280  0.0927
  339loPI   C6A 5420  -0.164   9.045   7.540 -0.1307  0.2968 -0.0075
  339loPI   C1B 5421   0.310   9.483   9.859 -0.2912 -0.1986  0.1197
  339loPI   C2B 5422   0.171   9.502   9.438  0.0282 -0.4476 -0.1398
  339loPI   C3B 5423   0.172   9.600   9.023 -0.0461  0.2249 -0.2129
  339loPI   C4B 5424   0.423   9.494   8.617 -0.0151  0.0475  0.3023
  340loPI    C1 5425  14.720  15.849  10.502 -0.3163 -0.1714 -0.2273
  340loPI    C2 5426  14.697  16.170  10.739 -0.0077 -0.2462 -0.0896
  340loPI    C3 5427  14.648  15.804  10.893  0.1679 -0.2938 -0.1446
  340loPI   PO4 5428  14.607  15.865  10.324 -0.0403 -0.0885  0.0225
  340loPI   GL1 5429  14.552  15.740   9.849 -0.2044  0.2159  0.3451
  340loPI   GL2 5430  14.640  15.953   9.670  0.0354 -0.2139 -0.1297
  340loPI   C1A 5431  14.352  15.622   9.414  0.0884 -0.0362 -0.0402
  340loPI   C2A 5432  14.402  15.608   8.971 -0.4058  0.6024  0.1300
  340loPI   C3A 5433  14.279  15.447   8.663 -0.0302 -0.0128 -0.1593
  340loPI   C4A 5434  14.073  15.265   8.243  0.1082 -0.2713 -0.0288
  340loPI   C5A 5435  13.715  14.940   7.997 -0.2713 -0.0634 -0.0880
  340loPI   C6A 5436  13.565  14.553   7.708 -0.0352  0.2077  0.0571
  340loPI   C1B 5437  14.791  15.854   9.339 -0.1361 -0.2272 -0.3779
  340loPI   C2B 5438  14.831  15.862   8.866  0.1120 -0.1638  0.3746
  340loPI   C3B 5439  14.558  15.800   8.552  0.1181  0.0419  0.0172
  340loPI   C4B 5440  14.465  15.664   8.169 -0.0226  0.2175  0.4071
  341loPI    C1 5441  16.673   2.918  10.470 -0.1310  0.0891 -0.0259
  341loPI    C2 5442  16.541   3.070  10.125  0.0647  0.0721 -0.1095
  341loPI    C3 5443  16.601   3.310  10.439 -0.4228  0.0416  0.0161
  341loPI   PO4 5444  16.843   2.731  10.359 -0.0388  0.4368 -0.0430
  341loPI   GL1 5445  16.979   2.820   9.973 -0.2549 -0.0083 -0.0714
  341loPI   GL2 5446  17.106   3.030   9.859  0.1113 -0.3806  0.1310
  341loPI   C1A 5447  16.860   2.474   9.645 -0.0284  0.0043  0.0973
  341loPI   C2A 5448  17.160   2.337   9.353  0.2351  0.0008 -0.0926
  341loPI   C3A 5449  17.291   2.052   9.141 -0.0757  0.1721 -0.2633
  341loPI   C4A 5450  17.244   1.709   8.984 -0.1661 -0.1657  0.2105
  341loPI   C5A 5451  17.384   1.331   9.143 -0.1097 -0.2634  0.0055
  341loPI   C6A 5452  17.178   0.968   9.249 -0.1104 -0.0550 -0.0440
  341loPI   C1B 5453  17.300   3.286   9.520  0.1585 -0.2332 -0.4210
  341loPI   C2B 5454  17.504   3.222   9.107  0.0834  0.1222  0.0071
  341loPI   C3B 5455  17.630   3.397   8.721 -0.1790  0.2004  0.0902
  341loPI   C4B 5456  17.525   3.823   8.514  0.0276 -0.0660  0.0555
  342loPI    C1 5457   4.142  17.324   9.968 -0.0819  0.0041  0.0229
  342loPI    C2 5458   4.174  16.931  10.035  0.0310  0.0107  0.0084
  342loPI    C3 5459   4.197  17.189  10.341  0.0123  0.0091  0.0111
  342loPI   PO4 5460   4.354  17.368   9.724  0.0520 -0.2685  0.0032
  342loPI   GL1 5461   4.291  17.264   9.326 -0.2369 -0.0606  0.0487
  342loPI   GL2 5462   4.611  17.069   9.121  0.2402 -0.0261  0.2500
  342loPI   C1A 5463   4.234  17.605   9.047  0.1150  0.1601 -0.2558
  342loPI   C2A 5464   4.123  17.982   8.880 -0.1654 -0.0822  0.0735
  342loPI   C3A 5465   4.395  18.288   8.594 -0.0990 -0.0386  0.3539
  342loPI   C4A 5466   4.750  18.386   8.342 -0.0320 -0.2946  0.0171
  342loPI   C5A 5467   4.954  18.281   7.993 -0.3488  0.3127 -0.1700
  342loPI   C6A 5468   5.245  18.021   7.860  0.2030 -0.0805 -0.0095
  342loPI   C1B 5469   4.330  17.186   8.770 -0.0733 -0.2132 -0.0042
  342loPI   C2B 5470   4.141  17.445   8.424  0.1490 -0.2306 -0.1917
  342loPI   C3B 5471   4.300  17.822   8.281 -0.4145 -0.1302  0.1459
  342loPI   C4B 5472   4.405  18.202   8.036 -0.1037  0.2353 -0.3149
  343loPI    C1 5473   7.630   8.916  10.926 -0.0236 -0.1174 -0.0820
  343loPI    C2 5474   7.513   8.610  11.156  0.2449 -0.2206 -0.0790
  343loPI    C3 5475   7.668   8.939  11.324 -0.0734 -0.0666 -0.0801
  343loPI   PO4 5476   7.733   8.766  10.717 -0.1461 -0.3580 -0.3153
  343loPI   GL1 5477   7.737   8.818  10.292  0.2384  0.1611 -0.1033
  343loPI   GL2 5478   7.447   8.624  10.245 -0.1364  0.1056  0.1967
  343loPI   C1A 5479   7.572   9.114  10.107  0.3464  0.1697 -0.0450
  343loPI   C2A 5480   7.489   9.242   9.739 -0.0129  0.2412 -0.0971
  343loPI   C3A 5481   7.270   9.294   9.371 -0.1665 -0.0145  0.0722
  343loPI   C4A 5482   7.196   9.350   9.000  0.0822 -0.0416  0.1172
  343loPI   C5A 5483   7.185   9.576   8.553 -0.1181  0.1020  0.1828
  343loPI   C6A 5484   7.499   9.639   8.162 -0.1526 -0.1362 -0.0139
  343loPI   C1B 5485   7.557   8.701   9.784  0.1959  0.2370  0.0143
  343loPI   C2B 5486   7.581   8.779   9.435 -0.0953  0.0811 -0.1719
  343loPI   C3B 5487   7.564   8.612   9.026  0.2380  0.1402  0.3944
  343loPI   C4B 5488   7.652   8.648   8.604  0.1289  0.0998 -0.1194
  344loPI    C1 5489  18.096   4.200  10.566 -0.2100  0.0465  0.0872
  344loPI    C2 5490  18.346   4.040  10.834 -0.0320 -0.1486 -0.1907
  344loPI    C3 5491  18.328   4.437  10.790  0.0886 -0.1250 -0.0345
  344loPI   PO4 5492  18.127   4.142  10.221  0.0619  0.1172 -0.1287
  344loPI   GL1 5493  18.045   3.941   9.753 -0.1327  0.0400  0.2255
  344loPI   GL2 5494  18.208   4.154   9.581 -0.1054  0.1238 -0.0133
  344loPI   C1A 5495  18.184   3.717   9.326  0.1180 -0.0529 -0.1856
  344loPI   C2A 5496  18.469   3.409   9.336  0.0802  0.0355  0.0990
  344loPI   C3A 5497  18.816   3.157   9.255  0.0876 -0.3178  0.0599
  344loPI   C4A 5498  18.919   2.897   8.904 -0.3821  0.1056  0.2358
  344loPI   C5A 5499  19.163   2.768   8.575 -0.0980 -0.2106  0.4347
  344loPI   C6A 5500  19.455   2.817   8.159 -0.2517  0.0715 -0.0120
  344loPI   C1B 5501  18.367   4.321   9.212 -0.3400  0.0728 -0.0413
  344loPI   C2B 5502  18.218   4.463   8.977  0.0032  0.0839  0.2545
  344loPI   C3B 5503  18.247   4.440   8.439  0.2590  0.2396  0.0954
  344loPI   C4B 5504  18.270   4.655   8.047  0.0785  0.2367  0.0253
  345loPI    C1 5505   2.189   8.443  10.207 -0.0344 -0.1122 -0.0237
  345loPI    C2 5506   2.001   8.355  10.549  0.0614 -0.0004  0.0583
  345loPI    C3 5507   2.393   8.437  10.551  0.0544  0.0383 -0.0729
  345loPI   PO4 5508   2.136   8.203  10.086 -0.3765 -0.2830 -0.1558
  345loPI   GL1 5509   1.897   8.050   9.737 -0.0145 -0.2205 -0.4598
  345loPI   GL2 5510   1.815   8.374   9.696  0.1218 -0.1330 -0.4180
  345loPI   C1A 5511   1.709   7.786   9.382  0.0135 -0.3841  0.0303
  345loPI   C2A 5512   1.592   7.422   9.149 -0.1256 -0.0393 -0.0432
  345loPI   C3A 5513   1.738   7.203   8.839 -0.0531  0.1378 -0.0951
  345loPI   C4A 5514   1.872   6.929   8.470  0.0241  0.1636  0.1466
  345loPI   C5A 5515   1.809   6.996   8.078  0.0953 -0.0089  0.2257
  345loPI   C6A 5516   1.792   6.711   7.753  0.1673  0.0521  0.0817
  345loPI   C1B 5517   1.655   8.316   9.324  0.1202 -0.0129 -0.0761
  345loPI   C2B 5518   1.450   8.074   9.051  0.1059 -0.1072 -0.1644
  345loPI   C3B 5519   1.609   7.800   8.808  0.0783 -0.2594 -0.1349
  345loPI   C4B 5520   1.461   7.453   8.508 -0.1071  0.1092 -0.0670
  346loPI    C1 5521  10.424   3.920  10.826 -0.1030 -0.2060 -0.0924
  346loPI    C2 5522  10.237   4.254  10.710  0.2876  0.0381 -0.0379
  346loPI    C3 5523  10.310   4.190  11.098  0.2589 -0.0881 -0.0529
  346loPI   PO4 5524  10.475   3.895  10.429  0.2067 -0.1437 -0.3696
  346loPI   GL1 5525  10.545   4.060  10.057  0.0980  0.0781 -0.0349
  346loPI   GL2 5526  10.783   3.902   9.998 -0.1095 -0.1756 -0.1907
  346loPI   C1A 5527  10.486   4.251   9.663 -0.1062 -0.0350  0.0393
  346loPI   C2A 5528  10.495   4.277   9.292 -0.0922  0.0699  0.0391
  346loPI   C3A 5529  10.514   4.325   8.856 -0.1272 -0.1069  0.0783
  346loPI   C4A 5530  10.525   4.359   8.373  0.2614  0.3079  0.0358
  346loPI   C5A 5531  10.609   4.234   7.910  0.1159 -0.0570 -0.0095
  346loPI   C6A 5532  10.462   3.834   7.818 -0.0710  0.1534 -0.0226
  346loPI   C1B 5533  10.808   3.877   9.571  0.0747 -0.2230  0.1023
  346loPI   C2B 5534  10.776   3.893   9.066 -0.0480 -0.0350 -0.0053
  346loPI   C3B 5535  10.808   3.897   8.611  0.2851 -0.3565  0.0288
  346loPI   C4B 5536  10.807   3.777   8.223  0.0815 -0.1474  0.4537
  347loPI    C1 5537  12.966  18.461  10.321  0.0280 -0.0103 -0.0718
  347loPI    C2 5538  13.209  18.723  10.502  0.2716 -0.2446 -0.0519
  347loPI    C3 5539  13.054  18.418  10.709 -0.0565 -0.0884 -0.0609
  347loPI   PO4 5540  13.001  18.518  10.053  0.0754  0.0542  0.0054
  347loPI   GL1 5541  13.113  18.239   9.747 -0.0851 -0.0171 -0.0568
  347loPI   GL2 5542  13.395  18.018   9.610 -0.0339 -0.0585 -0.1189
  347loPI   C1A 5543  13.074  18.201   9.184  0.0587  0.1535 -0.1118
  347loPI   C2A 5544  13.149  18.040   8.708  0.0722  0.0401 -0.1079
  347loPI   C3A 5545  13.194  18.047   8.238 -0.1665 -0.0383  0.0156
  347loPI   C4A 5546  13.306  18.364   7.959  0.3188  0.3284  0.1458
  347loPI   C5A 5547  13.545  18.586   7.628  0.4230  0.1457 -0.1348
  347loPI   C6A 5548  13.769  18.907   7.627  0.2163 -0.0962 -0.1145
  347loPI   C1B 5549  13.523  18.359   9.336  0.0924  0.1375  0.1468
  347loPI   C2B 5550  13.474  18.445   8.951 -0.1028 -0.2084 -0.0359
  347loPI   C3B 5551  13.518  18.448   8.435  0.0563 -0.1334 -0.1945
  347loPI   C4B 5552  13.678  18.606   8.123  0.1473  0.0342  0.2172
  348loPI    C1 5553   3.690  17.522  10.099 -0.4563  0.0775  0.1932
  348loPI    C2 5554   3.955  17.629  10.379 -0.1593 -0.2873  0.0603
  348loPI    C3 5555   3.563  17.662  10.452 -0.0842  0.1444  0.3046
  348loPI   PO4 5556   3.739  17.622   9.886  0.1440 -0.2169  0.2585
  348loPI   GL1 5557   3.933  17.989   9.527 -0.2154 -0.1959 -0.0532
  348loPI   GL2 5558   4.041  17.711   9.492  0.0440 -0.0338  0.1241
  348loPI   C1A 5559   3.669  18.147   9.291  0.0928 -0.0120  0.3750
  348loPI   C2A 5560   3.681  18.186   8.827  0.1836  0.2570  0.0955
  348loPI   C3A 5561   3.961  18.224   8.368  0.1035 -0.3055  0.0723
  348loPI   C4A 5562   3.945  18.485   7.971  0.0004  0.1554  0.1617
  348loPI   C5A 5563   4.088  18.604   7.521 -0.1079 -0.0838  0.1111
  348loPI   C6A 5564   4.424  18.456   7.159  0.1022 -0.0199  0.1926
  348loPI   C1B 5565   3.779  17.659   9.140 -0.0904 -0.0351  0.1072
  348loPI   C2B 5566   3.719  17.670   8.693  0.0227  0.1311 -0.0144
  348loPI   C3B 5567   3.465  17.978   8.420 -0.0781  0.0859 -0.0573
  348loPI   C4B 5568   3.570  18.087   8.121  0.1580  0.1796 -0.2930
  349loPI    C1 5569   4.441  10.905  10.213  0.1586  0.0840  0.0733
  349loPI    C2 5570   4.115  10.759  10.394  0.2374 -0.1606  0.0216
  349loPI    C3 5571   4.259  11.116  10.500 -0.1247  0.0111 -0.0485
  349loPI   PO4 5572   4.456  10.871   9.966  0.1846  0.0565 -0.0182
  349loPI   GL1 5573   4.463  10.830   9.658 -0.2520 -0.3087  0.2053
  349loPI   GL2 5574   4.129  10.873   9.548 -0.2421  0.1754  0.0013
  349loPI   C1A 5575   4.748  10.659   9.228  0.0547  0.0786 -0.0179
  349loPI   C2A 5576   4.768  10.661   8.756 -0.2184 -0.3575  0.1064
  349loPI   C3A 5577   4.755  10.502   8.344 -0.1158  0.1184 -0.1284
  349loPI   C4A 5578   5.012  10.482   7.933 -0.0913  0.0116  0.1044
  349loPI   C5A 5579   4.971  10.587   7.431 -0.1147  0.1716 -0.0116
  349loPI   C6A 5580   5.080  10.675   6.983 -0.1101 -0.1436 -0.1363
  349loPI   C1B 5581   3.826  10.952   9.263 -0.1463 -0.2916  0.1078
  349loPI   C2B 5582   3.790  11.056   8.817 -0.1931  0.2462  0.0349
  349loPI   C3B 5583   3.871  10.983   8.350  0.0241  0.0457 -0.2646
  349loPI   C4B 5584   3.863  11.062   7.909 -0.1632  0.1058 -0.3119
  350loPI    C1 5585  11.345  12.861  10.673 -0.2938 -0.1328  0.1152
  350loPI    C2 5586  11.314  13.033  11.033 -0.0528 -0.0954  0.1201
  350loPI    C3 5587  11.595  12.757  10.967  0.1716  0.1905 -0.1528
  350loPI   PO4 5588  11.324  13.115  10.427 -0.0585  0.1482 -0.0233
  350loPI   GL1 5589  11.483  13.086   9.977 -0.1006  0.2950 -0.0734
  350loPI   GL2 5590  11.429  13.352   9.842 -0.0726  0.0320 -0.1452
  350loPI   C1A 5591  11.648  13.097   9.510  0.0055 -0.0575  0.0341
  350loPI   C2A 5592  11.751  13.090   8.996 -0.1155 -0.2453  0.0929
  350loPI   C3A 5593  11.963  13.037   8.653 -0.0449 -0.2178  0.1808
  350loPI   C4A 5594  12.105  13.076   8.191 -0.0986 -0.1941  0.2212
  350loPI   C5A 5595  12.360  12.835   7.900  0.1199  0.0421  0.0949
  350loPI   C6A 5596  12.507  12.652   7.406 -0.2297  0.2337 -0.0009
  350loPI   C1B 5597  11.146  13.282   9.571  0.1518  0.1834  0.0126
  350loPI   C2B 5598  11.278  13.286   9.176 -0.0114  0.2022 -0.0622
  350loPI   C3B 5599  11.272  13.198   8.769  0.0222 -0.2029 -0.2126
  350loPI   C4B 5600  11.555  13.172   8.411 -0.1945  0.0378  0.0108
  351loPI    C1 5601  15.466  17.097  10.516  0.1024  0.3184  0.1523
  351loPI    C2 5602  15.391  16.808  10.783  0.0317  0.2291  0.0372
  351loPI    C3 5603  15.362  17.193  10.891  0.1656  0.1945  0.2023
  351loPI   PO4 5604  15.354  17.075  10.279  0.0065  0.1427  0.0259
  351loPI   GL1 5605  15.081  16.820  10.025  0.1282  0.0930  0.0775
  351loPI   GL2 5606  15.302  16.789   9.805 -0.0281 -0.1746  0.0567
  351loPI   C1A 5607  14.909  16.933   9.590 -0.2323 -0.1585  0.0618
  351loPI   C2A 5608  14.688  17.171   9.166  0.2094 -0.3049 -0.2108
  351loPI   C3A 5609  14.700  17.207   8.763  0.1202 -0.0411  0.0306
  351loPI   C4A 5610  14.732  17.192   8.317 -0.3838 -0.3691  0.1057
  351loPI   C5A 5611  14.811  17.248   7.845 -0.0116 -0.2245  0.0364
  351loPI   C6A 5612  14.813  17.601   7.413 -0.1114 -0.2088  0.1434
  351loPI   C1B 5613  15.323  16.714   9.387  0.1841 -0.0797 -0.2828
  351loPI   C2B 5614  14.978  16.807   9.062  0.1980  0.0024  0.0814
  351loPI   C3B 5615  14.956  16.725   8.650  0.0269  0.0098  0.1540
  351loPI   C4B 5616  14.989  16.262   8.411 -0.2436 -0.1206 -0.1359
  352loPI    C1 5617   7.234   2.806  10.498  0.2295 -0.1455 -0.1241
  352loPI    C2 5618   7.178   2.460  10.692 -0.2237  0.0815  0.1659
  352loPI    C3 5619   7.345   2.771  10.881  0.1722  0.0315 -0.0904
  352loPI   PO4 5620   7.241   2.702  10.240  0.2961 -0.1206 -0.2069
  352loPI   GL1 5621   7.241   2.627   9.762 -0.3369 -0.1167  0.0551
  352loPI   GL2 5622   7.293   2.980   9.795 -0.3088  0.1333 -0.1336
  352loPI   C1A 5623   7.389   2.420   9.393  0.2257 -0.0336  0.0299
  352loPI   C2A 5624   7.565   2.361   8.941 -0.1071  0.1467 -0.2036
  352loPI   C3A 5625   7.766   2.723   8.669 -0.2210  0.1902  0.1214
  352loPI   C4A 5626   7.893   2.828   8.277  0.1621  0.3569  0.1222
  352loPI   C5A 5627   7.721   3.033   7.869 -0.0543  0.1231 -0.1402
  352loPI   C6A 5628   7.969   3.083   7.441  0.1807 -0.2131  0.2006
  352loPI   C1B 5629   7.482   3.238   9.483  0.0871 -0.0694 -0.1821
  352loPI   C2B 5630   7.570   3.300   9.185 -0.0636 -0.3394  0.0376
  352loPI   C3B 5631   7.680   3.172   8.745  0.1280 -0.2120 -0.3367
  352loPI   C4B 5632   7.586   3.149   8.376  0.1041 -0.0355  0.1646
  353loPI    C1 5633   9.941   2.664  10.437  0.0698  0.0608  0.0101
  353loPI    C2 5634   9.876   2.819  10.799  0.1386 -0.0819  0.0845
  353loPI    C3 5635  10.207   2.915  10.597 -0.0081  0.1754 -0.0387
  353loPI   PO4 5636   9.701   2.665  10.335 -0.3397 -0.0461  0.5263
  353loPI   GL1 5637   9.744   2.675   9.870  0.5492  0.3234 -0.0324
  353loPI   GL2 5638   9.527   2.980   9.904 -0.1770  0.0295 -0.0879
  353loPI   C1A 5639   9.925   2.622   9.538  0.0847 -0.0666  0.0390
  353loPI   C2A 5640   9.929   2.585   9.039  0.1579  0.4111  0.0099
  353loPI   C3A 5641   9.859   2.607   8.693 -0.0930  0.2276  0.0103
  353loPI   C4A 5642   9.973   2.614   8.284 -0.0036  0.2673 -0.0143
  353loPI   C5A 5643  10.107   2.771   7.822  0.0584  0.3942 -0.4347
  353loPI   C6A 5644  10.525   2.909   7.527 -0.0722  0.0637 -0.0407
  353loPI   C1B 5645   9.600   3.045   9.524  0.2534 -0.2836  0.0784
  353loPI   C2B 5646   9.607   3.102   9.038  0.1201  0.1764  0.0826
  353loPI   C3B 5647   9.689   3.082   8.604 -0.1732  0.2340  0.0792
  353loPI   C4B 5648   9.657   3.040   8.203  0.1208  0.3001 -0.0154
  354loPI    C1 5649  10.410   3.392  10.638 -0.0195  0.0189 -0.0519
  354loPI    C2 5650  10.667   3.096  10.715  0.1492  0.1403 -0.1406
  354loPI    C3 5651  10.736   3.463  10.858  0.0401  0.1804 -0.1900
  354loPI   PO4 5652  10.379   3.374  10.351  0.3251  0.0545 -0.1514
  354loPI   GL1 5653  10.476   3.320   9.936 -0.0751  0.0106  0.0532
  354loPI   GL2 5654  10.784   3.276   9.886 -0.0171  0.4916  0.0432
  354loPI   C1A 5655  10.464   3.430   9.503 -0.0388 -0.0877 -0.3710
  354loPI   C2A 5656  10.514   3.434   9.076 -0.0930 -0.0399 -0.0709
  354loPI   C3A 5657  10.415   3.499   8.558 -0.0717  0.1208 -0.4587
  354loPI   C4A 5658  10.429   3.374   8.150  0.1833  0.2208  0.3508
  354loPI   C5A 5659  10.242   3.267   7.736 -0.2584  0.2406 -0.2308
  354loPI   C6A 5660  10.501   3.406   7.400  0.1795 -0.0049  0.1393
  354loPI   C1B 5661  11.028   3.480   9.544  0.0640  0.0980  0.0220
  354loPI   C2B 5662  11.095   3.375   9.193 -0.0529  0.0743 -0.0651
  354loPI   C3B 5663  10.990   3.414   8.739 -0.0448  0.0574  0.0280
  354loPI   C4B 5664  10.996   3.347   8.257  0.0434 -0.2775 -0.0108
  355loPI    C1 5665  13.818   4.190  11.179  0.0085  0.0832 -0.1856
  355loPI    C2 5666  14.127   3.989  11.024 -0.1099 -0.1336 -0.1447
  355loPI    C3 5667  14.191   4.276  11.296  0.0539 -0.1875 -0.1250
  355loPI   PO4 5668  13.676   4.277  10.902 -0.1347  0.0666  0.2401
  355loPI   GL1 5669  13.783   4.308  10.467 -0.0052  0.0009 -0.1398
  355loPI   GL2 5670  13.685   4.094  10.256  0.1997 -0.1837  0.1861
  355loPI   C1A 5671  13.964   4.494  10.057 -0.0093  0.0222 -0.0092
  355loPI   C2A 5672  13.960   4.616   9.587 -0.3730  0.1874 -0.0389
  355loPI   C3A 5673  13.973   4.551   9.160 -0.1541  0.1930 -0.2062
  355loPI   C4A 5674  13.968   4.512   8.727 -0.0794 -0.0511  0.0259
  355loPI   C5A 5675  13.814   4.682   8.350 -0.1148 -0.1108 -0.2011
  355loPI   C6A 5676  13.482   4.694   8.155 -0.2709 -0.3111  0.0783
  355loPI   C1B 5677  13.721   4.178   9.759 -0.1600  0.0996 -0.0942
  355loPI   C2B 5678  13.671   4.234   9.372  0.0097  0.3167  0.0614
  355loPI   C3B 5679  13.546   4.114   8.964 -0.0167  0.0133  0.2738
  355loPI   C4B 5680  13.683   4.094   8.579  0.1644  0.1277  0.2316
  356loPI    C1 5681   6.459  11.875  10.647  0.0517 -0.1956  0.2485
  356loPI    C2 5682   6.466  12.257  10.766 -0.1109 -0.1089 -0.0121
  356loPI    C3 5683   6.336  11.972  11.016 -0.1187  0.0233  0.1364
  356loPI   PO4 5684   6.406  11.872  10.396 -0.0941 -0.1668  0.3816
  356loPI   GL1 5685   6.449  12.020  10.029  0.2152  0.1587  0.0070
  356loPI   GL2 5686   6.730  11.838  10.002  0.2561  0.0087 -0.1655
  356loPI   C1A 5687   6.601  12.078   9.554 -0.1785 -0.0826  0.0820
  356loPI   C2A 5688   6.588  12.064   9.092  0.2170 -0.2123 -0.0424
  356loPI   C3A 5689   6.432  12.005   8.738  0.1961  0.3136 -0.2455
  356loPI   C4A 5690   6.581  12.030   8.333 -0.0510 -0.0429 -0.0167
  356loPI   C5A 5691   6.843  11.991   7.972  0.0303 -0.2667  0.0107
  356loPI   C6A 5692   6.927  11.860   7.515 -0.4325  0.1184  0.0547
  356loPI   C1B 5693   6.975  11.803   9.684  0.2031 -0.2966 -0.0891
  356loPI   C2B 5694   6.796  11.653   9.290  0.1352  0.1054  0.0888
  356loPI   C3B 5695   6.790  11.626   8.810  0.0821  0.1228 -0.1413
  356loPI   C4B 5696   6.772  11.558   8.391  0.1651 -0.1398  0.0634
  357loPI    C1 5697   8.020  13.631   9.982 -0.1379  0.0133 -0.1258
  357loPI    C2 5698   7.722  13.398  10.112  0.1921 -0.1817  0.3079
  357loPI    C3 5699   8.102  13.297  10.187  0.3639  0.1907 -0.0214
  357loPI   PO4 5700   7.893  13.937   9.967  0.3389 -0.1872 -0.0565
  357loPI   GL1 5701   7.914  14.189   9.659 -0.0287  0.0840 -0.0286
  357loPI   GL2 5702   8.098  14.450   9.463 -0.1539 -0.0131 -0.2196
  357loPI   C1A 5703   7.833  14.230   9.152 -0.0876 -0.5498  0.1376
  357loPI   C2A 5704   7.907  14.315   8.802  0.1908  0.1006 -0.1111
  357loPI   C3A 5705   8.044  14.180   8.374  0.0968  0.0251 -0.0371
  357loPI   C4A 5706   8.103  14.080   7.972  0.0869 -0.4512  0.1948
  357loPI   C5A 5707   7.991  13.680   7.658 -0.2477 -0.0442  0.0923
  357loPI   C6A 5708   8.003  13.216   7.624 -0.2670  0.0095 -0.1405
  357loPI   C1B 5709   8.331  14.331   9.116  0.0850 -0.3989 -0.0379
  357loPI   C2B 5710   8.393  14.287   8.713 -0.1734  0.0620  0.2000
  357loPI   C3B 5711   8.606  14.219   8.274  0.0331  0.0857  0.2613
  357loPI   C4B 5712   8.737  14.198   7.841  0.0769  0.0325  0.1119
  358loPI    C1 5713   6.073   6.070  10.528  0.1354 -0.1214 -0.0185
  358loPI    C2 5714   6.230   5.744  10.359 -0.1597 -0.3488  0.1374
  358loPI    C3 5715   6.123   5.737  10.744 -0.0500 -0.0252  0.1762
  358loPI   PO4 5716   6.066   6.263  10.260 -0.0753  0.1541  0.0205
  358loPI   GL1 5717   5.811   6.314   9.910 -0.1883  0.2441 -0.3462
  358loPI   GL2 5718   5.473   6.143   9.723 -0.0691  0.0097  0.0496
  358loPI   C1A 5719   6.097   6.504   9.569 -0.0963 -0.2139 -0.2108
  358loPI   C2A 5720   6.218   6.613   9.213  0.0909  0.0808  0.1698
  358loPI   C3A 5721   6.253   6.700   8.773  0.0801 -0.0649 -0.0318
  358loPI   C4A 5722   6.212   6.719   8.347  0.3775  0.2157 -0.1207
  358loPI   C5A 5723   6.209   6.833   8.008 -0.0116 -0.4724 -0.0964
  358loPI   C6A 5724   6.089   6.550   7.719  0.2126  0.0300  0.1411
  358loPI   C1B 5725   5.780   6.111   9.411  0.2736 -0.2351 -0.2986
  358loPI   C2B 5726   5.778   6.161   9.011  0.0015 -0.1558 -0.1183
  358loPI   C3B 5727   5.427   6.361   8.713  0.2919  0.0997 -0.2855
  358loPI   C4B 5728   5.210   6.406   8.385 -0.0760 -0.1388  0.2941
  359loPI    C1 5729   9.584  17.980  10.368  0.1484 -0.0816  0.1844
  359loPI    C2 5730   9.448  18.263  10.616 -0.1375  0.0700 -0.1372
  359loPI    C3 5731   9.529  17.897  10.756 -0.0300  0.2288  0.2290
  359loPI   PO4 5732   9.383  17.992  10.142  0.0732  0.0840  0.2019
  359loPI   GL1 5733   9.308  18.153   9.735 -0.2375  0.1815  0.0805
  359loPI   GL2 5734   9.483  17.985   9.635 -0.1931 -0.0137 -0.1232
  359loPI   C1A 5735   9.352  18.345   9.309 -0.0253  0.0527 -0.2155
  359loPI   C2A 5736   9.414  18.497   9.050 -0.0951  0.2733 -0.0650
  359loPI   C3A 5737   9.328  18.380   8.580  0.2331  0.1636 -0.1111
  359loPI   C4A 5738   9.344  18.388   8.170 -0.1145 -0.1001 -0.0957
  359loPI   C5A 5739   9.178  18.444   7.796 -0.1543 -0.2187 -0.1150
  359loPI   C6A 5740   9.353  18.220   7.452  0.1995  0.4098  0.1030
  359loPI   C1B 5741   9.374  17.791   9.316 -0.1880 -0.1621  0.3192
  359loPI   C2B 5742   9.398  17.997   8.936 -0.1571 -0.1969  0.0159
  359loPI   C3B 5743   9.487  17.957   8.422  0.0004  0.0474  0.2094
  359loPI   C4B 5744   9.480  17.740   7.924  0.1350 -0.4686  0.1054
  360loPI    C1 5745  17.842  13.504  10.907  0.1255  0.3768 -0.2029
  360loPI    C2 5746  17.919  13.777  11.189  0.2152  0.2066 -0.0610
  360loPI    C3 5747  18.121  13.432  11.183 -0.0926  0.0222 -0.0679
  360loPI   PO4 5748  17.873  13.706  10.699  0.2591 -0.0796  0.1388
  360loPI   GL1 5749  18.133  13.850  10.310  0.1430  0.0434 -0.0214
  360loPI   GL2 5750  18.114  13.606  10.006 -0.1970  0.2674  0.2445
  360loPI   C1A 5751  18.083  14.203   9.995 -0.0193  0.0497  0.3139
  360loPI   C2A 5752  17.998  14.234   9.602 -0.2239  0.1376 -0.0879
  360loPI   C3A 5753  18.041  14.280   9.218 -0.4470  0.2367  0.1980
  360loPI   C4A 5754  17.968  14.379   8.832 -0.1236 -0.0504 -0.0603
  360loPI   C5A 5755  17.950  14.297   8.387  0.0825  0.2316  0.0602
  360loPI   C6A 5756  17.834  14.397   7.970 -0.0195  0.1572  0.1650
  360loPI   C1B 5757  18.134  13.727   9.628 -0.1732  0.1246 -0.2882
  360loPI   C2B 5758  18.071  13.781   9.231  0.2976 -0.0258  0.2331
  360loPI   C3B 5759  18.065  13.811   8.749  0.2229 -0.0638 -0.1162
  360loPI   C4B 5760  17.997  13.805   8.374  0.1244  0.0721 -0.3855
  361loPI    C1 5761   5.615  14.821  10.380  0.0150  0.1061  0.0060
  361loPI    C2 5762   5.877  14.881  10.676  0.0846 -0.3627  0.0482
  361loPI    C3 5763   5.502  14.772  10.760 -0.0798  0.1237 -0.0196
  361loPI   PO4 5764   5.615  14.963  10.194 -0.2509  0.1416 -0.0022
  361loPI   GL1 5765   5.537  15.004   9.833 -0.0093 -0.1410 -0.0492
  361loPI   GL2 5766   5.474  14.694   9.775 -0.3622 -0.5369 -0.2495
  361loPI   C1A 5767   5.466  15.161   9.461  0.2018  0.0712  0.0226
  361loPI   C2A 5768   5.348  15.283   8.986 -0.0757  0.0017  0.0233
  361loPI   C3A 5769   5.408  15.377   8.561 -0.3575  0.1646 -0.3762
  361loPI   C4A 5770   5.411  15.654   8.309 -0.1251  0.2357 -0.1284
  361loPI   C5A 5771   5.357  15.661   7.871  0.0043  0.2474  0.0216
  361loPI   C6A 5772   5.508  15.650   7.482 -0.2580  0.1468  0.0346
  361loPI   C1B 5773   5.517  14.678   9.333 -0.1087 -0.3315 -0.0348
  361loPI   C2B 5774   5.540  14.775   8.925  0.1619  0.1924  0.4707
  361loPI   C3B 5775   5.524  14.876   8.501  0.0511  0.1240 -0.0029
  361loPI   C4B 5776   5.891  14.854   8.137  0.1858 -0.1216 -0.0442
  362loPI    C1 5777  15.351   8.093  11.009 -0.0725 -0.2773 -0.0550
  362loPI    C2 5778  15.493   7.785  11.220 -0.0329 -0.1601  0.0909
  362loPI    C3 5779  15.653   8.149  11.265 -0.0567 -0.1247 -0.1060
  362loPI   PO4 5780  15.347   8.082  10.731  0.3017 -0.0812  0.2976
  362loPI   GL1 5781  15.153   8.016  10.392  0.1008 -0.2190  0.3159
  362loPI   GL2 5782  15.406   7.795  10.307 -0.0802  0.1291 -0.0818
  362loPI   C1A 5783  15.256   8.235  10.095 -0.0570 -0.1258 -0.1657
  362loPI   C2A 5784  15.302   8.100   9.709 -0.1265  0.0904 -0.2238
  362loPI   C3A 5785  15.254   8.049   9.225  0.1362  0.1739  0.1042
  362loPI   C4A 5786  15.220   7.994   8.862  0.1222 -0.1446  0.1824
  362loPI   C5A 5787  15.299   7.819   8.465  0.0022  0.3009 -0.0336
  362loPI   C6A 5788  15.740   7.680   8.299 -0.1977 -0.0282  0.1834
  362loPI   C1B 5789  15.535   7.719   9.920  0.2145 -0.1580  0.0179
  362loPI   C2B 5790  15.495   7.631   9.563  0.2333  0.0218  0.0370
  362loPI   C3B 5791  15.564   7.673   9.177 -0.0384 -0.3040 -0.2435
  362loPI   C4B 5792  15.550   7.522   8.784  0.2586 -0.1950 -0.1430
  363loPI    C1 5793  11.309   5.380  10.813  0.0601 -0.0549 -0.3588
  363loPI    C2 5794  11.637   5.384  11.043 -0.1215 -0.0363 -0.0951
  363loPI    C3 5795  11.370   5.680  11.071 -0.2082 -0.0991 -0.2411
  363loPI   PO4 5796  11.410   5.261  10.596  0.0586  0.1717  0.0933
  363loPI   GL1 5797  11.281   5.240  10.277 -0.0454  0.1411  0.3392
  363loPI   GL2 5798  11.348   5.598  10.060 -0.2889  0.1121  0.0232
  363loPI   C1A 5799  11.098   5.251   9.923  0.2593 -0.0988  0.2230
  363loPI   C2A 5800  11.106   5.225   9.475 -0.3156 -0.0608  0.1194
  363loPI   C3A 5801  11.123   5.201   9.063 -0.0966  0.2568  0.0021
  363loPI   C4A 5802  11.075   5.236   8.598 -0.1108 -0.3455  0.1246
  363loPI   C5A 5803  11.123   5.187   8.217  0.2938  0.1706  0.0280
  363loPI   C6A 5804  10.764   5.289   7.953 -0.2897 -0.0138  0.1261
  363loPI   C1B 5805  11.379   5.623   9.648  0.4474  0.1455  0.0048
  363loPI   C2B 5806  11.474   5.628   9.200 -0.1541 -0.0317  0.1740
  363loPI   C3B 5807  11.478   5.610   8.757 -0.1432  0.0777  0.3298
  363loPI   C4B 5808  11.533   5.606   8.269 -0.1003  0.0905  0.0762
  364loPI    C1 5809  11.778   8.936  11.088  0.0137 -0.0756  0.1932
  364loPI    C2 5810  11.688   9.324  11.118 -0.0532 -0.0811  0.0706
  364loPI    C3 5811  11.976   9.167  11.347  0.0466  0.0635  0.0456
  364loPI   PO4 5812  11.512   8.878  10.825 -0.1292  0.2743 -0.6367
  364loPI   GL1 5813  11.576   8.902  10.464  0.3061  0.1120 -0.5394
  364loPI   GL2 5814  11.343   9.172  10.405 -0.1715  0.0163 -0.0592
  364loPI   C1A 5815  11.516   8.678  10.140 -0.1234  0.0389 -0.1108
  364loPI   C2A 5816  11.491   8.787   9.734  0.1480 -0.0025 -0.1235
  364loPI   C3A 5817  11.419   8.711   9.384  0.1248 -0.1576 -0.0740
  364loPI   C4A 5818  11.406   8.684   8.965  0.3515  0.1872  0.2347
  364loPI   C5A 5819  11.517   8.634   8.626 -0.1591  0.0586 -0.0154
  364loPI   C6A 5820  11.273   8.559   8.327 -0.4816 -0.0759  0.0930
  364loPI   C1B 5821  11.277   9.148   9.964  0.1606 -0.2329  0.2012
  364loPI   C2B 5822  11.196   9.253   9.510 -0.0254  0.1628 -0.0181
  364loPI   C3B 5823  11.269   9.138   9.073 -0.0268  0.2964  0.0155
  364loPI   C4B 5824  11.181   9.171   8.643 -0.1217 -0.2189  0.0558
  365loPI    C1 5825  12.400   5.186  11.072 -0.1669  0.1737 -0.1858
  365loPI    C2 5826  12.134   5.482  11.034  0.0732  0.4073 -0.0784
  365loPI    C3 5827  12.520   5.566  11.095  0.1515  0.0704 -0.0874
  365loPI   PO4 5828  12.294   5.017  10.904 -0.4681  0.1053 -0.2465
  365loPI   GL1 5829  12.504   4.940  10.486  0.1623 -0.1340  0.1719
  365loPI   GL2 5830  12.237   4.959  10.273  0.4192  0.2491 -0.1491
  365loPI   C1A 5831  12.702   4.982  10.038 -0.0637 -0.1477 -0.0555
  365loPI   C2A 5832  12.681   5.076   9.640  0.1496 -0.1804 -0.3482
  365loPI   C3A 5833  12.647   5.071   9.201 -0.1057  0.2843 -0.2670
  365loPI   C4A 5834  12.745   5.159   8.762  0.2892 -0.0959  0.0561
  365loPI   C5A 5835  12.639   5.065   8.398 -0.4369  0.0147 -0.4318
  365loPI   C6A 5836  12.478   5.216   7.963 -0.0696 -0.0735 -0.0180
  365loPI   C1B 5837  12.230   5.119   9.922  0.0589 -0.1130  0.0914
  365loPI   C2B 5838  12.219   5.177   9.508 -0.1522  0.1320  0.1045
  365loPI   C3B 5839  12.161   5.230   9.039 -0.4757  0.0919  0.2144
  365loPI   C4B 5840  12.257   5.107   8.675 -0.0749 -0.2219  0.1153
  366loPI    C1 5841   9.980   0.457  10.523 -0.1105 -0.1344 -0.1595
  366loPI    C2 5842   9.718   0.726  10.661  0.0519 -0.0054 -0.0992
  366loPI    C3 5843   9.938   0.512  10.917 -0.1586 -0.2800 -0.1439
  366loPI   PO4 5844  10.036   0.637  10.273  0.2330  0.0434 -0.1558
  366loPI   GL1 5845  10.226   0.432   9.997 -0.1552 -0.0151  0.4519
  366loPI   GL2 5846  10.335   0.094   9.866  0.2105 -0.0100 -0.0545
  366loPI   C1A 5847  10.268   0.655   9.627  0.3696  0.2249  0.2906
  366loPI   C2A 5848  10.316   0.961   9.443  0.2525  0.2589  0.0147
  366loPI   C3A 5849  10.304   0.976   8.967 -0.0468  0.0640  0.4030
  366loPI   C4A 5850  10.366   0.786   8.638 -0.4286 -0.0384 -0.0181
  366loPI   C5A 5851  10.653   0.546   8.364  0.2273  0.0691 -0.2023
  366loPI   C6A 5852  10.593   0.237   7.949  0.2756  0.0820 -0.0479
  366loPI   C1B 5853  10.464   0.152   9.467 -0.1250 -0.1054 -0.0374
  366loPI   C2B 5854  10.430   0.059   8.999  0.1556 -0.0309 -0.0399
  366loPI   C3B 5855  10.491   0.212   8.660  0.2073 -0.0643  0.0855
  366loPI   C4B 5856  10.771   0.012   8.371 -0.1521 -0.1459 -0.1624
  367loPI    C1 5857   0.359   4.411  10.459 -0.1682 -0.0127 -0.0450
  367loPI    C2 5858   0.565   4.753  10.435  0.0281 -0.1218  0.0611
  367loPI    C3 5859   0.566   4.542  10.775 -0.2177 -0.1509  0.0456
  367loPI   PO4 5860   0.358   4.303  10.208 -0.0888  0.4295  0.1660
  367loPI   GL1 5861   0.206   4.253   9.845 -0.2446  0.4009  0.1185
  367loPI   GL2 5862   0.476   3.995   9.744  0.0852 -0.0430 -0.0862
  367loPI   C1A 5863  -0.034   4.087   9.512  0.0146 -0.2019  0.3999
  367loPI   C2A 5864  -0.135   3.891   9.159 -0.1311  0.5117  0.0525
  367loPI   C3A 5865  -0.128   3.572   8.856 -0.0355  0.3313 -0.1398
  367loPI   C4A 5866  -0.246   3.445   8.518 -0.1202  0.1632 -0.3603
  367loPI   C5A 5867  -0.695   3.188   8.555 -0.1415  0.3254 -0.0475
  367loPI   C6A 5868  -1.052   2.888   8.389 -0.2723  0.0645  0.1400
  367loPI   C1B 5869   0.413   4.036   9.305 -0.0235  0.0434 -0.1738
  367loPI   C2B 5870   0.301   3.890   8.913 -0.0858  0.0668  0.0829
  367loPI   C3B 5871   0.078   3.972   8.494 -0.3396 -0.0617  0.0210
  367loPI   C4B 5872  -0.310   4.022   8.176  0.4555  0.2336 -0.0858
  368loPI    C1 5873  14.861   2.381  10.425  0.0459 -0.0011  0.0496
  368loPI    C2 5874  14.500   2.388  10.598 -0.0369 -0.1738 -0.1131
  368loPI    C3 5875  14.828   2.333  10.821 -0.1014  0.0773  0.0474
  368loPI   PO4 5876  14.891   2.627  10.280 -0.1285  0.1653  0.1580
  368loPI   GL1 5877  14.741   2.839  10.028  0.4838  0.0852  0.0141
  368loPI   GL2 5878  14.682   3.131  10.104 -0.2931 -0.0149 -0.2407
  368loPI   C1A 5879  14.861   2.686   9.634 -0.0605  0.0971 -0.1940
  368loPI   C2A 5880  14.815   2.708   9.303 -0.2111 -0.0895  0.1716
  368loPI   C3A 5881  14.770   2.686   8.902 -0.2927  0.1150 -0.1516
  368loPI   C4A 5882  14.765   2.499   8.558  0.0435 -0.1460 -0.0312
  368loPI   C5A 5883  14.799   2.420   8.227  0.0240  0.0518 -0.0874
  368loPI   C6A 5884  14.667   2.227   7.915  0.0240 -0.0927  0.0811
  368loPI   C1B 5885  14.705   3.208   9.678 -0.0907  0.0799 -0.0024
  368loPI   C2B 5886  14.623   3.238   9.213  0.2776 -0.1159 -0.2503
  368loPI   C3B 5887  14.597   3.123   8.803  0.1116 -0.0719 -0.0416
  368loPI   C4B 5888  14.536   2.900   8.395 -0.4289 -0.0902 -0.4095
  369loPI    C1 5889  -0.051   5.689  10.571  0.1888  0.3115 -0.0327
  369loPI    C2 5890   0.290   5.587  10.753  0.1199  0.2053  0.0384
  369loPI    C3 5891   0.121   5.942  10.828  0.1570  0.2128  0.0863
  369loPI   PO4 5892  -0.019   5.526  10.389  0.1337 -0.0023  0.0673
  369loPI   GL1 5893   0.237   5.533  10.026  0.0477  0.0858 -0.1840
  369loPI   GL2 5894   0.101   5.833   9.944  0.5369  0.3680  0.0597
  369loPI   C1A 5895   0.157   5.538   9.519  0.0324  0.0802 -0.2334
  369loPI   C2A 5896  -0.004   5.731   9.130 -0.2343 -0.0071 -0.2291
  369loPI   C3A 5897  -0.148   5.583   8.784 -0.0331  0.1100  0.1177
  369loPI   C4A 5898  -0.190   5.589   8.386 -0.1804  0.0683 -0.0209
  369loPI   C5A 5899  -0.165   6.016   8.064  0.2126  0.4313 -0.1309
  369loPI   C6A 5900  -0.071   6.467   7.808  0.0070  0.5352  0.0109
  369loPI   C1B 5901  -0.121   6.073   9.602  0.0499  0.0220 -0.1498
  369loPI   C2B 5902  -0.328   6.218   9.270  0.0387  0.3317  0.2313
  369loPI   C3B 5903  -0.392   6.034   8.906  0.3065 -0.0403  0.1678
  369loPI   C4B 5904  -0.372   6.075   8.497 -0.0175 -0.3647  0.0687
  370loPI    C1 5905   5.356   0.647   9.864 -0.2076  0.1863  0.0280
  370loPI    C2 5906   5.620   0.901  10.025 -0.1310  0.0690  0.0883
  370loPI    C3 5907   5.380   0.686  10.262 -0.1217  0.0062  0.0409
  370loPI   PO4 5908   5.214   0.841   9.736 -0.0020 -0.1493  0.0708
  370loPI   GL1 5909   5.075   1.059   9.440  0.1339 -0.0579 -0.4405
  370loPI   GL2 5910   4.768   0.926   9.343 -0.4982  0.3287  0.0667
  370loPI   C1A 5911   5.062   1.397   9.200  0.0005  0.0672  0.2020
  370loPI   C2A 5912   5.420   1.689   9.118 -0.1826 -0.2048  0.2054
  370loPI   C3A 5913   5.732   1.670   8.801 -0.1195 -0.0868 -0.0675
  370loPI   C4A 5914   5.859   1.748   8.343  0.2098 -0.1451  0.0543
  370loPI   C5A 5915   6.006   2.150   8.159  0.4274  0.2441 -0.1710
  370loPI   C6A 5916   6.012   2.438   7.694 -0.0567 -0.0987 -0.4358
  370loPI   C1B 5917   4.900   0.902   8.995  0.2935 -0.1381 -0.0620
  370loPI   C2B 5918   4.871   1.257   8.715  0.2009 -0.0157  0.0347
  370loPI   C3B 5919   4.998   1.156   8.287 -0.3459 -0.5277  0.0441
  370loPI   C4B 5920   4.829   0.999   7.889  0.0760  0.3554 -0.3546
  371loPI    C1 5921   6.137  10.162  10.526 -0.0196  0.1156  0.0043
  371loPI    C2 5922   6.529  10.091  10.488 -0.0739  0.0132 -0.4227
  371loPI    C3 5923   6.311   9.878  10.748  0.1349  0.0106 -0.2470
  371loPI   PO4 5924   6.048  10.063  10.298 -0.1605  0.0238 -0.2492
  371loPI   GL1 5925   6.119   9.921   9.848 -0.1552 -0.1793  0.2264
  371loPI   GL2 5926   5.851  10.065   9.652 -0.2171  0.2155  0.1381
  371loPI   C1A 5927   6.106   9.711   9.461 -0.1095  0.0560 -0.0831
  371loPI   C2A 5928   6.133   9.835   9.145 -0.1246 -0.0177 -0.0329
  371loPI   C3A 5929   5.989   9.883   8.630 -0.0169  0.0161  0.3973
  371loPI   C4A 5930   5.909   9.908   8.164  0.4199 -0.3157  0.0932
  371loPI   C5A 5931   5.660   9.985   7.820  0.1023  0.1106 -0.0048
  371loPI   C6A 5932   5.545   9.655   7.651 -0.1309  0.4176  0.4139
  371loPI   C1B 5933   5.922  10.281   9.199  0.1429  0.1072 -0.0695
  371loPI   C2B 5934   5.986  10.402   8.797  0.2110  0.0711  0.0604
  371loPI   C3B 5935   5.815  10.346   8.428  0.2022  0.0922  0.0093
  371loPI   C4B 5936   5.835  10.409   8.015 -0.1201  0.0251  0.2163
  372loPI    C1 5937  16.449  17.988  10.573  0.3146  0.0470 -0.1240
  372loPI    C2 5938  16.529  18.339  10.747 -0.1621  0.0425  0.1222
  372loPI    C3 5939  16.435  18.021  10.972 -0.0435 -0.1631 -0.1141
  372loPI   PO4 5940  16.380  18.122  10.318  0.1298  0.2009 -0.0366
  372loPI   GL1 5941  16.287  18.157   9.915  0.1082 -0.1393 -0.0774
  372loPI   GL2 5942  16.487  18.018   9.815 -0.1956  0.2120 -0.1699
  372loPI   C1A 5943  16.141  18.210   9.479 -0.2154  0.3601 -0.0196
  372loPI   C2A 5944  16.340  18.472   9.078  0.3688 -0.1853  0.1577
  372loPI   C3A 5945  16.182  18.754   8.793  0.1443  0.0554  0.1135
  372loPI   C4A 5946  16.425  19.046   8.542  0.1595  0.1514 -0.1610
  372loPI   C5A 5947  16.681  19.447   8.582  0.3018  0.1185 -0.2519
  372loPI   C6A 5948  16.649  19.686   8.209 -0.2376  0.1455  0.2637
  372loPI   C1B 5949  16.465  17.849   9.387 -0.0081 -0.0760 -0.0536
  372loPI   C2B 5950  16.434  17.806   8.840  0.0489 -0.0793 -0.1184
  372loPI   C3B 5951  16.481  17.658   8.463  0.0794 -0.0589  0.1753
  372loPI   C4B 5952  16.389  17.327   8.131  0.0807  0.2198 -0.2067
  373loPI    C1 5953   4.653   0.956  10.174  0.1832  0.1691 -0.0066
  373loPI    C2 5954   4.920   0.660  10.134 -0.2928 -0.2983  0.1624
  373loPI    C3 5955   4.890   0.857  10.481 -0.2286 -0.3051  0.1719
  373loPI   PO4 5956   4.671   0.986   9.835 -0.1435 -0.2047  0.2981
  373loPI   GL1 5957   4.469   1.280   9.504 -0.1421 -0.2813 -0.2244
  373loPI   GL2 5958   4.306   0.949   9.496 -0.0812 -0.5725  0.0187
  373loPI   C1A 5959   4.435   1.235   9.077 -0.2704  0.0546 -0.1247
  373loPI   C2A 5960   4.401   1.213   8.642  0.1594 -0.1976 -0.0833
  373loPI   C3A 5961   4.522   1.210   8.302  0.2375  0.0979  0.3093
  373loPI   C4A 5962   4.491   1.405   7.973  0.0659  0.0061  0.2058
  373loPI   C5A 5963   4.469   1.219   7.538 -0.0100 -0.1858  0.3618
  373loPI   C6A 5964   4.585   1.029   7.194 -0.0595  0.0121 -0.4824
  373loPI   C1B 5965   4.342   0.735   9.141 -0.2750 -0.0062  0.0409
  373loPI   C2B 5966   4.512   0.688   8.788 -0.1448 -0.1647  0.2840
  373loPI   C3B 5967   4.603   0.744   8.342  0.0514  0.2525  0.2463
  373loPI   C4B 5968   4.364   0.846   7.951  0.1945  0.0597  0.3304
  374loPI    C1 5969   2.306  16.207  10.601  0.0389  0.0120 -0.0952
  374loPI    C2 5970   2.033  16.494  10.543  0.2158  0.1488 -0.2643
  374loPI    C3 5971   2.266  16.502  10.868 -0.0609 -0.0359 -0.0569
  374loPI   PO4 5972   2.356  16.167  10.387 -0.1400  0.1966 -0.0667
  374loPI   GL1 5973   2.258  16.433  10.061  0.0051  0.0548 -0.0658
  374loPI   GL2 5974   2.082  16.251   9.912 -0.0206  0.0068 -0.0020
  374loPI   C1A 5975   2.564  16.447   9.739 -0.0337  0.2105  0.2955
  374loPI   C2A 5976   2.640  16.406   9.286 -0.2713  0.1663  0.0639
  374loPI   C3A 5977   2.589  16.377   8.874  0.0338 -0.1064 -0.0319
  374loPI   C4A 5978   2.552  16.199   8.416 -0.0396 -0.1626 -0.0175
  374loPI   C5A 5979   2.719  16.025   7.987  0.0622 -0.2518 -0.1379
  374loPI   C6A 5980   3.087  16.098   7.803  0.0233 -0.0928 -0.3746
  374loPI   C1B 5981   2.104  15.919   9.674  0.1793 -0.0454  0.2420
  374loPI   C2B 5982   2.254  15.566   9.538  0.0629  0.2179 -0.1545
  374loPI   C3B 5983   2.289  15.526   9.080 -0.4589 -0.3588 -0.0512
  374loPI   C4B 5984   2.197  15.516   8.680 -0.1765 -0.1048  0.0006
  375loPI    C1 5985   6.099  14.436  10.534  0.1469  0.1277  0.0877
  375loPI    C2 5986   6.389  14.599  10.313 -0.0143  0.1477 -0.1123
  375loPI    C3 5987   6.367  14.678  10.704  0.1404  0.2920 -0.1316
  375loPI   PO4 5988   6.050  14.280  10.384  0.2074 -0.1089 -0.0190
  375loPI   GL1 5989   6.211  14.180   9.969  0.0731 -0.2361  0.0554
  375loPI   GL2 5990   6.414  13.985   9.869 -0.1194  0.2786 -0.1370
  375loPI   C1A 5991   6.090  14.052   9.515  0.0457 -0.4343 -0.1002
  375loPI   C2A 5992   6.192  14.049   9.047  0.0732  0.1504  0.0696
  375loPI   C3A 5993   6.144  14.094   8.690 -0.1274  0.0568  0.3202
  375loPI   C4A 5994   6.210  14.028   8.209  0.0482  0.1730  0.1717
  375loPI   C5A 5995   6.093  13.978   7.765 -0.1664  0.1108  0.2374
  375loPI   C6A 5996   5.991  13.696   7.463  0.0631 -0.2847  0.0929
  375loPI   C1B 5997   6.578  13.932   9.432  0.0081 -0.1933 -0.3829
  375loPI   C2B 5998   6.641  13.919   9.034  0.3138  0.0713  0.0675
  375loPI   C3B 5999   6.523  13.876   8.630 -0.1988 -0.0098  0.1358
  375loPI   C4B 6000   6.661  13.849   8.189 -0.0570 -0.5065  0.0557
  376loPI    C1 6001  15.696  15.994  10.450  0.0131  0.0226 -0.1452
  376loPI    C2 6002  15.801  16.325  10.648 -0.0963 -0.0865  0.0985
  376loPI    C3 6003  15.712  15.991  10.849  0.2954 -0.3510 -0.1535
  376loPI   PO4 6004  15.809  16.078  10.202  0.1698  0.0181  0.1755
  376loPI   GL1 6005  16.072  16.039   9.784 -0.0245 -0.0520  0.0958
  376loPI   GL2 6006  16.293  16.333   9.802  0.2194 -0.0740 -0.1643
  376loPI   C1A 6007  16.135  15.746   9.390  0.2922 -0.3071  0.1334
  376loPI   C2A 6008  15.857  15.630   8.990 -0.0426  0.0767 -0.1374
  376loPI   C3A 6009  15.652  15.373   8.772  0.1212 -0.0168 -0.2739
  376loPI   C4A 6010  15.586  15.162   8.465  0.3065 -0.1771 -0.1680
  376loPI   C5A 6011  15.523  15.420   8.261 -0.4323 -0.2853  0.0784
  376loPI   C6A 6012  15.627  15.698   7.881 -0.2499  0.0300  0.0668
  376loPI   C1B 6013  16.195  16.270   9.374  0.0259 -0.3935 -0.0307
  376loPI   C2B 6014  15.800  16.076   9.235 -0.3247  0.0316  0.0213
  376loPI   C3B 6015  15.605  16.025   8.888  0.1276 -0.1858 -0.1244
  376loPI   C4B 6016  15.515  15.993   8.400 -0.3170 -0.0054  0.0571
  377loPI    C1 6017  10.983   2.761  10.563 -0.2282 -0.0561 -0.1112
  377loPI    C2 6018  10.952   3.047  10.286  0.0638  0.2064  0.1199
  377loPI    C3 6019  11.306   2.874  10.356 -0.0399  0.0343  0.2238
  377loPI   PO4 6020  10.747   2.615  10.519  0.0203  0.0151 -0.3709
  377loPI   GL1 6021  10.410   2.577  10.142 -0.3452  0.5077 -0.0933
  377loPI   GL2 6022  10.510   2.851  10.114  0.4135  0.2476  0.0489
  377loPI   C1A 6023  10.139   2.297   9.831 -0.0055  0.3836  0.0715
  377loPI   C2A 6024  10.152   2.228   9.362  0.3053  0.0205 -0.0567
  377loPI   C3A 6025  10.260   2.105   8.910  0.0644  0.2318 -0.4035
  377loPI   C4A 6026  10.234   2.140   8.471  0.1131 -0.3528  0.0255
  377loPI   C5A 6027  10.198   2.197   8.041 -0.1444 -0.0469  0.1632
  377loPI   C6A 6028  10.250   2.251   7.600 -0.0287  0.2183  0.0150
  377loPI   C1B 6029  10.340   2.936   9.727  0.0715  0.0263  0.3832
  377loPI   C2B 6030  10.244   2.999   9.273  0.0792 -0.3094  0.1318
  377loPI   C3B 6031  10.236   3.040   8.870 -0.1670  0.0184  0.0004
  377loPI   C4B 6032  10.149   3.067   8.389 -0.0677 -0.0391 -0.2339
  378loPI    C1 6033   5.360   7.401  10.518  0.0931 -0.0303 -0.2680
  378loPI    C2 6034   5.665   7.399  10.777 -0.0924 -0.0627 -0.0466
  378loPI    C3 6035   5.335   7.187  10.855 -0.1022 -0.1721 -0.3706
  378loPI   PO4 6036   5.561   7.326  10.280  0.2906  0.0721  0.0047
  378loPI   GL1 6037   5.977   7.473   9.959  0.1952  0.1799 -0.0951
  378loPI   GL2 6038   6.112   7.548   9.741 -0.3285  0.1085 -0.1896
  378loPI   C1A 6039   5.662   7.320   9.619 -0.3852 -0.1079 -0.0459
  378loPI   C2A 6040   5.431   7.319   9.247  0.1689  0.1355  0.1179
  378loPI   C3A 6041   5.096   7.284   8.892 -0.1169  0.0431 -0.1046
  378loPI   C4A 6042   5.008   7.140   8.463  0.0830 -0.1198  0.1220
  378loPI   C5A 6043   4.948   7.224   8.043  0.2192 -0.2240 -0.3167
  378loPI   C6A 6044   5.173   7.083   7.644  0.1663  0.0940 -0.0960
  378loPI   C1B 6045   5.950   7.558   9.329  0.1428 -0.1084  0.0806
  378loPI   C2B 6046   5.877   7.610   8.918 -0.2481  0.0969 -0.2782
  378loPI   C3B 6047   5.548   7.776   8.601 -0.1839 -0.2969  0.1381
  378loPI   C4B 6048   5.163   7.689   8.549 -0.0135  0.3723  0.0608
  379loPI    C1 6049   1.277  11.783  10.801 -0.0720 -0.1617 -0.1262
  379loPI    C2 6050   1.228  11.859  11.191  0.0262  0.0371 -0.1509
  379loPI    C3 6051   1.397  12.133  10.954 -0.0292 -0.0845 -0.3333
  379loPI   PO4 6052   1.080  11.639  10.636  0.0592 -0.0352 -0.0717
  379loPI   GL1 6053   0.825  11.512  10.210 -0.2561  0.3316  0.1232
  379loPI   GL2 6054   1.014  11.640   9.966  0.0261 -0.0318 -0.2427
  379loPI   C1A 6055   0.678  11.305   9.786  0.2077 -0.2281 -0.2105
  379loPI   C2A 6056   0.716  11.245   9.378 -0.2581 -0.2148 -0.0640
  379loPI   C3A 6057   0.578  11.362   8.942 -0.2985 -0.0415 -0.3460
  379loPI   C4A 6058   0.389  11.128   8.562  0.3053  0.0944  0.2072
  379loPI   C5A 6059   0.190  11.064   8.139  0.1162  0.0298 -0.2593
  379loPI   C6A 6060  -0.045  10.797   7.948  0.2297  0.1493  0.3336
  379loPI   C1B 6061   1.056  11.663   9.520 -0.0150  0.0712 -0.1276
  379loPI   C2B 6062   1.054  11.661   9.049 -0.1058  0.1605  0.2623
  379loPI   C3B 6063   1.038  11.762   8.573  0.1208 -0.0980  0.0361
  379loPI   C4B 6064   1.051  11.652   8.125  0.0431  0.2403  0.1591
  380loPI    C1 6065   7.966  16.173  10.203 -0.0350 -0.3059  0.2342
  380loPI    C2 6066   7.751  16.028   9.899  0.3337 -0.1052 -0.1343
  380loPI    C3 6067   7.770  15.827  10.245 -0.3236 -0.1940 -0.1357
  380loPI   PO4 6068   8.146  16.403  10.050 -0.1181  0.1838  0.2101
  380loPI   GL1 6069   8.427  16.265   9.784  0.3646 -0.0160  0.1623
  380loPI   GL2 6070   8.213  15.994   9.745  0.0315 -0.1446  0.0456
  380loPI   C1A 6071   8.475  16.520   9.439 -0.2427  0.2714 -0.3677
  380loPI   C2A 6072   8.542  16.465   9.022 -0.0117  0.2315  0.3677
  380loPI   C3A 6073   8.652  16.610   8.512  0.3304 -0.0340  0.2475
  380loPI   C4A 6074   8.723  16.542   8.106  0.1692 -0.1363 -0.1634
  380loPI   C5A 6075   8.656  16.228   7.806 -0.0737 -0.3442  0.0780
  380loPI   C6A 6076   8.344  15.843   7.714 -0.0716  0.1227  0.1211
  380loPI   C1B 6077   8.396  15.927   9.439 -0.0593  0.0436 -0.2948
  380loPI   C2B 6078   8.353  15.868   8.963 -0.0213  0.2977 -0.1865
  380loPI   C3B 6079   8.370  16.136   8.608 -0.1392 -0.1688 -0.2668
  380loPI   C4B 6080   8.397  16.072   8.195  0.0469  0.0080 -0.2163
  381loPI    C1 6081  14.731   4.357  10.736  0.1827 -0.1723 -0.0073
  381loPI    C2 6082  14.589   4.092  11.000 -0.0202 -0.2020 -0.1436
  381loPI    C3 6083  14.939   4.274  11.067 -0.1321 -0.1100  0.2106
  381loPI   PO4 6084  14.760   4.300  10.519  0.1440  0.1686  0.2669
  381loPI   GL1 6085  14.835   4.525  10.132  0.1354 -0.3496  0.2190
  381loPI   GL2 6086  15.103   4.390  10.175 -0.1801 -0.2374 -0.0708
  381loPI   C1A 6087  14.996   4.511   9.653 -0.2600 -0.1254 -0.0667
  381loPI   C2A 6088  14.926   4.417   9.334 -0.2581 -0.1249 -0.2868
  381loPI   C3A 6089  14.932   4.313   8.959 -0.1035  0.0392 -0.0193
  381loPI   C4A 6090  15.141   4.395   8.528  0.0273 -0.1942 -0.1921
  381loPI   C5A 6091  15.327   4.303   8.236  0.0557 -0.3289  0.0006
  381loPI   C6A 6092  15.639   4.553   7.993 -0.2561  0.2242  0.1484
  381loPI   C1B 6093  15.205   4.085   9.858 -0.0225 -0.2971  0.0086
  381loPI   C2B 6094  15.238   3.987   9.390 -0.2711  0.1577 -0.2714
  381loPI   C3B 6095  15.180   3.877   8.977  0.1265 -0.4374 -0.2789
  381loPI   C4B 6096  15.027   3.896   8.579 -0.0073  0.1039  0.1614
  382loPI    C1 6097   1.412  17.016  10.565 -0.1945  0.0647 -0.0551
  382loPI    C2 6098   1.781  16.971  10.715 -0.1483  0.3314 -0.0830
  382loPI    C3 6099   1.469  17.020  10.961 -0.1879 -0.0284 -0.0548
  382loPI   PO4 6100   1.320  16.868  10.346  0.0072 -0.1403  0.0245
  382loPI   GL1 6101   1.362  17.025   9.853  0.2571 -0.0241  0.3662
  382loPI   GL2 6102   1.496  17.387   9.784  0.2608 -0.0556  0.2579
  382loPI   C1A 6103   1.189  16.941   9.483 -0.1859 -0.0423 -0.0795
  382loPI   C2A 6104   1.069  16.936   9.006  0.0858 -0.0356 -0.1089
  382loPI   C3A 6105   1.025  16.911   8.558  0.1427  0.1348 -0.0538
  382loPI   C4A 6106   1.122  16.966   8.134 -0.0576  0.0842 -0.0297
  382loPI   C5A 6107   0.930  17.045   7.789 -0.0114  0.1523  0.1325
  382loPI   C6A 6108   0.693  17.305   7.472 -0.0405 -0.0214 -0.2000
  382loPI   C1B 6109   1.585  17.335   9.378  0.0808 -0.0705  0.1369
  382loPI   C2B 6110   1.454  17.322   8.971  0.0474 -0.0858  0.1306
  382loPI   C3B 6111   1.419  17.337   8.450  0.0399 -0.0640  0.1242
  382loPI   C4B 6112   1.360  17.611   8.109  0.0570 -0.0577  0.1795
  383loPI    C1 6113   3.024   8.419  10.452  0.4025  0.1605 -0.2367
  383loPI    C2 6114   3.276   8.218  10.689 -0.1900 -0.2597  0.0628
  383loPI    C3 6115   3.181   8.597  10.774  0.2134 -0.1476  0.0331
  383loPI   PO4 6116   3.134   8.252  10.208 -0.0679 -0.0776  0.3180
  383loPI   GL1 6117   3.103   8.006   9.919 -0.0548  0.0842  0.0429
  383loPI   GL2 6118   3.361   7.836   9.832 -0.0175  0.0765  0.0702
  383loPI   C1A 6119   3.147   8.129   9.509 -0.0044 -0.1201 -0.1624
  383loPI   C2A 6120   3.063   8.191   9.002  0.1466  0.2481 -0.1171
  383loPI   C3A 6121   2.865   8.132   8.548 -0.2640  0.0019  0.0818
  383loPI   C4A 6122   2.786   8.153   8.150 -0.0746 -0.0100  0.2188
  383loPI   C5A 6123   2.624   8.266   7.760 -0.1002  0.0623  0.1443
  383loPI   C6A 6124   2.431   8.575   7.566 -0.1782 -0.3227 -0.1119
  383loPI   C1B 6125   3.415   7.733   9.439  0.1888  0.2080 -0.0378
  383loPI   C2B 6126   3.515   7.960   9.171  0.1609  0.0646  0.0397
  383loPI   C3B 6127   3.424   8.003   8.680  0.0860  0.3779  0.1730
  383loPI   C4B 6128   3.252   7.963   8.246 -0.4350  0.1385  0.1663
  384loPI    C1 6129   2.732   5.778  10.579 -0.1821 -0.0366 -0.0864
  384loPI    C2 6130   2.478   5.948  10.837  0.0311  0.0374  0.0781
  384loPI    C3 6131   2.803   5.760  10.972  0.1193  0.0334 -0.1353
  384loPI   PO4 6132   2.604   5.734  10.422 -0.0777 -0.0121 -0.3574
  384loPI   GL1 6133   2.581   5.750  10.009 -0.1021 -0.1617 -0.0833
  384loPI   GL2 6134   2.810   5.463   9.900  0.2645 -0.0790 -0.0901
  384loPI   C1A 6135   2.496   5.754   9.558 -0.1888 -0.1044  0.2037
  384loPI   C2A 6136   2.516   5.757   9.169  0.2710  0.1816  0.0577
  384loPI   C3A 6137   2.455   5.669   8.774 -0.1974  0.2503  0.4324
  384loPI   C4A 6138   2.567   5.752   8.362  0.0284  0.3047 -0.1895
  384loPI   C5A 6139   2.440   5.735   7.905  0.0708 -0.1127 -0.0427
  384loPI   C6A 6140   2.320   5.931   7.490 -0.1643  0.1270  0.0526
  384loPI   C1B 6141   2.875   5.465   9.441 -0.0016 -0.4019  0.0391
  384loPI   C2B 6142   2.883   5.470   9.007  0.2377 -0.0653  0.0113
  384loPI   C3B 6143   2.915   5.426   8.561 -0.0978  0.0227  0.2794
  384loPI   C4B 6144   2.968   5.392   8.148 -0.1267 -0.2848 -0.0429
  385loPI    C1 6145   1.171  14.820  10.468 -0.0353 -0.0269  0.1108
  385loPI    C2 6146   1.284  15.131  10.694  0.1025 -0.1846  0.2620
  385loPI    C3 6147   0.918  15.123  10.532  0.1120  0.0740  0.2240
  385loPI   PO4 6148   1.437  14.731  10.385 -0.0557  0.1525 -0.1013
  385loPI   GL1 6149   1.677  14.769  10.020 -0.0643 -0.1940 -0.0699
  385loPI   GL2 6150   1.585  14.529   9.961  0.0489  0.2612  0.2581
  385loPI   C1A 6151   1.492  14.899   9.672 -0.2477  0.0615 -0.1836
  385loPI   C2A 6152   1.430  14.897   9.190 -0.1852  0.2016  0.0191
  385loPI   C3A 6153   1.346  14.863   8.801  0.0251  0.2931  0.1896
  385loPI   C4A 6154   1.351  14.884   8.352 -0.0413  0.1575 -0.3660
  385loPI   C5A 6155   1.512  14.958   7.978 -0.3519 -0.0628  0.0169
  385loPI   C6A 6156   1.737  14.583   7.879 -0.1061 -0.0483  0.1162
  385loPI   C1B 6157   1.604  14.328   9.561 -0.0929  0.3036  0.0409
  385loPI   C2B 6158   1.626  13.921   9.384 -0.2076  0.1511  0.1658
  385loPI   C3B 6159   1.600  13.864   8.889 -0.0623 -0.0404 -0.0609
  385loPI   C4B 6160   1.628  13.725   8.487  0.0540  0.1355  0.0167
  386loPI    C1 6161   4.702   2.131  10.501 -0.0695  0.0421 -0.0681
  386loPI    C2 6162   4.480   2.287  10.208  0.0391  0.0972 -0.1219
  386loPI    C3 6163   4.542   2.496  10.543  0.0131  0.0833 -0.1083
  386loPI   PO4 6164   4.915   2.133  10.366  0.3662  0.0144 -0.3344
  386loPI   GL1 6165   4.933   2.173   9.937  0.2881 -0.1766 -0.1016
  386loPI   GL2 6166   4.688   1.907   9.974 -0.1236 -0.2476 -0.0718
  386loPI   C1A 6167   4.983   2.419   9.581 -0.3346  0.0938 -0.0183
  386loPI   C2A 6168   4.705   2.756   9.348  0.3434 -0.1253  0.3252
  386loPI   C3A 6169   4.633   2.626   8.950  0.2632 -0.1547  0.0630
  386loPI   C4A 6170   4.738   2.779   8.503  0.1875  0.2267  0.1811
  386loPI   C5A 6171   4.958   2.934   8.129  0.2565  0.1774 -0.1645
  386loPI   C6A 6172   5.031   3.402   7.977  0.2642 -0.1589  0.0646
  386loPI   C1B 6173   4.597   1.818   9.542 -0.2067 -0.0687 -0.1571
  386loPI   C2B 6174   4.545   1.710   9.071  0.3418 -0.0963  0.1594
  386loPI   C3B 6175   4.457   1.697   8.655 -0.3154  0.2562 -0.1279
  386loPI   C4B 6176   4.538   1.766   8.295  0.0145 -0.1807 -0.0022
  387loPI    C1 6177   8.654   1.415  10.347  0.0017 -0.3218 -0.1459
  387loPI    C2 6178   8.308   1.215  10.335 -0.2114  0.0322 -0.0606
  387loPI    C3 6179   8.354   1.520  10.590  0.2586 -0.1761  0.1155
  387loPI   PO4 6180   8.728   1.465  10.125  0.0309  0.1032 -0.1494
  387loPI   GL1 6181   8.611   1.713   9.724 -0.1118 -0.2485  0.1900
  387loPI   GL2 6182   8.412   1.415   9.603  0.0337  0.0077 -0.0881
  387loPI   C1A 6183   8.768   1.782   9.258  0.1779  0.1572  0.1122
  387loPI   C2A 6184   8.863   1.839   8.762  0.2328  0.0179  0.1703
  387loPI   C3A 6185   8.911   1.740   8.334 -0.2935 -0.0433  0.2286
  387loPI   C4A 6186   8.869   1.769   7.987 -0.0202  0.0522  0.0769
  387loPI   C5A 6187   9.010   1.819   7.583  0.1848 -0.0621  0.0855
  387loPI   C6A 6188   9.385   1.861   7.312  0.4534  0.1561 -0.1623
  387loPI   C1B 6189   8.247   1.171   9.232 -0.4058 -0.0671  0.2006
  387loPI   C2B 6190   8.169   1.413   8.835 -0.0847  0.0089  0.4180
  387loPI   C3B 6191   8.072   1.376   8.471  0.1811  0.0083 -0.2652
  387loPI   C4B 6192   7.696   1.250   8.356  0.1880 -0.0241 -0.2027
  388loPI    C1 6193  12.065  16.963  10.520  0.1745  0.0132  0.1729
  388loPI    C2 6194  11.747  17.108  10.714  0.0036 -0.0815 -0.0324
  388loPI    C3 6195  12.103  17.093  10.897 -0.1311 -0.0735  0.2358
  388loPI   PO4 6196  11.958  17.023  10.271 -0.1935  0.1335 -0.0437
  388loPI   GL1 6197  12.103  16.837   9.918 -0.0219  0.3629  0.1464
  388loPI   GL2 6198  12.483  16.834   9.838 -0.3864  0.3773 -0.0478
  388loPI   C1A 6199  12.077  17.004   9.507  0.0648 -0.2804 -0.0107
  388loPI   C2A 6200  12.093  17.160   9.147 -0.1411 -0.1434  0.4123
  388loPI   C3A 6201  12.115  17.224   8.670  0.2307  0.2935  0.3329
  388loPI   C4A 6202  12.125  17.264   8.158  0.0119  0.0393  0.2981
  388loPI   C5A 6203  11.923  17.298   7.818 -0.3222  0.0507 -0.0357
  388loPI   C6A 6204  11.929  17.217   7.443  0.2723  0.1411  0.1506
  388loPI   C1B 6205  12.439  16.762   9.321 -0.2407  0.2059 -0.0988
  388loPI   C2B 6206  12.562  16.752   8.853 -0.2766 -0.1465  0.0455
  388loPI   C3B 6207  12.434  16.867   8.484  0.0495 -0.0154 -0.0768
  388loPI   C4B 6208  12.350  16.738   8.063  0.0015 -0.1782 -0.3828
  389loPI    C1 6209  16.012   3.378  10.373  0.1024  0.2300  0.1678
  389loPI    C2 6210  15.832   3.368  10.730  0.1161 -0.2594  0.1670
  389loPI    C3 6211  15.667   3.180  10.418  0.2774 -0.1222 -0.0028
  389loPI   PO4 6212  16.089   3.626  10.294 -0.1307  0.1299 -0.1471
  389loPI   GL1 6213  15.973   3.973  10.074 -0.1465  0.2406 -0.2211
  389loPI   GL2 6214  16.188   4.012   9.999 -0.0360 -0.2846 -0.1777
  389loPI   C1A 6215  15.716   4.034   9.734  0.2072  0.0536 -0.1012
  389loPI   C2A 6216  15.728   3.984   9.309 -0.0835  0.0340  0.2568
  389loPI   C3A 6217  15.702   3.938   8.940  0.4738 -0.3141 -0.1279
  389loPI   C4A 6218  16.031   3.722   8.683  0.1212  0.0621  0.0391
  389loPI   C5A 6219  16.369   3.395   8.516 -0.0626  0.1371  0.0535
  389loPI   C6A 6220  16.755   3.168   8.591  0.0076  0.1935 -0.0878
  389loPI   C1B 6221  16.201   3.973   9.514 -0.0198 -0.0062  0.2100
  389loPI   C2B 6222  16.348   3.940   9.068 -0.0496 -0.1846  0.2794
  389loPI   C3B 6223  16.568   3.539   8.928 -0.0869  0.0794 -0.0541
  389loPI   C4B 6224  16.497   3.103   9.004 -0.0024 -0.0490 -0.3572
  390loPI    C1 6225   0.351  12.615  11.044 -0.0902  0.0569  0.2280
  390loPI    C2 6226   0.445  12.658  11.430 -0.0253  0.1518  0.2022
  390loPI    C3 6227   0.061  12.644  11.318 -0.0466 -0.2241  0.3071
  390loPI   PO4 6228   0.433  12.806  10.895 -0.0265 -0.1761 -0.1310
  390loPI   GL1 6229   0.576  12.643  10.522  0.0783 -0.0514 -0.0481
  390loPI   GL2 6230   0.715  12.357  10.304 -0.2319 -0.0719  0.0756
  390loPI   C1A 6231   0.470  12.975  10.126  0.1855 -0.0071 -0.1187
  390loPI   C2A 6232   0.347  12.859   9.621 -0.1475 -0.3792  0.1767
  390loPI   C3A 6233   0.298  12.862   9.174 -0.0795 -0.1356  0.0046
  390loPI   C4A 6234   0.355  12.962   8.727  0.2495  0.1759 -0.2483
  390loPI   C5A 6235   0.407  12.744   8.271  0.0261 -0.4689  0.1313
  390loPI   C6A 6236   0.476  12.490   7.939 -0.1858 -0.0928 -0.1982
  390loPI   C1B 6237   0.370  12.491  10.035  0.2288  0.3000  0.2004
  390loPI   C2B 6238   0.349  12.290   9.666  0.1201  0.1804 -0.1225
  390loPI   C3B 6239   0.455  12.374   9.209 -0.1784  0.1628  0.2868
  390loPI   C4B 6240   0.445  12.398   8.798 -0.0535 -0.0688  0.2547
  391loPI    C1 6241  17.093   1.074  10.525  0.0273 -0.0778 -0.0722
  391loPI    C2 6242  17.255   1.364  10.302  0.0663 -0.0109  0.0427
  391loPI    C3 6243  17.100   1.451  10.661 -0.1901 -0.0806 -0.0491
  391loPI   PO4 6244  17.121   0.860  10.385 -0.4072 -0.0823 -0.2365
  391loPI   GL1 6245  17.346   0.826   9.957 -0.0752  0.3545 -0.0255
  391loPI   GL2 6246  17.116   0.846   9.808  0.0999 -0.1039 -0.1588
  391loPI   C1A 6247  17.577   1.069   9.634 -0.1282  0.2177  0.3025
  391loPI   C2A 6248  17.746   1.007   9.162  0.0365  0.1606 -0.1085
  391loPI   C3A 6249  18.094   0.828   8.932  0.1489  0.0093  0.0319
  391loPI   C4A 6250  18.049   0.946   8.518  0.2839  0.1557  0.0797
  391loPI   C5A 6251  17.950   1.063   8.093  0.1740 -0.2227  0.1492
  391loPI   C6A 6252  17.824   1.007   7.720 -0.1730  0.0273 -0.0202
  391loPI   C1B 6253  17.342   0.596   9.526  0.1966 -0.2417 -0.1096
  391loPI   C2B 6254  17.264   0.231   9.203  0.0012 -0.2244  0.0107
  391loPI   C3B 6255  17.216   0.036   8.800 -0.0685  0.1231  0.0546
  391loPI   C4B 6256  16.934   0.314   8.558 -0.2233  0.0313 -0.0421
  392loPI    C1 6257   8.506   5.058  10.693 -0.2175  0.0443  0.1496
  392loPI    C2 6258   8.213   4.846  10.522 -0.0187 -0.0875 -0.0336
  392loPI    C3 6259   8.215   4.900  10.918 -0.3032 -0.0619 -0.0330
  392loPI   PO4 6260   8.767   4.977  10.587  0.2562  0.1831 -0.1469
  392loPI   GL1 6261   9.060   4.813  10.321  0.0440 -0.1894  0.0429
  392loPI   GL2 6262   8.710   4.719  10.150 -0.0724 -0.0166  0.1940
  392loPI   C1A 6263   9.247   4.818   9.879  0.1294 -0.1402 -0.1010
  392loPI   C2A 6264   9.254   4.771   9.417 -0.1839  0.0498 -0.1563
  392loPI   C3A 6265   9.282   4.856   9.057 -0.0927  0.1987  0.3123
  392loPI   C4A 6266   9.362   4.889   8.684 -0.0302  0.1720  0.0100
  392loPI   C5A 6267   9.364   4.881   8.290 -0.1262 -0.3399 -0.2177
  392loPI   C6A 6268   9.387   4.891   7.936  0.2263 -0.0754 -0.0399
  392loPI   C1B 6269   8.692   4.873   9.709 -0.0824 -0.1445  0.1179
  392loPI   C2B 6270   8.724   4.922   9.233 -0.0698  0.0408 -0.4068
  392loPI   C3B 6271   8.767   4.902   8.797  0.0761 -0.0146 -0.1350
  392loPI   C4B 6272   8.846   4.884   8.387 -0.0614 -0.3052  0.4172
  393loPI    C1 6273  11.255   0.532  10.573 -0.0962 -0.0037 -0.1505
  393loPI    C2 6274  11.575   0.359  10.741 -0.0944  0.0878 -0.0594
  393loPI    C3 6275  11.207   0.270  10.871 -0.1000  0.0645 -0.0910
  393loPI   PO4 6276  11.399   0.538  10.291  0.2162  0.2746 -0.0856
  393loPI   GL1 6277  11.617   0.586   9.918  0.0584  0.0833  0.0813
  393loPI   GL2 6278  11.608   0.905   9.935 -0.4007  0.5390 -0.1283
  393loPI   C1A 6279  11.740   0.656   9.434  0.0780  0.3816 -0.0249
  393loPI   C2A 6280  11.902   0.711   8.972 -0.0352  0.1265 -0.2549
  393loPI   C3A 6281  12.012   0.782   8.492  0.0015 -0.2092 -0.0131
  393loPI   C4A 6282  12.080   0.789   8.074  0.2056  0.2154  0.0539
  393loPI   C5A 6283  11.925   0.540   7.821 -0.1105 -0.1215  0.1430
  393loPI   C6A 6284  11.422   0.378   7.759  0.1824 -0.1612  0.1234
  393loPI   C1B 6285  11.359   0.901   9.620 -0.3847  0.0807 -0.1336
  393loPI   C2B 6286  11.342   1.019   9.192 -0.1512 -0.0883  0.2117
  393loPI   C3B 6287  11.168   1.214   8.830  0.1213 -0.1544 -0.1850
  393loPI   C4B 6288  11.021   1.349   8.329  0.3172  0.1415 -0.1584
  394loPI    C1 6289   4.233   3.432  10.626  0.1383 -0.0501 -0.0563
  394loPI    C2 6290   4.037   3.708  10.840 -0.0113 -0.0554 -0.1843
  394loPI    C3 6291   4.310   3.474  11.016  0.1340  0.1887 -0.0795
  394loPI   PO4 6292   4.142   3.504  10.383 -0.1202  0.0541 -0.0386
  394loPI   GL1 6293   4.332   3.307  10.039  0.0125  0.0366 -0.0001
  394loPI   GL2 6294   4.395   3.591   9.837  0.0575  0.1270  0.0188
  394loPI   C1A 6295   4.315   3.203   9.505 -0.1105  0.1198 -0.1060
  394loPI   C2A 6296   4.289   3.050   9.057  0.0181 -0.1384  0.2124
  394loPI   C3A 6297   4.396   3.123   8.606  0.2077 -0.0484  0.1536
  394loPI   C4A 6298   4.440   3.240   8.175  0.1543 -0.0709  0.0674
  394loPI   C5A 6299   4.228   3.570   7.895 -0.4128 -0.4046 -0.1651
  394loPI   C6A 6300   3.969   3.803   7.604  0.0671 -0.3281 -0.2518
  394loPI   C1B 6301   4.404   3.708   9.428 -0.1485 -0.5456  0.0579
  394loPI   C2B 6302   4.445   3.523   9.022 -0.0417 -0.0011  0.0023
  394loPI   C3B 6303   4.491   3.683   8.555  0.1671  0.2686 -0.0486
  394loPI   C4B 6304   4.622   3.694   8.144  0.0307 -0.0383 -0.3962
  395loPI    C1 6305  14.003  15.833  10.455  0.1024  0.0374  0.1104
  395loPI    C2 6306  14.272  16.122  10.518  0.0319  0.1555 -0.1206
  395loPI    C3 6307  14.142  15.900  10.824  0.4391  0.0534 -0.0159
  395loPI   PO4 6308  13.905  15.879  10.262 -0.1975  0.2870  0.0014
  395loPI   GL1 6309  14.146  16.003   9.916 -0.1016 -0.2589  0.2271
  395loPI   GL2 6310  13.967  15.786   9.774  0.2275  0.2070  0.1783
  395loPI   C1A 6311  14.195  16.134   9.456  0.1528  0.5099 -0.1044
  395loPI   C2A 6312  14.209  16.029   9.053 -0.3001 -0.0855 -0.0470
  395loPI   C3A 6313  14.136  15.963   8.723  0.2226 -0.1616 -0.2713
  395loPI   C4A 6314  14.035  15.836   8.353  0.0955  0.0796 -0.1115
  395loPI   C5A 6315  14.066  15.695   7.908 -0.2990 -0.1515 -0.2966
  395loPI   C6A 6316  13.936  15.693   7.419  0.0353 -0.0721  0.2238
  395loPI   C1B 6317  13.868  15.625   9.292  0.2507 -0.1994 -0.0918
  395loPI   C2B 6318  13.739  15.609   8.819  0.0998  0.1416 -0.3112
  395loPI   C3B 6319  13.658  15.469   8.434 -0.3103 -0.2763 -0.0942
  395loPI   C4B 6320  13.573  15.470   7.951 -0.4055  0.2121 -0.6601
  396loPI    C1 6321   7.506   3.561  10.446 -0.0088 -0.0635  0.2450
  396loPI    C2 6322   7.389   3.226  10.261  0.0767  0.0695 -0.0559
  396loPI    C3 6323   7.480   3.218  10.651  0.0776 -0.2557 -0.0602
  396loPI   PO4 6324   7.705   3.695  10.293 -0.0055  0.1355 -0.0790
  396loPI   GL1 6325   7.709   3.680   9.849 -0.1635  0.0825 -0.1126
  396loPI   GL2 6326   7.405   3.598   9.906 -0.1059 -0.1318  0.1808
  396loPI   C1A 6327   7.805   3.637   9.441  0.0255  0.3549 -0.2440
  396loPI   C2A 6328   7.895   3.659   9.009 -0.0673  0.1566  0.1045
  396loPI   C3A 6329   7.926   3.673   8.599  0.0112  0.0637  0.1759
  396loPI   C4A 6330   7.596   3.642   8.237  0.1116  0.2356 -0.3260
  396loPI   C5A 6331   7.321   3.367   8.011 -0.1873 -0.0604 -0.2831
  396loPI   C6A 6332   7.060   3.282   7.653 -0.4003 -0.1240 -0.0193
  396loPI   C1B 6333   7.283   3.716   9.509  0.1276 -0.0521 -0.1850
  396loPI   C2B 6334   7.323   3.714   9.124  0.0527  0.1520  0.1389
  396loPI   C3B 6335   7.387   3.658   8.716 -0.3787  0.3393 -0.0817
  396loPI   C4B 6336   7.068   3.718   8.359 -0.1655 -0.0392  0.2258
  397loPI    C1 6337   1.546   1.764  10.520  0.3086  0.0070  0.0266
  397loPI    C2 6338   1.597   1.953  10.869 -0.0436 -0.2525  0.2243
  397loPI    C3 6339   1.546   1.556  10.861 -0.1465 -0.2363 -0.1135
  397loPI   PO4 6340   1.743   1.907  10.277 -0.2465 -0.0576 -0.2755
  397loPI   GL1 6341   1.745   2.221   9.917  0.2469  0.0828 -0.0915
  397loPI   GL2 6342   1.387   2.257   9.893  0.5066 -0.1646 -0.2136
  397loPI   C1A 6343   1.907   2.284   9.501 -0.1773  0.0124 -0.2202
  397loPI   C2A 6344   1.866   2.302   9.066 -0.1240  0.0153  0.0327
  397loPI   C3A 6345   1.923   2.255   8.677 -0.0169 -0.1036 -0.0401
  397loPI   C4A 6346   1.877   2.266   8.283 -0.0629  0.2003 -0.1151
  397loPI   C5A 6347   1.941   2.272   7.882 -0.2103  0.1360 -0.2231
  397loPI   C6A 6348   1.907   2.230   7.442  0.0255  0.0226  0.1781
  397loPI   C1B 6349   1.410   2.062   9.406  0.2952 -0.1329 -0.1295
  397loPI   C2B 6350   1.365   2.061   8.957  0.1092  0.0569 -0.0825
  397loPI   C3B 6351   1.509   2.061   8.550 -0.1610  0.2514  0.1753
  397loPI   C4B 6352   1.594   1.937   7.983 -0.0789  0.1434  0.0031
  398loPI    C1 6353   7.761  11.758  10.650  0.0478 -0.0920 -0.1581
  398loPI    C2 6354   7.688  12.148  10.593 -0.0278 -0.1155 -0.2246
  398loPI    C3 6355   7.802  12.016  10.953 -0.4002 -0.0890 -0.0938
  398loPI   PO4 6356   7.923  11.676  10.374 -0.0550  0.0084  0.0286
  398loPI   GL1 6357   7.743  11.596  10.071 -0.0781  0.2925  0.0670
  398loPI   GL2 6358   7.543  11.271  10.172 -0.1903  0.0166 -0.2002
  398loPI   C1A 6359   7.866  11.724   9.688 -0.0245  0.2283 -0.0675
  398loPI   C2A 6360   7.984  11.407   9.449  0.1707  0.1266  0.0324
  398loPI   C3A 6361   8.001  11.188   9.098 -0.1903 -0.0291  0.1539
  398loPI   C4A 6362   7.971  11.291   8.632  0.4731 -0.1829 -0.1539
  398loPI   C5A 6363   8.010  10.941   8.361 -0.1611 -0.2055  0.0094
  398loPI   C6A 6364   8.141  10.614   8.119  0.0167 -0.2401  0.0319
  398loPI   C1B 6365   7.687  11.182   9.804  0.1400 -0.1158  0.3702
  398loPI   C2B 6366   7.491  10.979   9.469 -0.3821 -0.2757 -0.3479
  398loPI   C3B 6367   7.554  10.930   9.011  0.0563 -0.4633 -0.1214
  398loPI   C4B 6368   7.503  10.999   8.538 -0.1772 -0.0584  0.1150
  399loPI    C1 6369   3.741   0.682  10.160 -0.1530  0.2064  0.0053
  399loPI    C2 6370   3.765   0.554  10.538 -0.3037  0.1603 -0.0003
  399loPI    C3 6371   4.000   0.393  10.258 -0.0461  0.3363  0.1108
  399loPI   PO4 6372   3.545   0.703  10.076  0.0750  0.5026  0.3798
  399loPI   GL1 6373   3.349   0.852   9.745 -0.0802 -0.0430 -0.0082
  399loPI   GL2 6374   3.006   0.734   9.882  0.2921 -0.1772  0.1117
  399loPI   C1A 6375   3.370   0.879   9.316 -0.0848 -0.0542  0.3345
  399loPI   C2A 6376   3.503   0.786   8.875  0.1912 -0.0405  0.3409
  399loPI   C3A 6377   3.459   0.904   8.505 -0.0005  0.0619  0.1420
  399loPI   C4A 6378   3.567   0.714   8.125 -0.0004  0.2021  0.0353
  399loPI   C5A 6379   3.417   0.525   7.708  0.0838  0.2392  0.1050
  399loPI   C6A 6380   3.293   0.243   7.354  0.1608 -0.1286  0.0586
  399loPI   C1B 6381   2.873   0.730   9.436  0.1209  0.2191 -0.1166
  399loPI   C2B 6382   2.919   0.606   9.044  0.2966  0.0766  0.0631
  399loPI   C3B 6383   3.024   0.749   8.705 -0.2814  0.1755 -0.1893
  399loPI   C4B 6384   3.053   0.721   8.207  0.2302  0.0328 -0.4037
  400loPI    C1 6385  12.948   7.587  10.978 -0.0097 -0.2486  0.1545
  400loPI    C2 6386  13.263   7.397  11.135 -0.1149 -0.3496  0.2461
  400loPI    C3 6387  13.116   7.723  11.314  0.1270 -0.1188  0.0348
  400loPI   PO4 6388  13.028   7.685  10.770 -0.2624  0.0901 -0.0174
  400loPI   GL1 6389  12.814   7.842  10.366 -0.2341 -0.0415  0.1314
  400loPI   GL2 6390  12.666   7.493  10.473 -0.0162 -0.0029  0.1521
  400loPI   C1A 6391  12.807   7.800   9.917  0.0736 -0.3918  0.0503
  400loPI   C2A 6392  12.962   7.821   9.502 -0.1548 -0.2113 -0.1490
  400loPI   C3A 6393  12.961   7.688   9.016 -0.1691 -0.3002  0.2999
  400loPI   C4A 6394  13.086   7.712   8.563  0.1430 -0.2036  0.1698
  400loPI   C5A 6395  13.124   7.584   8.106  0.0055 -0.1393 -0.0619
  400loPI   C6A 6396  13.371   7.364   7.901  0.1165 -0.0015 -0.2605
  400loPI   C1B 6397  12.623   7.355  10.019  0.1070  0.2735 -0.0444
  400loPI   C2B 6398  12.603   7.433   9.685 -0.0293  0.1440  0.3062
  400loPI   C3B 6399  12.595   7.349   9.268  0.0901 -0.0337  0.1447
  400loPI   C4B 6400  12.589   7.299   8.868 -0.1678  0.2692  0.1217
  401loPI    C1 6401  18.480  12.993  10.455  0.0777 -0.3134  0.0265
  401loPI    C2 6402  18.828  12.795  10.438  0.1097 -0.2959  0.3853
  401loPI    C3 6403  18.634  12.830  10.786 -0.0941 -0.0324  0.2502
  401loPI   PO4 6404  18.315  12.957  10.350  0.1575 -0.0269  0.1893
  401loPI   GL1 6405  18.219  13.107  10.015  0.0184 -0.1585  0.0566
  401loPI   GL2 6406  17.908  13.078   9.965  0.1231 -0.0795  0.0037
  401loPI   C1A 6407  18.165  13.137   9.579 -0.0079 -0.0715  0.1560
  401loPI   C2A 6408  18.086  13.222   9.126  0.0551  0.3502  0.4134
  401loPI   C3A 6409  18.210  13.271   8.648 -0.0277 -0.1866  0.0343
  401loPI   C4A 6410  18.343  13.397   8.294 -0.1078 -0.1206  0.1362
  401loPI   C5A 6411  18.325  13.703   8.010 -0.1699 -0.1127  0.1496
  401loPI   C6A 6412  18.616  13.935   7.771  0.0920 -0.1676 -0.1331
  401loPI   C1B 6413  17.676  12.914   9.653 -0.6058 -0.1818  0.0873
  401loPI   C2B 6414  17.705  12.923   9.220 -0.0988  0.1277  0.0859
  401loPI   C3B 6415  17.831  12.932   8.798  0.0429 -0.2230  0.1782
  401loPI   C4B 6416  17.819  12.944   8.424  0.1556  0.0426 -0.2295
  402loPI    C1 6417  15.394   6.142  11.032  0.2257  0.1550  0.1715
  402loPI    C2 6418  15.116   6.328  11.252 -0.0107 -0.0216  0.0280
  402loPI    C3 6419  15.367   6.068  11.424  0.1766  0.2589  0.1881
  402loPI   PO4 6420  15.270   5.987  10.932  0.1878 -0.2349 -0.0101
  402loPI   GL1 6421  15.260   5.962  10.461 -0.2557 -0.1208 -0.3394
  402loPI   GL2 6422  14.982   6.073  10.433 -0.0771 -0.2124  0.1020
  402loPI   C1A 6423  15.298   5.892  10.031  0.0284  0.2706 -0.1641
  402loPI   C2A 6424  15.240   5.803   9.689  0.2245  0.0158  0.1335
  402loPI   C3A 6425  15.347   5.713   9.216 -0.2765  0.1848 -0.1225
  402loPI   C4A 6426  15.341   5.740   8.741 -0.1916 -0.0123 -0.3066
  402loPI   C5A 6427  15.484   5.791   8.360  0.0388  0.4109  0.0289
  402loPI   C6A 6428  15.308   5.323   8.104  0.0167 -0.4343 -0.0645
  402loPI   C1B 6429  14.782   5.987  10.029 -0.2897 -0.1808  0.1788
  402loPI   C2B 6430  14.719   5.931   9.556 -0.1057  0.1849 -0.0874
  402loPI   C3B 6431  14.831   5.793   9.125  0.1206 -0.0183 -0.0942
  402loPI   C4B 6432  14.778   5.810   8.687  0.0900 -0.0051  0.1117
  403loPI    C1 6433  18.338  11.978  10.544 -0.0905 -0.2057  0.0049
  403loPI    C2 6434  18.140  12.103  10.868  0.0664 -0.0883  0.0564
  403loPI    C3 6435  18.237  11.717  10.830  0.0949 -0.0935  0.1755
  403loPI   PO4 6436  18.278  12.071  10.352 -0.1798 -0.1022  0.0746
  403loPI   GL1 6437  18.259  12.015   9.938 -0.1657  0.0779 -0.0698
  403loPI   GL2 6438  17.916  12.066   9.816  0.1944 -0.0414  0.1632
  403loPI   C1A 6439  18.308  12.229   9.503 -0.2074 -0.0349  0.3507
  403loPI   C2A 6440  18.292  12.189   9.255 -0.0801  0.0855  0.2191
  403loPI   C3A 6441  18.314  12.179   8.811  0.0151  0.0667 -0.2126
  403loPI   C4A 6442  18.332  12.024   8.377 -0.0994 -0.2020 -0.2744
  403loPI   C5A 6443  18.490  11.726   8.084 -0.2878 -0.1427  0.0004
  403loPI   C6A 6444  18.738  11.654   7.814 -0.4226 -0.1348  0.1525
  403loPI   C1B 6445  17.512  11.965   9.699 -0.0120 -0.2490  0.1246
  403loPI   C2B 6446  17.295  12.118   9.365 -0.1713  0.1510 -0.1836
  403loPI   C3B 6447  17.431  12.113   8.911 -0.0998  0.2842 -0.2628
  403loPI   C4B 6448  17.275  12.203   8.489  0.0438 -0.3266  0.1350
  404loPI    C1 6449   6.687  15.823   9.859  0.0034 -0.2032  0.1765
  404loPI    C2 6450   6.780  15.955  10.225 -0.2625 -0.1395  0.2228
  404loPI    C3 6451   6.421  16.036  10.068  0.0219  0.2582 -0.2519
  404loPI   PO4 6452   6.870  15.777   9.778  0.2851 -0.1310 -0.1639
  404loPI   GL1 6453   6.986  15.658   9.376 -0.0410 -0.1426  0.2612
  404loPI   GL2 6454   7.105  15.458   9.515  0.0440  0.0032  0.2179
  404loPI   C1A 6455   7.299  15.519   9.035 -0.0264  0.0510 -0.0479
  404loPI   C2A 6456   7.545  15.395   8.648  0.2478  0.0870  0.0011
  404loPI   C3A 6457   7.862  15.295   8.363 -0.1987 -0.1002 -0.1144
  404loPI   C4A 6458   7.878  15.071   8.057  0.0065  0.1598  0.3380
  404loPI   C5A 6459   8.162  14.899   7.709 -0.0806 -0.1358  0.4168
  404loPI   C6A 6460   8.458  14.624   7.589 -0.0439  0.0470 -0.0435
  404loPI   C1B 6461   6.882  15.253   9.129  0.0894  0.4208 -0.2145
  404loPI   C2B 6462   6.845  15.203   8.705  0.0741 -0.0007 -0.0554
  404loPI   C3B 6463   6.750  15.200   8.255 -0.0365  0.1851 -0.1339
  404loPI   C4B 6464   6.924  15.243   7.805  0.3191  0.1103 -0.1267
  405loPI    C1 6465   0.719   6.458  10.212 -0.1003 -0.0375 -0.1341
  405loPI    C2 6466   0.732   6.697  10.532 -0.0160 -0.2080 -0.0089
  405loPI    C3 6467   0.442   6.743  10.261  0.1380  0.1944 -0.1124
  405loPI   PO4 6468   0.830   6.206  10.335 -0.1469  0.0987  0.1742
  405loPI   GL1 6469   0.967   5.903  10.023 -0.0664  0.3883 -0.1280
  405loPI   GL2 6470   0.884   5.552  10.086 -0.0123 -0.0613  0.0120
  405loPI   C1A 6471   0.849   6.064   9.626 -0.0175 -0.0871 -0.0571
  405loPI   C2A 6472   0.876   6.199   9.248 -0.1261 -0.0205  0.0752
  405loPI   C3A 6473   0.775   6.255   8.799  0.2042 -0.0638 -0.0992
  405loPI   C4A 6474   0.537   6.239   8.499 -0.0873  0.2343  0.3153
  405loPI   C5A 6475   0.383   6.149   8.075  0.1941  0.2609 -0.0879
  405loPI   C6A 6476   0.644   6.151   7.746  0.0208 -0.0095  0.0327
  405loPI   C1B 6477   0.719   5.588   9.634 -0.1229 -0.0643 -0.1171
  405loPI   C2B 6478   0.598   5.824   9.232 -0.2159 -0.0970 -0.0803
  405loPI   C3B 6479   0.373   5.961   8.852 -0.1193  0.3884  0.2491
  405loPI   C4B 6480   0.122   6.001   8.538 -0.1185  0.0827 -0.1421
  406loPI    C1 6481  12.512  18.235  10.510  0.1113 -0.1810  0.1882
  406loPI    C2 6482  12.539  18.620  10.614  0.0365 -0.1530  0.1053
  406loPI    C3 6483  12.604  18.334  10.886 -0.1970 -0.0809  0.2405
  406loPI   PO4 6484  12.573  18.156  10.163 -0.1044  0.3134  0.0062
  406loPI   GL1 6485  12.556  18.221   9.642  0.1060 -0.1765 -0.1521
  406loPI   GL2 6486  12.627  18.561   9.511 -0.1360  0.1067  0.3839
  406loPI   C1A 6487  12.673  17.978   9.263  0.1460  0.1077 -0.0041
  406loPI   C2A 6488  12.896  17.600   9.016 -0.0665  0.1587 -0.0828
  406loPI   C3A 6489  13.085  17.579   8.618  0.2724 -0.1408 -0.0147
  406loPI   C4A 6490  13.360  17.514   8.186  0.0027  0.1726  0.0825
  406loPI   C5A 6491  13.409  17.407   7.733  0.1950 -0.1099 -0.0620
  406loPI   C6A 6492  13.253  17.582   7.374  0.0647  0.0043  0.1600
  406loPI   C1B 6493  12.619  18.406   8.994  0.2274  0.3815  0.3637
  406loPI   C2B 6494  12.471  18.471   8.597 -0.0324  0.1285 -0.1364
  406loPI   C3B 6495  12.467  18.794   8.351  0.1767  0.1774  0.2538
  406loPI   C4B 6496  12.446  19.144   7.989 -0.1106 -0.0270  0.0161
  407loPI    C1 6497  11.939   7.608  10.864 -0.2759 -0.0405  0.1056
  407loPI    C2 6498  12.050   7.356  11.154 -0.0070  0.0186  0.0567
  407loPI    C3 6499  12.026   7.748  11.228  0.1648  0.0458 -0.0272
  407loPI   PO4 6500  12.085   7.640  10.646 -0.2172  0.1314 -0.0171
  407loPI   GL1 6501  11.927   7.741  10.233 -0.2084 -0.0772 -0.3571
  407loPI   GL2 6502  12.088   7.444  10.083  0.0330  0.4612 -0.0148
  407loPI   C1A 6503  11.903   7.840   9.810  0.0321 -0.0483  0.0593
  407loPI   C2A 6504  11.860   7.683   9.467  0.4528 -0.1082 -0.0239
  407loPI   C3A 6505  12.020   7.362   9.211  0.1891  0.2637  0.2293
  407loPI   C4A 6506  12.114   7.353   8.801  0.3063  0.0125 -0.1042
  407loPI   C5A 6507  11.982   7.631   8.521 -0.1934  0.1174 -0.1880
  407loPI   C6A 6508  11.681   7.833   8.372 -0.0436  0.0718  0.1888
  407loPI   C1B 6509  12.063   7.299   9.738 -0.0518 -0.2063  0.1132
  407loPI   C2B 6510  12.238   6.997   9.590  0.2437 -0.3892  0.2949
  407loPI   C3B 6511  12.359   6.943   9.158  0.2440  0.1334 -0.0195
  407loPI   C4B 6512  12.347   6.893   8.686 -0.2223  0.0189 -0.1265
  408loPI    C1 6513  15.768  14.125  10.805  0.3263  0.0038  0.0036
  408loPI    C2 6514  15.449  14.312  10.956  0.2102  0.0739 -0.3199
  408loPI    C3 6515  15.756  14.215  11.195 -0.1361 -0.1753  0.0363
  408loPI   PO4 6516  15.575  14.109  10.503  0.1158 -0.0301 -0.4890
  408loPI   GL1 6517  15.406  14.186  10.048 -0.0073  0.0653 -0.2182
  408loPI   GL2 6518  15.290  13.902   9.962 -0.2676  0.0477 -0.1926
  408loPI   C1A 6519  15.297  14.529   9.788 -0.1179  0.1843 -0.2407
  408loPI   C2A 6520  15.235  14.557   9.310  0.1062  0.2349  0.0527
  408loPI   C3A 6521  14.951  14.558   8.976  0.3649  0.0714 -0.3023
  408loPI   C4A 6522  14.803  14.427   8.541 -0.0428  0.2037  0.1220
  408loPI   C5A 6523  14.698  14.218   8.089 -0.0829  0.1274 -0.0720
  408loPI   C6A 6524  14.659  14.226   7.654  0.1820  0.0101  0.0491
  408loPI   C1B 6525  15.057  14.027   9.622 -0.1952  0.0386 -0.0644
  408loPI   C2B 6526  14.870  14.189   9.334 -0.1480 -0.0910  0.1642
  408loPI   C3B 6527  14.822  14.079   8.968 -0.1523  0.0838  0.3879
  408loPI   C4B 6528  14.818  13.911   8.524  0.0898  0.1348 -0.0129
  409loPI    C1 6529  10.933  15.500  10.588  0.0192 -0.0468 -0.0632
  409loPI    C2 6530  10.619  15.742  10.536 -0.1049 -0.1525  0.1767
  409loPI    C3 6531  10.787  15.707  10.897  0.1259 -0.1679  0.0699
  409loPI   PO4 6532  10.840  15.286  10.350  0.1563 -0.0234 -0.0340
  409loPI   GL1 6533  11.008  15.332   9.960 -0.3607  0.1897  0.0082
  409loPI   GL2 6534  10.582  15.615  10.069  0.1123  0.0839 -0.2984
  409loPI   C1A 6535  11.056  15.488   9.571 -0.2437  0.2706 -0.1525
  409loPI   C2A 6536  11.188  15.494   9.124 -0.2181  0.2034  0.3072
  409loPI   C3A 6537  11.269  15.186   8.855  0.2004 -0.1615  0.0661
  409loPI   C4A 6538  11.188  15.141   8.396 -0.1345  0.1813  0.0664
  409loPI   C5A 6539  11.117  15.274   7.976 -0.2152 -0.0646 -0.0722
  409loPI   C6A 6540  11.000  15.230   7.545 -0.3268 -0.1613  0.0318
  409loPI   C1B 6541  10.537  15.838   9.701 -0.1611 -0.0061  0.0630
  409loPI   C2B 6542  10.620  15.853   9.282  0.2946  0.0050 -0.2490
  409loPI   C3B 6543  10.758  15.986   8.918 -0.0590 -0.3355  0.1111
  409loPI   C4B 6544  10.843  16.008   8.449  0.2013  0.0257 -0.1986
  410loPI    C1 6545  13.830  12.190  10.612 -0.1320 -0.1874  0.0477
  410loPI    C2 6546  13.849  12.461  10.905  0.1084  0.0299 -0.1633
  410loPI    C3 6547  13.501  12.388  10.722  0.0411  0.1947 -0.1035
  410loPI   PO4 6548  14.020  12.276  10.447  0.1160 -0.0948  0.1575
  410loPI   GL1 6549  13.927  12.213  10.048  0.0157 -0.3441  0.0299
  410loPI   GL2 6550  13.764  12.000  10.010 -0.1163 -0.0072 -0.2466
  410loPI   C1A 6551  13.636  12.356   9.693 -0.1205  0.2369  0.3420
  410loPI   C2A 6552  13.618  12.287   9.266  0.0853 -0.0706  0.1731
  410loPI   C3A 6553  13.694  12.293   8.860 -0.0798 -0.0229  0.0105
  410loPI   C4A 6554  13.846  12.084   8.406 -0.1635  0.0794  0.2126
  410loPI   C5A 6555  14.015  11.947   8.055  0.2238  0.0889  0.0114
  410loPI   C6A 6556  14.248  12.005   7.718  0.0307 -0.2264  0.2793
  410loPI   C1B 6557  14.021  11.963   9.554 -0.2229  0.0109 -0.0718
  410loPI   C2B 6558  14.119  12.094   9.140 -0.0578 -0.0415  0.1308
  410loPI   C3B 6559  14.233  12.256   8.637 -0.1344 -0.3632  0.1506
  410loPI   C4B 6560  14.365  12.125   8.312 -0.1740  0.0249 -0.0349
  411loPI    C1 6561  16.146   1.682  10.335 -0.1191 -0.2431 -0.3455
  411loPI    C2 6562  16.210   1.350  10.549  0.0532 -0.1217 -0.2048
  411loPI    C3 6563  16.000   1.653  10.706  0.2047 -0.0205 -0.1954
  411loPI   PO4 6564  16.359   1.820  10.232 -0.4330  0.2681 -0.0659
  411loPI   GL1 6565  16.484   2.085   9.917 -0.1523 -0.2693 -0.0344
  411loPI   GL2 6566  16.139   2.131   9.918  0.0799 -0.0884 -0.1371
  411loPI   C1A 6567  16.350   2.374   9.476  0.2315 -0.3354 -0.2022
  411loPI   C2A 6568  16.316   2.536   9.020 -0.2722  0.2488  0.0602
  411loPI   C3A 6569  16.241   2.766   8.708 -0.2719  0.0367 -0.1172
  411loPI   C4A 6570  15.895   2.751   8.337  0.3831 -0.2226 -0.2445
  411loPI   C5A 6571  15.708   2.964   8.034  0.0455  0.1707  0.0945
  411loPI   C6A 6572  15.361   2.853   7.806  0.4381  0.1855 -0.1302
  411loPI   C1B 6573  15.968   2.056   9.501  0.1525 -0.1589  0.3648
  411loPI   C2B 6574  16.009   1.967   9.061 -0.0476 -0.0571 -0.1040
  411loPI   C3B 6575  16.034   1.799   8.659  0.1074 -0.1593 -0.1160
  411loPI   C4B 6576  15.835   2.017   8.351 -0.1596 -0.1575  0.1225
  412loPI    C1 6577   3.578  -0.099   9.984  0.0089  0.0287  0.1222
  412loPI    C2 6578   3.539   0.272   9.839 -0.3034  0.0278  0.1962
  412loPI    C3 6579   3.554   0.212  10.234 -0.1232 -0.0286  0.1819
  412loPI   PO4 6580   3.348  -0.284   9.851 -0.2303 -0.3406  0.0336
  412loPI   GL1 6581   3.174  -0.303   9.477  0.0884  0.0436  0.0447
  412loPI   GL2 6582   3.226  -0.421   9.070 -0.1019  0.1112 -0.0608
  412loPI   C1A 6583   3.021   0.000   9.236 -0.1863  0.2392 -0.0441
  412loPI   C2A 6584   2.915   0.053   8.819 -0.0775  0.2041  0.0836
  412loPI   C3A 6585   2.987  -0.092   8.396 -0.1833 -0.2635  0.1069
  412loPI   C4A 6586   2.804  -0.142   8.003  0.1131 -0.0667 -0.1911
  412loPI   C5A 6587   2.437   0.205   7.915  0.1145  0.1125 -0.1512
  412loPI   C6A 6588   2.443   0.663   7.986  0.0793  0.1268 -0.2668
  412loPI   C1B 6589   3.050  -0.579   8.607  0.1856 -0.3998 -0.0866
  412loPI   C2B 6590   3.018  -0.585   8.248 -0.2201 -0.0553 -0.0293
  412loPI   C3B 6591   3.220  -0.982   7.956 -0.1791 -0.0998 -0.3715
  412loPI   C4B 6592   3.471  -1.051   7.647 -0.3462  0.2021  0.1125
  413loPI    C1 6593  16.682  17.310  10.460 -0.1022  0.1558  0.3442
  413loPI    C2 6594  16.473  17.602  10.283  0.1826  0.0931 -0.1134
  413loPI    C3 6595  16.825  17.684  10.455  0.0884  0.0824  0.0876
  413loPI   PO4 6596  16.635  17.139  10.330  0.0651  0.0066  0.2010
  413loPI   GL1 6597  16.597  17.131   9.921  0.0378 -0.0230 -0.1523
  413loPI   GL2 6598  16.735  17.388   9.915  0.0240 -0.1044 -0.0993
  413loPI   C1A 6599  16.449  16.889   9.595  0.0663  0.0667 -0.3246
  413loPI   C2A 6600  16.268  16.833   9.207  0.0048 -0.1192 -0.1966
  413loPI   C3A 6601  16.197  16.539   8.839  0.1044  0.3317  0.1955
  413loPI   C4A 6602  16.131  16.106   8.912  0.0892 -0.0372 -0.3061
  413loPI   C5A 6603  16.348  15.698   8.913 -0.2715 -0.0122 -0.2782
  413loPI   C6A 6604  16.402  15.281   8.666 -0.1733  0.1636 -0.0985
  413loPI   C1B 6605  16.648  17.388   9.515 -0.3183 -0.2616  0.1773
  413loPI   C2B 6606  16.618  17.316   9.143 -0.0065 -0.0336 -0.2095
  413loPI   C3B 6607  16.564  17.246   8.731 -0.1241  0.1675  0.0689
  413loPI   C4B 6608  16.721  16.986   8.301 -0.3709  0.1773  0.2599
  414loPI    C1 6609  10.634   8.428  11.011  0.0591 -0.1337  0.0399
  414loPI    C2 6610  10.423   8.465  11.349  0.0619 -0.0140  0.0291
  414loPI    C3 6611  10.624   8.127  11.274 -0.3611 -0.2445 -0.0960
  414loPI   PO4 6612  10.604   8.462  10.816  0.2992  0.1546 -0.0710
  414loPI   GL1 6613  10.534   8.595  10.439 -0.3186 -0.2137  0.1583
  414loPI   GL2 6614  10.281   8.689  10.465  0.0981 -0.1021  0.1159
  414loPI   C1A 6615  10.535   8.443  10.022 -0.1329 -0.0935 -0.1521
  414loPI   C2A 6616  10.666   8.409   9.588  0.0126  0.0232  0.2509
  414loPI   C3A 6617  10.621   8.359   9.097 -0.1658  0.3687  0.0053
  414loPI   C4A 6618  10.695   8.364   8.693 -0.2572 -0.0244  0.1681
  414loPI   C5A 6619  10.802   8.332   8.383  0.2275 -0.1075  0.1220
  414loPI   C6A 6620  11.008   8.324   7.983  0.2035  0.2049 -0.2588
  414loPI   C1B 6621  10.094   8.392  10.195  0.0946  0.1609  0.1687
  414loPI   C2B 6622  10.157   8.412   9.691  0.1755 -0.0913 -0.0565
  414loPI   C3B 6623  10.119   8.363   9.239 -0.2528  0.1447 -0.0999
  414loPI   C4B 6624  10.181   8.384   8.727  0.0186  0.1959  0.0540
  415loPI    C1 6625  11.528  10.637  10.799  0.1480  0.1233  0.1199
  415loPI    C2 6626  11.658  10.259  10.808  0.1795  0.1371  0.2561
  415loPI    C3 6627  11.825  10.534  11.046  0.1785  0.2439  0.1344
  415loPI   PO4 6628  11.353  10.608  10.567 -0.1202 -0.0423 -0.1587
  415loPI   GL1 6629  11.268  10.647  10.261  0.0599 -0.2487  0.0826
  415loPI   GL2 6630  11.624  10.438  10.233  0.1887 -0.0539 -0.1737
  415loPI   C1A 6631  11.283  10.217   9.959  0.1306  0.1160 -0.0776
  415loPI   C2A 6632  11.303  10.109   9.557  0.1305 -0.0200 -0.0063
  415loPI   C3A 6633  11.260  10.246   9.077 -0.2793  0.0050 -0.0417
  415loPI   C4A 6634  11.348  10.043   8.745  0.1058 -0.1654  0.2616
  415loPI   C5A 6635  11.226  10.142   8.406  0.1300  0.2785  0.2537
  415loPI   C6A 6636  10.914  10.371   8.266 -0.0974  0.2307  0.1223
  415loPI   C1B 6637  11.741  10.090  10.003  0.2005  0.0933 -0.0073
  415loPI   C2B 6638  11.870   9.996   9.614  0.1742 -0.0368  0.1311
  415loPI   C3B 6639  11.766  10.093   9.228  0.1196 -0.1164 -0.2117
  415loPI   C4B 6640  11.848  10.110   8.836 -0.3421  0.0540  0.0819
  416loPI    C1 6641   0.679   5.218  10.541  0.0202 -0.1130 -0.0006
  416loPI    C2 6642   0.730   5.461  10.854 -0.0975  0.0339 -0.0940
  416loPI    C3 6643   0.718   5.065  10.908  0.2824  0.0367  0.0366
  416loPI   PO4 6644   0.508   5.292  10.350 -0.2176 -0.0147 -0.1684
  416loPI   GL1 6645   0.568   5.139   9.908 -0.0107 -0.1263  0.1562
  416loPI   GL2 6646   0.892   5.045  10.068  0.0422  0.0609  0.0789
  416loPI   C1A 6647   0.717   5.058   9.524  0.1006  0.1624  0.3783
  416loPI   C2A 6648   0.866   4.975   9.073  0.0949  0.1767  0.0026
  416loPI   C3A 6649   1.073   4.872   8.595  0.1180  0.1691 -0.1071
  416loPI   C4A 6650   0.872   4.679   8.131 -0.4380 -0.0964 -0.0908
  416loPI   C5A 6651   0.841   4.661   7.598 -0.2090  0.1071 -0.2723
  416loPI   C6A 6652   0.735   4.559   7.094 -0.1285 -0.0261  0.0136
  416loPI   C1B 6653   1.038   4.748   9.699 -0.3355  0.3834  0.0533
  416loPI   C2B 6654   0.933   4.499   9.301 -0.1120 -0.0553 -0.0955
  416loPI   C3B 6655   0.825   4.444   8.810 -0.2541 -0.2538 -0.0052
  416loPI   C4B 6656   0.781   4.249   8.433  0.0894  0.0585 -0.1407
  417loPI    C1 6657  16.516  12.506  10.730  0.0549 -0.0727  0.0128
  417loPI    C2 6658  16.904  12.484  10.827  0.0378 -0.1286  0.0687
  417loPI    C3 6659  16.637  12.252  11.015 -0.0492  0.0512  0.1694
  417loPI   PO4 6660  16.496  12.508  10.472 -0.0074  0.0910  0.3456
  417loPI   GL1 6661  16.299  12.791  10.199 -0.2320  0.1186 -0.1039
  417loPI   GL2 6662  16.601  12.799  10.046 -0.0249 -0.1060 -0.1582
  417loPI   C1A 6663  16.249  12.546   9.809  0.1906 -0.1639  0.0398
  417loPI   C2A 6664  16.332  12.628   9.426  0.1387 -0.0938 -0.0485
  417loPI   C3A 6665  16.460  12.523   8.986  0.0972  0.3996  0.4054
  417loPI   C4A 6666  16.526  12.141   8.706  0.1044 -0.1911 -0.2493
  417loPI   C5A 6667  16.098  12.183   8.449  0.0743  0.0032 -0.2953
  417loPI   C6A 6668  16.158  12.298   8.026 -0.0553 -0.2007  0.1253
  417loPI   C1B 6669  16.732  12.839   9.557  0.0099  0.0985 -0.0826
  417loPI   C2B 6670  16.907  12.862   9.171  0.0245 -0.0672 -0.1520
  417loPI   C3B 6671  16.866  12.848   8.735 -0.0104  0.0651 -0.0302
  417loPI   C4B 6672  17.023  12.700   8.373  0.2823 -0.0497  0.0523
  418loPI    C1 6673  17.483  12.093  10.585  0.1765 -0.2094  0.0925
  418loPI    C2 6674  17.641  12.097  10.218 -0.1850 -0.2394 -0.0669
  418loPI    C3 6675  17.820  12.297  10.514 -0.1004  0.1137 -0.3487
  418loPI   PO4 6676  17.280  12.189  10.588  0.1814  0.0253  0.0787
  418loPI   GL1 6677  17.105  12.151  10.198  0.1315  0.1887 -0.3714
  418loPI   GL2 6678  16.927  12.462  10.229 -0.0556 -0.0459  0.0356
  418loPI   C1A 6679  17.038  12.334   9.752  0.1051  0.1521 -0.2283
  418loPI   C2A 6680  16.797  12.385   9.375 -0.1846 -0.3028  0.0488
  418loPI   C3A 6681  16.936  12.275   8.995  0.1998  0.4230  0.2073
  418loPI   C4A 6682  16.992  11.910   8.849  0.4219  0.0171 -0.1159
  418loPI   C5A 6683  16.849  11.800   8.409 -0.1445  0.0245  0.1497
  418loPI   C6A 6684  16.493  11.956   8.260  0.0658 -0.3050  0.0228
  418loPI   C1B 6685  17.157  12.807   9.897 -0.0267  0.1221  0.0865
  418loPI   C2B 6686  17.239  12.729   9.485  0.3322 -0.5041 -0.2079
  418loPI   C3B 6687  17.334  12.612   9.103 -0.4367 -0.2086  0.2685
  418loPI   C4B 6688  17.414  12.661   8.743 -0.1754  0.2524  0.0686
  419loPI    C1 6689  13.538   8.579  11.034 -0.0810 -0.0500 -0.0768
  419loPI    C2 6690  13.529   8.857  11.322  0.1884  0.0916 -0.2006
  419loPI    C3 6691  13.654   8.486  11.405  0.1876  0.1099 -0.1174
  419loPI   PO4 6692  13.670   8.672  10.859  0.0200 -0.0661  0.1635
  419loPI   GL1 6693  13.399   8.929  10.563  0.3060  0.1466 -0.1545
  419loPI   GL2 6694  13.134   9.088  10.305 -0.1823 -0.1857 -0.2373
  419loPI   C1A 6695  13.431   8.694  10.242 -0.0964  0.2264  0.4421
  419loPI   C2A 6696  13.500   8.676   9.717 -0.1058  0.2309 -0.1971
  419loPI   C3A 6697  13.527   8.656   9.246  0.1751 -0.0179  0.1805
  419loPI   C4A 6698  13.485   8.546   8.870 -0.0160 -0.0075  0.1866
  419loPI   C5A 6699  13.578   8.609   8.444  0.1061  0.1606 -0.0216
  419loPI   C6A 6700  13.647   8.834   8.115 -0.1030 -0.1175  0.0949
  419loPI   C1B 6701  12.798   9.146   9.996 -0.0222 -0.2453  0.0863
  419loPI   C2B 6702  12.706   9.161   9.617  0.3343  0.1312 -0.1483
  419loPI   C3B 6703  12.841   9.254   9.220 -0.3048 -0.0436  0.2458
  419loPI   C4B 6704  12.741   9.079   8.776 -0.1264  0.2494  0.3133
  420loPI    C1 6705  10.304  17.641  10.228  0.3833 -0.1142 -0.2709
  420loPI    C2 6706  10.406  17.548  10.603 -0.2320  0.0480 -0.0522
  420loPI    C3 6707  10.563  17.871  10.427  0.2869 -0.1934 -0.0512
  420loPI   PO4 6708  10.202  17.430  10.129  0.0938  0.0298 -0.1426
  420loPI   GL1 6709  10.456  17.291   9.749 -0.0186  0.2956  0.0372
  420loPI   GL2 6710  10.275  17.599   9.686  0.0194  0.2296 -0.0577
  420loPI   C1A 6711  10.271  17.209   9.309 -0.3038  0.1531 -0.2171
  420loPI   C2A 6712  10.318  17.341   8.814  0.1069 -0.2094  0.0981
  420loPI   C3A 6713  10.361  17.382   8.417  0.1420 -0.0083 -0.2196
  420loPI   C4A 6714  10.507  17.201   8.079 -0.1625 -0.1176  0.1763
  420loPI   C5A 6715  10.928  17.172   7.715  0.2296  0.0615  0.0712
  420loPI   C6A 6716  11.362  17.117   7.580  0.1142  0.0852 -0.3305
  420loPI   C1B 6717  10.234  17.729   9.311 -0.3032 -0.3104  0.0980
  420loPI   C2B 6718  10.279  17.889   8.901  0.2917 -0.1327  0.3288
  420loPI   C3B 6719  10.310  17.942   8.464 -0.0175 -0.0394 -0.1498
  420loPI   C4B 6720  10.321  18.032   8.031  0.4428  0.0041  0.1397
  421loPI    C1 6721   0.516  15.491  10.699 -0.4703  0.0526  0.0918
  421loPI    C2 6722   0.503  15.831  10.910 -0.0952  0.0314  0.1563
  421loPI    C3 6723   0.435  15.481  11.091 -0.0869  0.0396  0.1752
  421loPI   PO4 6724   0.535  15.675  10.450 -0.1797  0.0018 -0.0665
  421loPI   GL1 6725   0.492  15.556  10.144 -0.1968 -0.1180  0.0780
  421loPI   GL2 6726   0.185  15.720   9.981  0.0004  0.1510 -0.2765
  421loPI   C1A 6727   0.486  15.279   9.699 -0.0210  0.0975  0.0433
  421loPI   C2A 6728   0.560  15.254   9.253  0.1836 -0.0171  0.1980
  421loPI   C3A 6729   0.485  15.194   8.892  0.1353  0.2568  0.2412
  421loPI   C4A 6730   0.378  15.186   8.479 -0.0035  0.2397 -0.1428
  421loPI   C5A 6731   0.266  15.383   8.075  0.0715 -0.1663 -0.1878
  421loPI   C6A 6732   0.058  15.324   7.612 -0.1224 -0.0616  0.1819
  421loPI   C1B 6733   0.462  15.844   9.609  0.0603 -0.0397 -0.0706
  421loPI   C2B 6734   0.463  15.764   9.091  0.0944 -0.3633 -0.2120
  421loPI   C3B 6735   0.401  15.735   8.677 -0.0823 -0.1072 -0.1169
  421loPI   C4B 6736   0.331  15.842   8.234  0.0435 -0.0987  0.0062
  422loPI    C1 6737  12.216   6.050  10.989  0.0981 -0.1150 -0.2803
  422loPI    C2 6738  12.587   6.058  11.138 -0.0414 -0.1141  0.0762
  422loPI    C3 6739  12.340   6.368  11.198 -0.0884 -0.0974 -0.1939
  422loPI   PO4 6740  12.268   5.915  10.765 -0.2185  0.0690  0.3207
  422loPI   GL1 6741  12.319   6.027  10.345 -0.0616 -0.0139  0.4261
  422loPI   GL2 6742  12.028   6.103  10.318  0.3504  0.1111  0.0072
  422loPI   C1A 6743  12.684   5.999  10.043  0.1096  0.3179 -0.3066
  422loPI   C2A 6744  12.677   6.087   9.579  0.2367  0.0708 -0.1829
  422loPI   C3A 6745  12.720   5.950   9.172 -0.2881  0.1267  0.2124
  422loPI   C4A 6746  12.803   5.963   8.642 -0.2825  0.4333  0.0850
  422loPI   C5A 6747  12.990   6.067   8.218 -0.0105  0.0788 -0.0283
  422loPI   C6A 6748  12.947   6.135   7.801 -0.2995 -0.1479 -0.1290
  422loPI   C1B 6749  12.094   6.093   9.814  0.4024  0.1430 -0.0849
  422loPI   C2B 6750  12.203   6.114   9.358 -0.1927  0.1607  0.1032
  422loPI   C3B 6751  12.313   6.046   8.879  0.0512 -0.1978 -0.0105
  422loPI   C4B 6752  12.364   5.998   8.482 -0.0094 -0.1184  0.0273
  423loPI    C1 6753   4.922   8.744  10.491  0.2097  0.0313  0.0718
  423loPI    C2 6754   4.675   8.507  10.697 -0.0891  0.1938 -0.0915
  423loPI    C3 6755   4.832   8.832  10.870  0.0968  0.0341  0.0447
  423loPI   PO4 6756   5.104   8.560  10.292  0.1192  0.0137 -0.0208
  423loPI   GL1 6757   5.005   8.331   9.974 -0.1882 -0.0600 -0.1060
  423loPI   GL2 6758   4.886   8.395   9.753 -0.1197  0.0425  0.2883
  423loPI   C1A 6759   5.377   8.287   9.622 -0.2634  0.1853  0.1063
  423loPI   C2A 6760   5.663   8.389   9.190  0.0993 -0.2827 -0.1423
  423loPI   C3A 6761   5.677   8.281   8.783 -0.1959  0.2736 -0.4865
  423loPI   C4A 6762   5.746   8.184   8.278 -0.0587  0.1064 -0.1685
  423loPI   C5A 6763   5.952   8.185   8.025  0.1808 -0.1707 -0.1111
  423loPI   C6A 6764   6.418   8.056   7.971  0.4134  0.0048  0.1971
  423loPI   C1B 6765   4.781   8.835   9.519 -0.0456 -0.0689 -0.2730
  423loPI   C2B 6766   4.718   8.806   9.125 -0.1733 -0.0700  0.0381
  423loPI   C3B 6767   4.769   8.885   8.750  0.1407  0.1176  0.2812
  423loPI   C4B 6768   4.700   9.179   8.386  0.1967 -0.0998 -0.0384
  424loPI    C1 6769   4.553  17.858   9.686  0.0075  0.3125  0.0460
  424loPI    C2 6770   4.253  17.845   9.950 -0.1153  0.1070 -0.1009
  424loPI    C3 6771   4.603  18.011  10.052 -0.2220  0.1947  0.1277
  424loPI   PO4 6772   4.467  18.010   9.511 -0.0993  0.2776 -0.2351
  424loPI   GL1 6773   4.431  18.243   9.216  0.1859 -0.0557 -0.2164
  424loPI   GL2 6774   4.512  18.505   9.089 -0.2379 -0.0305  0.2540
  424loPI   C1A 6775   4.619  17.990   8.929 -0.0585  0.0405 -0.0108
  424loPI   C2A 6776   4.721  17.584   8.693  0.2782  0.1093 -0.0066
  424loPI   C3A 6777   4.575  17.278   8.371 -0.2538  0.0053  0.1013
  424loPI   C4A 6778   4.308  17.020   8.296  0.2738  0.0319  0.2769
  424loPI   C5A 6779   4.242  16.731   7.944  0.1022 -0.1380  0.2940
  424loPI   C6A 6780   3.798  16.727   7.790  0.0265 -0.1951  0.1512
  424loPI   C1B 6781   4.109  18.525   8.973 -0.1253 -0.0412  0.1426
  424loPI   C2B 6782   3.943  18.669   8.584 -0.0946 -0.0891  0.0039
  424loPI   C3B 6783   3.866  18.887   8.237 -0.2929 -0.2671  0.1371
  424loPI   C4B 6784   3.903  19.245   7.833 -0.2006  0.3020  0.1745
  425loPI    C1 6785   1.116   9.476  10.502 -0.0560 -0.0917  0.0827
  425loPI    C2 6786   1.316   9.459  10.848  0.0788  0.0501  0.0126
  425loPI    C3 6787   0.918   9.427  10.846  0.0630  0.2141  0.1984
  425loPI   PO4 6788   1.190   9.339  10.360  0.2200  0.1048  0.2300
  425loPI   GL1 6789   1.058   9.309   9.931  0.2932  0.0303  0.0438
  425loPI   GL2 6790   0.887   9.599  10.037 -0.0933  0.1304  0.2061
  425loPI   C1A 6791   0.806   9.330   9.527 -0.1026  0.1531 -0.0373
  425loPI   C2A 6792   0.744   9.594   9.085 -0.2482  0.0445 -0.0609
  425loPI   C3A 6793   0.819   9.771   8.646  0.1812 -0.1296  0.0567
  425loPI   C4A 6794   0.603   9.726   8.243  0.0574  0.0367  0.1993
  425loPI   C5A 6795   0.451   9.942   7.858  0.0992 -0.0612  0.1349
  425loPI   C6A 6796   0.096   9.965   7.569  0.1212  0.0651  0.0955
  425loPI   C1B 6797   1.048   9.778   9.512 -0.2902  0.0919  0.0878
  425loPI   C2B 6798   1.344   9.730   9.185  0.1513 -0.0379  0.1167
  425loPI   C3B 6799   1.321   9.571   8.782  0.2497 -0.1310  0.2178
  425loPI   C4B 6800   1.213   9.527   8.400  0.1817 -0.0733 -0.1168
  426loPI    C1 6801   9.430  11.817  10.655  0.1220  0.1908 -0.1044
  426loPI    C2 6802   9.597  11.715  11.003  0.1249  0.0418 -0.1486
  426loPI    C3 6803   9.213  11.825  10.990  0.1575  0.1654 -0.0807
  426loPI   PO4 6804   9.577  11.713  10.416 -0.0406  0.0518  0.3130
  426loPI   GL1 6805   9.472  11.625  10.023 -0.1976 -0.2428 -0.2381
  426loPI   GL2 6806   9.381  11.836   9.771  0.0291  0.0067 -0.1925
  426loPI   C1A 6807   9.499  11.309   9.701  0.0513  0.0251 -0.2185
  426loPI   C2A 6808   9.481  11.203   9.288 -0.1572 -0.0424  0.1840
  426loPI   C3A 6809   9.361  11.271   8.842  0.0925  0.2082 -0.0665
  426loPI   C4A 6810   9.377  11.315   8.417 -0.2817 -0.1316 -0.1770
  426loPI   C5A 6811   9.361  11.272   7.913 -0.0274  0.1408 -0.0339
  426loPI   C6A 6812   9.180  11.488   7.532  0.1179  0.1348  0.1454
  426loPI   C1B 6813   9.272  11.689   9.422 -0.0366  0.2904  0.0179
  426loPI   C2B 6814   9.272  11.831   9.061  0.2026 -0.1589 -0.3517
  426loPI   C3B 6815   9.195  11.765   8.618  0.1409  0.1166 -0.0444
  426loPI   C4B 6816   9.196  11.753   8.219 -0.3045  0.1569 -0.3191
  427loPI    C1 6817   9.312  13.105  10.312 -0.0497 -0.0276 -0.0676
  427loPI    C2 6818   9.587  13.215  10.044  0.0867 -0.1159  0.0350
  427loPI    C3 6819   9.438  13.485  10.299  0.1036 -0.0755  0.0023
  427loPI   PO4 6820   9.126  12.930  10.165  0.1396 -0.0136  0.1284
  427loPI   GL1 6821   9.219  12.735   9.751 -0.1756 -0.2974  0.0144
  427loPI   GL2 6822   9.265  13.092   9.700  0.3319 -0.0365  0.0120
  427loPI   C1A 6823   9.314  12.763   9.288  0.0739 -0.0021  0.3961
  427loPI   C2A 6824   9.474  12.708   8.879  0.1499  0.0439 -0.0156
  427loPI   C3A 6825   9.434  12.723   8.488  0.3346  0.1360  0.1830
  427loPI   C4A 6826   9.221  12.630   8.184  0.0449  0.1324 -0.2842
  427loPI   C5A 6827   9.114  12.439   7.864 -0.1868  0.4078 -0.0841
  427loPI   C6A 6828   9.023  11.963   7.789 -0.1416  0.0285  0.1339
  427loPI   C1B 6829   9.377  13.289   9.242  0.0608  0.2597 -0.3047
  427loPI   C2B 6830   9.343  13.236   8.817 -0.0976  0.1383 -0.0418
  427loPI   C3B 6831   9.198  13.209   8.352 -0.0217  0.2729  0.0875
  427loPI   C4B 6832   9.082  13.310   7.929  0.0629  0.3767  0.2323
  428loPI    C1 6833   1.682  17.188  10.181  0.0479  0.0844 -0.1391
  428loPI    C2 6834   1.768  17.429  10.488  0.0895 -0.1676  0.0500
  428loPI    C3 6835   1.838  17.550  10.113  0.0002  0.1583  0.1354
  428loPI   PO4 6836   1.879  16.909  10.242 -0.2992 -0.0254 -0.2859
  428loPI   GL1 6837   2.100  16.846   9.864 -0.1182  0.0517  0.2876
  428loPI   GL2 6838   1.949  17.122   9.755  0.0357  0.1056 -0.0049
  428loPI   C1A 6839   2.147  16.620   9.493  0.0200  0.1650  0.3059
  428loPI   C2A 6840   2.170  16.572   9.093  0.1771  0.4351  0.1111
  428loPI   C3A 6841   2.012  16.498   8.639 -0.0528  0.1267  0.2555
  428loPI   C4A 6842   1.961  16.406   8.220  0.1840  0.2490 -0.1430
  428loPI   C5A 6843   1.997  16.134   7.912  0.0721  0.0680  0.1035
  428loPI   C6A 6844   2.235  16.010   7.609 -0.0036  0.1706  0.0069
  428loPI   C1B 6845   2.074  17.149   9.392  0.0374 -0.1654 -0.1110
  428loPI   C2B 6846   1.910  17.118   8.928  0.1996  0.1162 -0.1207
  428loPI   C3B 6847   1.945  17.075   8.472 -0.0076 -0.0936 -0.0095
  428loPI   C4B 6848   1.802  16.900   8.100  0.0484  0.1665  0.1152
  429loPI    C1 6849   3.371  13.261  10.519 -0.0480  0.0606 -0.0357
  429loPI    C2 6850   3.698  13.447  10.656  0.0682 -0.2182  0.0726
  429loPI    C3 6851   3.483  13.215  10.900  0.1030 -0.4763 -0.1377
  429loPI   PO4 6852   3.329  13.270  10.304 -0.0552 -0.1403 -0.2425
  429loPI   GL1 6853   3.192  13.234   9.883  0.0345  0.2754  0.0386
  429loPI   GL2 6854   3.064  13.459   9.883 -0.0419 -0.0413  0.1445
  429loPI   C1A 6855   3.103  12.865   9.618 -0.1139  0.1710 -0.0273
  429loPI   C2A 6856   3.125  12.729   9.159 -0.1418  0.4440 -0.0844
  429loPI   C3A 6857   3.216  12.675   8.728 -0.0532  0.1090 -0.2920
  429loPI   C4A 6858   3.110  12.770   8.290  0.0144  0.0168 -0.0830
  429loPI   C5A 6859   3.239  12.900   7.875  0.1366 -0.1031  0.3924
  429loPI   C6A 6860   3.204  12.988   7.404  0.0448  0.0801  0.1045
  429loPI   C1B 6861   3.043  13.332   9.434 -0.3043 -0.1227  0.1374
  429loPI   C2B 6862   3.018  13.222   9.108 -0.2623  0.2259  0.1650
  429loPI   C3B 6863   3.059  13.147   8.691  0.0817  0.0253  0.0402
  429loPI   C4B 6864   3.007  13.276   8.299 -0.0004 -0.0754 -0.1285
  430loPI    C1 6865  13.554   2.297  10.735  0.0782 -0.1752  0.1777
  430loPI    C2 6866  13.444   2.013  10.995 -0.0014 -0.2724  0.0393
  430loPI    C3 6867  13.832   2.086  10.930  0.0187 -0.1865  0.2504
  430loPI   PO4 6868  13.417   2.240  10.550 -0.1999 -0.2917 -0.1226
  430loPI   GL1 6869  13.503   2.275  10.174 -0.3543  0.3616 -0.1563
  430loPI   GL2 6870  13.157   2.123  10.104  0.4694  0.2004 -0.2221
  430loPI   C1A 6871  13.455   2.305   9.745 -0.1233  0.3911  0.1078
  430loPI   C2A 6872  13.499   2.340   9.346 -0.1228  0.2345 -0.1401
  430loPI   C3A 6873  13.538   2.363   8.857 -0.2595  0.1081 -0.0699
  430loPI   C4A 6874  13.474   2.247   8.433 -0.4671  0.2236 -0.0659
  430loPI   C5A 6875  13.644   2.194   8.000  0.0283  0.0201  0.0918
  430loPI   C6A 6876  13.632   2.273   7.566  0.1838 -0.0651  0.1099
  430loPI   C1B 6877  13.288   1.876   9.712  0.1273  0.1898  0.1700
  430loPI   C2B 6878  13.220   1.934   9.268 -0.0718  0.3855  0.1430
  430loPI   C3B 6879  13.212   1.933   8.836 -0.2274  0.2919 -0.2989
  430loPI   C4B 6880  13.110   1.707   8.622  0.0979 -0.0544 -0.3780
  431loPI    C1 6881   6.915   8.382  10.663  0.0481 -0.1488  0.0064
  431loPI    C2 6882   7.133   8.669  10.837  0.2661 -0.2867 -0.0358
  431loPI    C3 6883   7.087   8.316  11.018 -0.1134 -0.1825  0.0792
  431loPI   PO4 6884   7.074   8.308  10.424 -0.0494  0.1256 -0.0659
  431loPI   GL1 6885   6.977   8.456  10.014  0.1048  0.2507  0.1733
  431loPI   GL2 6886   7.248   8.282   9.971 -0.0877  0.0246 -0.4685
  431loPI   C1A 6887   7.181   8.422   9.498  0.2123 -0.0353 -0.0973
  431loPI   C2A 6888   7.110   8.350   9.112 -0.1370 -0.0059  0.0707
  431loPI   C3A 6889   7.137   8.316   8.646 -0.1277 -0.4165 -0.1081
  431loPI   C4A 6890   7.435   8.316   8.309  0.2267 -0.1269 -0.0346
  431loPI   C5A 6891   7.592   8.275   7.902  0.0339 -0.3143  0.1361
  431loPI   C6A 6892   7.716   8.024   7.676  0.1762  0.0776 -0.0918
  431loPI   C1B 6893   7.317   7.922   9.780 -0.2848  0.1028 -0.0468
  431loPI   C2B 6894   7.502   7.678   9.415 -0.1473  0.0950 -0.1394
  431loPI   C3B 6895   7.447   7.342   9.120  0.0605 -0.1114 -0.1617
  431loPI   C4B 6896   7.258   7.416   8.820 -0.0713 -0.2742 -0.3475
  432loPI    C1 6897   1.335  18.826  10.716  0.1684 -0.1537 -0.1200
  432loPI    C2 6898   1.687  18.654  10.795  0.2844  0.2000  0.1601
  432loPI    C3 6899   1.372  18.584  11.033  0.3158  0.3236  0.2390
  432loPI   PO4 6900   1.366  18.790  10.419  0.2482 -0.1363  0.1279
  432loPI   GL1 6901   1.555  18.729  10.044  0.1237  0.0087  0.0057
  432loPI   GL2 6902   1.710  18.513  10.139 -0.0207  0.2205  0.0624
  432loPI   C1A 6903   1.658  18.992   9.707  0.1350  0.0714  0.1382
  432loPI   C2A 6904   1.694  19.301   9.413  0.0409 -0.1379  0.0880
  432loPI   C3A 6905   1.647  19.436   8.870  0.0086 -0.1698  0.0325
  432loPI   C4A 6906   1.696  19.464   8.451 -0.4759 -0.2154 -0.0330
  432loPI   C5A 6907   1.818  19.336   8.018  0.0054 -0.0454  0.0004
  432loPI   C6A 6908   1.771  19.374   7.647 -0.1992  0.1668  0.0740
  432loPI   C1B 6909   1.885  18.530   9.688  0.2687 -0.0592  0.3327
  432loPI   C2B 6910   1.836  18.781   9.327 -0.1352 -0.0568 -0.0748
  432loPI   C3B 6911   1.995  19.078   8.997 -0.4047  0.0681 -0.0987
  432loPI   C4B 6912   2.111  19.161   8.513  0.2300  0.0167  0.0043
  433loPI    C1 6913   8.614  10.074  10.447  0.0369 -0.3236  0.1313
  433loPI    C2 6914   8.703  10.250  10.795  0.1052 -0.2902  0.0970
  433loPI    C3 6915   8.623  10.473  10.473 -0.0685 -0.3200  0.1188
  433loPI   PO4 6916   8.767   9.889  10.399  0.0689  0.0390  0.0049
  433loPI   GL1 6917   8.853   9.709  10.013 -0.1235 -0.0907  0.0612
  433loPI   GL2 6918   8.635   9.484  10.058 -0.0239 -0.0377  0.3147
  433loPI   C1A 6919   9.016   9.779   9.599  0.1995 -0.0789  0.0703
  433loPI   C2A 6920   8.844   9.941   9.203 -0.2823 -0.0250 -0.0873
  433loPI   C3A 6921   8.900  10.019   8.808  0.0645 -0.3480  0.1065
  433loPI   C4A 6922   8.631  10.078   8.497  0.1737 -0.0993  0.0928
  433loPI   C5A 6923   8.504  10.280   7.982 -0.0160 -0.2371  0.3292
  433loPI   C6A 6924   8.133  10.369   7.708  0.0152 -0.1161  0.2179
  433loPI   C1B 6925   8.705   9.366   9.610 -0.1647  0.3656  0.1261
  433loPI   C2B 6926   8.569   9.547   9.243 -0.1482 -0.2587 -0.1360
  433loPI   C3B 6927   8.616   9.623   8.804  0.2557 -0.2141  0.0347
  433loPI   C4B 6928   8.163   9.857   8.577 -0.0048  0.3182 -0.0136
  434loPI    C1 6929   9.139   0.676  10.223 -0.1069  0.0199 -0.2123
  434loPI    C2 6930   9.203   0.665  10.617 -0.0525  0.0393 -0.2205
  434loPI    C3 6931   8.954   0.402  10.448  0.0101 -0.0406 -0.1890
  434loPI   PO4 6932   9.420   0.778  10.110 -0.2917  0.0397 -0.3707
  434loPI   GL1 6933   9.801   0.735   9.838 -0.0010  0.1933 -0.0351
  434loPI   GL2 6934   9.592   0.914   9.614 -0.0481  0.1689  0.0348
  434loPI   C1A 6935   9.827   0.424   9.583 -0.0108  0.2162  0.1254
  434loPI   C2A 6936  10.052   0.509   9.168 -0.1387 -0.2341  0.0777
  434loPI   C3A 6937  10.051   0.442   8.831 -0.0428 -0.3621  0.4665
  434loPI   C4A 6938  10.184   0.413   8.295 -0.0990 -0.3415  0.0268
  434loPI   C5A 6939  10.095   0.265   7.890  0.1222 -0.1220 -0.2933
  434loPI   C6A 6940   9.753   0.424   7.608 -0.3095 -0.0863  0.3357
  434loPI   C1B 6941   9.384   1.030   9.274 -0.1867  0.2540 -0.0680
  434loPI   C2B 6942   9.302   1.220   8.949 -0.1744  0.2326  0.2267
  434loPI   C3B 6943   9.414   1.138   8.441  0.0558  0.2489  0.0154
  434loPI   C4B 6944   9.483   1.130   7.997  0.2259  0.0348 -0.2084
  435loPI    C1 6945   3.960  13.108  10.267 -0.1746  0.0702  0.0137
  435loPI    C2 6946   4.035  13.105  10.660 -0.0604 -0.0252 -0.0080
  435loPI    C3 6947   3.779  12.841  10.503  0.0125 -0.0890 -0.0202
  435loPI   PO4 6948   3.858  13.319  10.235  0.3753  0.0252  0.2530
  435loPI   GL1 6949   3.719  13.429   9.941  0.0310  0.2951  0.1099
  435loPI   GL2 6950   4.012  13.546   9.728  0.1848  0.1212  0.2164
  435loPI   C1A 6951   3.522  13.446   9.552  0.0221  0.0956  0.0437
  435loPI   C2A 6952   3.449  13.567   9.116 -0.1882  0.0259 -0.2021
  435loPI   C3A 6953   3.479  13.662   8.719 -0.2995  0.0810  0.2880
  435loPI   C4A 6954   3.440  13.542   8.272 -0.0431  0.2805  0.0222
  435loPI   C5A 6955   3.534  13.299   7.863 -0.1564 -0.3215 -0.4753
  435loPI   C6A 6956   3.640  12.843   7.646  0.0682 -0.3263  0.1113
  435loPI   C1B 6957   4.085  13.396   9.322 -0.3781 -0.0042  0.1038
  435loPI   C2B 6958   3.893  13.383   8.986 -0.0520 -0.2156  0.2487
  435loPI   C3B 6959   3.869  13.401   8.533  0.1694 -0.0254  0.1802
  435loPI   C4B 6960   3.996  13.548   8.210  0.0606  0.0847 -0.0559
  436loPI    C1 6961  17.893  16.306  10.406  0.0484 -0.0109  0.0492
  436loPI    C2 6962  17.689  16.055  10.642  0.1190 -0.1267 -0.0115
  436loPI    C3 6963  17.740  16.436  10.752  0.0680 -0.1552  0.1132
  436loPI   PO4 6964  17.789  16.259  10.130 -0.0499  0.2070  0.2206
  436loPI   GL1 6965  17.656  16.132   9.694  0.0181 -0.4226 -0.2926
  436loPI   GL2 6966  17.358  16.101   9.506 -0.1524 -0.1745  0.1284
  436loPI   C1A 6967  17.733  16.384   9.322  0.1663 -0.3434  0.2412
  436loPI   C2A 6968  17.697  16.404   8.974  0.2558 -0.0892 -0.0465
  436loPI   C3A 6969  17.598  16.371   8.591  0.1227  0.0463 -0.0206
  436loPI   C4A 6970  17.420  16.442   8.247 -0.3625  0.0636 -0.1561
  436loPI   C5A 6971  17.474  16.325   7.815  0.0370  0.0649 -0.3669
  436loPI   C6A 6972  17.533  16.257   7.343 -0.2225 -0.0034  0.0730
  436loPI   C1B 6973  17.309  16.071   9.003  0.0437 -0.0109 -0.1723
  436loPI   C2B 6974  17.157  15.969   8.706  0.2953 -0.1764  0.1722
  436loPI   C3B 6975  17.254  15.874   8.242  0.1950  0.4186 -0.0237
  436loPI   C4B 6976  17.487  15.732   7.798 -0.1908  0.0748 -0.0486
  437loPI    C1 6977   4.660  13.771  10.265  0.1145 -0.0263 -0.0782
  437loPI    C2 6978   4.768  13.417  10.416  0.0024 -0.0024  0.0602
  437loPI    C3 6979   4.698  13.725  10.661  0.1015  0.1164 -0.0597
  437loPI   PO4 6980   4.797  13.760  10.028 -0.1184 -0.0322 -0.1678
  437loPI   GL1 6981   5.027  13.571   9.649  0.0962  0.0052  0.0745
  437loPI   GL2 6982   5.110  13.925   9.610  0.0894 -0.2386 -0.1362
  437loPI   C1A 6983   4.933  13.576   9.273 -0.0404  0.1113  0.1337
  437loPI   C2A 6984   4.854  13.588   8.893 -0.0046 -0.2203  0.1973
  437loPI   C3A 6985   4.846  13.633   8.542 -0.0530  0.5722 -0.0137
  437loPI   C4A 6986   4.866  13.501   8.174  0.4137 -0.1468 -0.0276
  437loPI   C5A 6987   4.785  13.486   7.751 -0.1801  0.1618 -0.1756
  437loPI   C6A 6988   4.730  13.185   7.448 -0.1269  0.0448  0.0213
  437loPI   C1B 6989   5.306  13.898   9.143 -0.1139 -0.1238 -0.0164
  437loPI   C2B 6990   5.251  13.981   8.708  0.1685  0.0611  0.2466
  437loPI   C3B 6991   5.328  13.929   8.203  0.0620  0.1038 -0.0788
  437loPI   C4B 6992   5.610  13.996   7.802 -0.1260 -0.3380  0.0359
  438loPI    C1 6993   5.391   4.145  10.373  0.1775  0.0337  0.0307
  438loPI    C2 6994   5.484   4.000  10.012  0.2633  0.1434  0.0081
  438loPI    C3 6995   5.283   3.773  10.273  0.1052  0.1012 -0.1478
  438loPI   PO4 6996   5.390   4.479  10.219  0.1185  0.0658  0.0040
  438loPI   GL1 6997   5.682   4.616   9.944  0.3956  0.0503 -0.0235
  438loPI   GL2 6998   5.453   4.491   9.683 -0.1199  0.0007  0.2543
  438loPI   C1A 6999   5.906   4.691   9.524  0.1964  0.1316 -0.0688
  438loPI   C2A 7000   5.925   4.742   9.084  0.5069 -0.1479  0.0859
  438loPI   C3A 7001   5.961   4.764   8.649 -0.2396  0.1589  0.2681
  438loPI   C4A 7002   5.990   4.905   8.226 -0.2414 -0.0767  0.0111
  438loPI   C5A 7003   5.871   5.104   7.899  0.0931 -0.4678  0.0627
  438loPI   C6A 7004   5.768   5.112   7.491 -0.0208 -0.1241  0.0247
  438loPI   C1B 7005   5.529   4.514   9.247  0.0911 -0.1508  0.0036
  438loPI   C2B 7006   5.402   4.594   8.852  0.3114  0.1341  0.0187
  438loPI   C3B 7007   5.485   4.596   8.437  0.0452 -0.4413  0.1697
  438loPI   C4B 7008   5.633   4.628   8.036  0.1670 -0.0020  0.3227
  439loPI    C1 7009   1.386   1.333  10.142 -0.0818  0.4201  0.1995
  439loPI    C2 7010   1.238   1.269  10.508 -0.0778 -0.0178  0.1295
  439loPI    C3 7011   1.006   1.217  10.186  0.0007  0.0823  0.0560
  439loPI   PO4 7012   1.413   1.573  10.063  0.0830  0.1220  0.1194
  439loPI   GL1 7013   1.722   1.747   9.703  0.1165 -0.2120 -0.2880
  439loPI   GL2 7014   1.654   1.424   9.600 -0.0253  0.0918  0.0878
  439loPI   C1A 7015   1.811   1.803   9.261  0.0469  0.3052 -0.2753
  439loPI   C2A 7016   1.661   1.688   8.851  0.1113  0.0276 -0.4476
  439loPI   C3A 7017   1.401   1.513   8.624  0.0594 -0.0587  0.0219
  439loPI   C4A 7018   1.353   1.484   8.257 -0.4283 -0.0217 -0.3684
  439loPI   C5A 7019   1.439   1.503   7.850  0.0709 -0.0218 -0.0742
  439loPI   C6A 7020   1.146   1.327   7.522 -0.2007 -0.2610  0.4430
  439loPI   C1B 7021   1.456   1.377   9.246 -0.0430 -0.1118 -0.1027
  439loPI   C2B 7022   1.596   1.173   8.958  0.1678 -0.2890  0.0647
  439loPI   C3B 7023   1.812   1.229   8.534  0.1985  0.0423  0.0068
  439loPI   C4B 7024   1.813   1.679   8.361 -0.2075  0.2060 -0.1100
  440loPI    C1 7025  13.556   2.803  10.855  0.0799 -0.2011  0.0686
  440loPI    C2 7026  13.480   3.065  11.148 -0.0998  0.0814 -0.2231
  440loPI    C3 7027  13.806   3.109  10.920 -0.0860  0.0001 -0.2194
  440loPI   PO4 7028  13.345   2.788  10.757 -0.0516 -0.0860 -0.2104
  440loPI   GL1 7029  13.329   2.717  10.371  0.1615  0.1193 -0.1290
  440loPI   GL2 7030  13.262   3.073  10.295  0.0334  0.2219 -0.0214
  440loPI   C1A 7031  13.607   2.718  10.002  0.3422  0.1437 -0.1200
  440loPI   C2A 7032  13.757   2.708   9.577  0.1826  0.0121  0.1113
  440loPI   C3A 7033  13.829   2.759   9.157  0.1298  0.1380 -0.0333
  440loPI   C4A 7034  13.696   2.850   8.792  0.0355 -0.3752  0.0626
  440loPI   C5A 7035  13.812   2.623   8.436  0.0950  0.0375 -0.0023
  440loPI   C6A 7036  13.921   2.604   8.018  0.2742 -0.0513  0.0615
  440loPI   C1B 7037  13.244   3.289   9.955 -0.2070 -0.1623  0.3488
  440loPI   C2B 7038  12.989   3.212   9.531  0.3620 -0.1046 -0.0725
  440loPI   C3B 7039  13.047   3.314   9.080  0.4313 -0.1781 -0.2115
  440loPI   C4B 7040  13.035   3.325   8.679 -0.1680 -0.1339  0.1016
  441loPI    C1 7041   3.273   6.681  10.626  0.2584 -0.1706  0.1450
  441loPI    C2 7042   3.501   7.007  10.584 -0.2825  0.1518 -0.4424
  441loPI    C3 7043   3.183   7.015  10.827 -0.0863 -0.0669 -0.1724
  441loPI   PO4 7044   3.190   6.597  10.421 -0.4994 -0.0955 -0.2719
  441loPI   GL1 7045   3.230   6.573   9.982  0.1415 -0.0182  0.0880
  441loPI   GL2 7046   3.327   6.325  10.013 -0.1506 -0.1894 -0.0334
  441loPI   C1A 7047   2.930   6.560   9.599  0.3163  0.0376  0.3165
  441loPI   C2A 7048   2.986   6.565   9.182  0.3442  0.0583  0.2347
  441loPI   C3A 7049   2.968   6.478   8.704 -0.0945  0.0820 -0.2535
  441loPI   C4A 7050   2.840   6.737   8.251  0.0682 -0.1616 -0.0195
  441loPI   C5A 7051   2.503   6.896   8.083  0.0682  0.0247  0.2536
  441loPI   C6A 7052   2.220   6.950   7.781 -0.1528  0.2805 -0.2210
  441loPI   C1B 7053   3.460   6.237   9.600 -0.1608 -0.0520  0.1930
  441loPI   C2B 7054   3.394   6.292   9.180 -0.1176 -0.0127  0.2358
  441loPI   C3B 7055   3.434   6.201   8.842  0.1366  0.1179  0.2186
  441loPI   C4B 7056   3.471   6.115   8.433  0.0311 -0.1074 -0.3861
  442loPI    C1 7057  13.016   5.749  11.196 -0.4316 -0.0016 -0.0651
  442loPI    C2 7058  13.132   5.632  11.561 -0.0553 -0.0052 -0.1812
  442loPI    C3 7059  12.756   5.754  11.500 -0.0958  0.0884  0.2278
  442loPI   PO4 7060  13.276   5.708  11.048  0.1078 -0.0534 -0.1868
  442loPI   GL1 7061  13.239   5.648  10.615  0.0904 -0.0120  0.0932
  442loPI   GL2 7062  13.242   5.883  10.453 -0.1311  0.3201 -0.0947
  442loPI   C1A 7063  13.274   5.376  10.336 -0.2627 -0.2393 -0.0828
  442loPI   C2A 7064  13.234   5.064  10.095 -0.1022 -0.1896  0.2215
  442loPI   C3A 7065  13.200   5.090   9.613 -0.0441  0.3791 -0.0162
  442loPI   C4A 7066  13.144   5.062   9.152 -0.1077 -0.2995  0.1066
  442loPI   C5A 7067  13.201   5.082   8.644  0.3382  0.0794 -0.1046
  442loPI   C6A 7068  13.191   5.115   8.233  0.1513 -0.3049  0.1732
  442loPI   C1B 7069  13.172   5.873   9.990  0.0263  0.0237 -0.1361
  442loPI   C2B 7070  13.289   6.033   9.643 -0.0816 -0.2655 -0.1262
  442loPI   C3B 7071  13.298   5.986   9.292 -0.2449 -0.1405  0.1175
  442loPI   C4B 7072  13.352   5.887   8.952  0.1716  0.1761  0.0523
  443loPI    C1 7073   5.434  18.244   9.643  0.0775 -0.0667  0.2538
  443loPI    C2 7074   5.582  18.593   9.513  0.0651 -0.0727  0.2235
  443loPI    C3 7075   5.591  18.505   9.903 -0.2403  0.1084  0.2743
  443loPI   PO4 7076   5.540  18.082   9.589  0.2466  0.1093  0.3052
  443loPI   GL1 7077   5.837  18.121   9.300  0.0357  0.0393  0.3676
  443loPI   GL2 7078   6.015  18.346   9.266 -0.0221 -0.2443 -0.1800
  443loPI   C1A 7079   5.826  17.996   8.907 -0.1139  0.2536  0.0743
  443loPI   C2A 7080   5.625  17.785   8.584 -0.0471  0.0451  0.1204
  443loPI   C3A 7081   5.239  18.025   8.399 -0.1095 -0.0341 -0.4031
  443loPI   C4A 7082   4.872  17.852   8.212 -0.0306  0.0765  0.0305
  443loPI   C5A 7083   4.621  17.592   7.921  0.5260  0.0685 -0.1897
  443loPI   C6A 7084   4.237  17.417   7.850 -0.1786  0.1338  0.2311
  443loPI   C1B 7085   5.616  18.470   8.957 -0.0565  0.0608  0.2746
  443loPI   C2B 7086   5.505  18.421   8.554 -0.0415  0.1373 -0.1330
  443loPI   C3B 7087   5.250  18.554   8.282 -0.1331 -0.2215  0.0112
  443loPI   C4B 7088   5.111  18.770   7.870  0.0742 -0.3853 -0.1667
  444loPI    C1 7089   7.745   1.206  10.208 -0.1069  0.0235  0.0826
  444loPI    C2 7090   7.883   1.435  10.506 -0.2826  0.1159  0.0943
  444loPI    C3 7091   7.607   1.155  10.580 -0.1438 -0.0311  0.0615
  444loPI   PO4 7092   7.676   1.365   9.994 -0.0330  0.4351 -0.2562
  444loPI   GL1 7093   7.769   1.298   9.574  0.0317  0.0916 -0.1309
  444loPI   GL2 7094   7.926   1.568   9.564  0.0596  0.1331 -0.2131
  444loPI   C1A 7095   7.776   1.329   9.132  0.0478  0.2533  0.1575
  444loPI   C2A 7096   7.592   0.977   8.826 -0.1618 -0.5572  0.0359
  444loPI   C3A 7097   7.260   0.976   8.510  0.0399 -0.3010  0.1367
  444loPI   C4A 7098   6.841   1.288   8.480 -0.1375  0.1103  0.0089
  444loPI   C5A 7099   6.466   1.400   8.218  0.0335 -0.1282 -0.3130
  444loPI   C6A 7100   6.277   1.723   8.048 -0.0790  0.0421 -0.1332
  444loPI   C1B 7101   8.145   1.731   9.298 -0.2295  0.2048  0.1691
  444loPI   C2B 7102   8.345   1.903   8.918  0.0868 -0.1683  0.2233
  444loPI   C3B 7103   8.427   1.731   8.494  0.1784  0.0281 -0.6408
  444loPI   C4B 7104   8.516   1.410   8.101 -0.0748 -0.1956 -0.1853
  445loPI    C1 7105  12.315   3.266  10.511 -0.2297  0.1387 -0.0363
  445loPI    C2 7106  12.418   3.601  10.704  0.0053  0.0913 -0.0765
  445loPI    C3 7107  12.468   3.246  10.880  0.1095  0.0551 -0.1782
  445loPI   PO4 7108  12.390   3.265  10.329 -0.3566 -0.2229 -0.1493
  445loPI   GL1 7109  12.409   3.241  10.016  0.0146 -0.0677  0.2044
  445loPI   GL2 7110  12.728   3.427   9.969  0.0825 -0.0562  0.0035
  445loPI   C1A 7111  12.510   3.303   9.511 -0.0299  0.0845  0.0718
  445loPI   C2A 7112  12.523   3.312   9.034  0.1625 -0.0945 -0.3133
  445loPI   C3A 7113  12.544   3.372   8.610 -0.0920  0.4762 -0.0982
  445loPI   C4A 7114  12.510   3.484   8.183 -0.1295  0.0002  0.1612
  445loPI   C5A 7115  12.518   3.935   7.939  0.3657 -0.1371 -0.0681
  445loPI   C6A 7116  12.611   4.298   8.153 -0.0912 -0.2380  0.0735
  445loPI   C1B 7117  12.826   3.743   9.788  0.1313 -0.1134 -0.0449
  445loPI   C2B 7118  12.757   3.715   9.339  0.2230  0.0136 -0.1409
  445loPI   C3B 7119  12.855   3.737   8.843 -0.2183 -0.0085  0.3677
  445loPI   C4B 7120  12.867   3.781   8.461 -0.1157 -0.2263  0.1780
  446loPI    C1 7121   2.280   6.102  10.309  0.0315  0.0678  0.0191
  446loPI    C2 7122   2.456   6.406  10.500 -0.0304  0.0789  0.0590
  446loPI    C3 7123   2.071   6.321  10.570 -0.0478  0.0697 -0.0452
  446loPI   PO4 7124   2.289   6.171  10.092  0.1170  0.1608  0.3167
  446loPI   GL1 7125   2.482   6.353   9.835  0.1631  0.0115  0.4909
  446loPI   GL2 7126   2.222   6.519   9.668  0.2519 -0.1074  0.1788
  446loPI   C1A 7127   2.510   6.233   9.418 -0.1208  0.0737 -0.2970
  446loPI   C2A 7128   2.508   6.432   9.019 -0.3008 -0.2608 -0.0752
  446loPI   C3A 7129   2.543   6.193   8.626 -0.1026  0.4158  0.0241
  446loPI   C4A 7130   2.670   6.282   8.200 -0.2201 -0.3334  0.0683
  446loPI   C5A 7131   2.865   6.048   7.918 -0.0710  0.1958 -0.1841
  446loPI   C6A 7132   3.015   5.665   7.685 -0.1144  0.0656 -0.0040
  446loPI   C1B 7133   1.927   6.594   9.367 -0.3927 -0.0462 -0.1692
  446loPI   C2B 7134   1.739   6.816   9.233  0.0734  0.0731 -0.1697
  446loPI   C3B 7135   1.561   6.695   8.823  0.0836  0.0874 -0.1070
  446loPI   C4B 7136   1.720   6.424   8.514  0.0371  0.0422  0.1190
  447loPI    C1 7137   6.132   1.106  10.081 -0.1005  0.1864  0.0507
  447loPI    C2 7138   6.083   0.708  10.083  0.0726  0.1640  0.3071
  447loPI    C3 7139   6.449   0.865  10.042 -0.0169  0.3027  0.0080
  447loPI   PO4 7140   5.994   1.227   9.918  0.1651 -0.2236  0.2392
  447loPI   GL1 7141   5.800   1.249   9.444  0.0588 -0.1711 -0.2353
  447loPI   GL2 7142   5.625   0.898   9.408  0.1632  0.4101 -0.6058
  447loPI   C1A 7143   6.016   1.053   9.110  0.0763 -0.0010 -0.1936
  447loPI   C2A 7144   5.934   1.192   8.728 -0.1893 -0.0605 -0.0301
  447loPI   C3A 7145   5.919   1.094   8.307 -0.2040  0.2718  0.0428
  447loPI   C4A 7146   5.902   1.308   7.992 -0.0214 -0.1095 -0.1074
  447loPI   C5A 7147   6.053   1.199   7.538  0.2404 -0.0958 -0.1177
  447loPI   C6A 7148   5.770   0.912   7.364 -0.0812  0.0572 -0.2001
  447loPI   C1B 7149   5.460   1.105   9.085 -0.0073 -0.0561  0.1179
  447loPI   C2B 7150   5.455   1.213   8.567 -0.2646  0.0681 -0.0751
  447loPI   C3B 7151   5.448   1.390   8.178 -0.0822 -0.1280 -0.1150
  447loPI   C4B 7152   5.410   1.728   7.872  0.2917  0.1557 -0.1213
  448loPI    C1 7153   2.674  14.657  10.589 -0.0358 -0.0370 -0.0727
  448loPI    C2 7154   2.646  14.335  10.825  0.0417  0.0234  0.0194
  448loPI    C3 7155   2.656  14.702  10.986  0.0412  0.0678 -0.0806
  448loPI   PO4 7156   2.504  14.623  10.436  0.0300  0.1417  0.1573
  448loPI   GL1 7157   2.374  14.689  10.011  0.0042 -0.4428  0.2716
  448loPI   GL2 7158   2.616  14.647   9.789  0.1206 -0.1594 -0.2181
  448loPI   C1A 7159   2.050  14.743   9.653  0.0801 -0.3364  0.3156
  448loPI   C2A 7160   1.874  14.640   9.257 -0.0561 -0.3137 -0.2524
  448loPI   C3A 7161   1.589  14.407   9.065  0.0681  0.1190 -0.1400
  448loPI   C4A 7162   1.406  14.345   8.649 -0.0703 -0.2607  0.1284
  448loPI   C5A 7163   1.565  14.226   8.242 -0.0760  0.0596  0.0403
  448loPI   C6A 7164   1.739  13.877   7.973  0.1882 -0.1097  0.0564
  448loPI   C1B 7165   2.429  14.546   9.393  0.0940  0.0441  0.0270
  448loPI   C2B 7166   2.339  14.489   8.935 -0.0747  0.1013  0.0683
  448loPI   C3B 7167   2.438  14.398   8.501  0.0812 -0.1039 -0.1007
  448loPI   C4B 7168   2.252  14.613   8.188  0.0184  0.0662  0.2898
  449loPI    C1 7169  13.518  11.396  10.571 -0.1333  0.0379 -0.0534
  449loPI    C2 7170  13.663  11.261  10.919  0.0587  0.2219 -0.0601
  449loPI    C3 7171  13.330  11.482  10.913 -0.2530 -0.2341 -0.0481
  449loPI   PO4 7172  13.704  11.623  10.394 -0.1465 -0.0420  0.0580
  449loPI   GL1 7173  13.820  11.486   9.946  0.0170 -0.3581  0.0830
  449loPI   GL2 7174  13.470  11.375   9.988 -0.0344 -0.1698  0.1671
  449loPI   C1A 7175  13.638  11.672   9.519  0.1911  0.2119 -0.2303
  449loPI   C2A 7176  13.773  11.790   9.080 -0.0511  0.0157  0.0049
  449loPI   C3A 7177  13.991  11.788   8.750 -0.0906  0.0562  0.1898
  449loPI   C4A 7178  14.241  11.626   8.354 -0.1490  0.2023  0.0665
  449loPI   C5A 7179  14.340  11.152   8.069  0.0787  0.3323 -0.2021
  449loPI   C6A 7180  14.145  10.789   7.934 -0.2294 -0.1500  0.2192
  449loPI   C1B 7181  13.236  11.365   9.531 -0.2752 -0.0506 -0.0782
  449loPI   C2B 7182  13.024  11.370   9.067  0.0107 -0.0752  0.1873
  449loPI   C3B 7183  12.939  11.263   8.568  0.1062  0.1046 -0.0798
  449loPI   C4B 7184  12.758  11.328   8.214  0.1194  0.0864 -0.1406
  450loPI    C1 7185   2.219   4.277  10.423  0.0461 -0.0797  0.0173
  450loPI    C2 7186   1.869   4.147  10.568  0.0362 -0.0627  0.0088
  450loPI    C3 7187   2.199   4.129  10.794 -0.0036  0.0803  0.0796
  450loPI   PO4 7188   2.231   4.290  10.191  0.0595 -0.0173  0.0219
  450loPI   GL1 7189   2.307   4.584   9.857 -0.2128 -0.5095 -0.1042
  450loPI   GL2 7190   2.022   4.545   9.780  0.1421 -0.2572 -0.0877
  450loPI   C1A 7191   2.320   4.351   9.387 -0.0632  0.0662  0.0943
  450loPI   C2A 7192   2.285   4.222   8.965  0.1568  0.0994  0.0717
  450loPI   C3A 7193   2.289   4.277   8.558 -0.3831  0.0336 -0.1307
  450loPI   C4A 7194   2.219   4.324   8.202 -0.3337 -0.1558  0.1343
  450loPI   C5A 7195   2.122   4.354   7.831 -0.0057 -0.0351 -0.4135
  450loPI   C6A 7196   2.142   4.398   7.394  0.2042 -0.1279 -0.2484
  450loPI   C1B 7197   1.917   4.599   9.286  0.0666  0.1361 -0.1608
  450loPI   C2B 7198   1.924   4.523   8.800  0.2926 -0.0089  0.1556
  450loPI   C3B 7199   1.807   4.608   8.365 -0.0127  0.1565  0.0288
  450loPI   C4B 7200   1.866   4.712   7.954  0.1841 -0.1972  0.1788
  451loPI    C1 7201  18.036  10.294  10.948 -0.1106  0.2433  0.3137
  451loPI    C2 7202  17.900   9.955  11.110  0.1513  0.0898  0.2184
  451loPI    C3 7203  18.080  10.229  11.340  0.3855 -0.0596  0.2172
  451loPI   PO4 7204  18.161  10.236  10.789  0.0287  0.1813  0.1265
  451loPI   GL1 7205  18.160  10.330  10.426  0.2903  0.0519 -0.2746
  451loPI   GL2 7206  17.857  10.338  10.314  0.3550 -0.3360 -0.2146
  451loPI   C1A 7207  18.113  10.566  10.033 -0.0807  0.1125  0.2334
  451loPI   C2A 7208  18.166  10.620   9.545  0.1463 -0.1898 -0.2532
  451loPI   C3A 7209  18.066  10.813   9.142  0.1438 -0.1861  0.1283
  451loPI   C4A 7210  18.149  10.978   8.556  0.1310  0.1282 -0.0066
  451loPI   C5A 7211  18.233  11.273   8.212  0.2541 -0.2325  0.1748
  451loPI   C6A 7212  18.458  11.235   7.991 -0.0024  0.0240  0.1585
  451loPI   C1B 7213  17.776  10.212   9.865 -0.0947  0.1457 -0.1187
  451loPI   C2B 7214  17.617  10.188   9.478  0.0601  0.0070  0.1652
  451loPI   C3B 7215  17.621  10.187   9.039  0.0364  0.0998 -0.0566
  451loPI   C4B 7216  17.675  10.152   8.592 -0.2170  0.1086 -0.3027
  452loPI    C1 7217   5.913  12.876  10.338  0.0086 -0.1463  0.3019
  452loPI    C2 7218   5.655  13.182  10.325  0.1152 -0.0676 -0.0982
  452loPI    C3 7219   5.871  13.117  10.655 -0.1059  0.1214  0.0878
  452loPI   PO4 7220   5.908  12.731  10.144 -0.1677  0.1795 -0.2397
  452loPI   GL1 7221   5.923  12.666   9.712  0.1123 -0.0702  0.2020
  452loPI   GL2 7222   5.627  12.718   9.774  0.1832  0.3128 -0.0555
  452loPI   C1A 7223   5.950  12.743   9.242 -0.1423 -0.2428 -0.3590
  452loPI   C2A 7224   5.990  12.745   8.866  0.0200 -0.1032 -0.2267
  452loPI   C3A 7225   5.862  12.710   8.384  0.2123  0.2588 -0.1025
  452loPI   C4A 7226   5.960  12.748   8.008 -0.1603  0.1240 -0.1530
  452loPI   C5A 7227   6.184  12.693   7.714  0.1284  0.0035 -0.1466
  452loPI   C6A 7228   6.498  12.839   7.405 -0.1445 -0.1579 -0.2556
  452loPI   C1B 7229   5.470  12.857   9.316 -0.0345 -0.2253  0.0937
  452loPI   C2B 7230   5.450  12.915   8.873  0.0554  0.2761 -0.2068
  452loPI   C3B 7231   5.443  12.925   8.410 -0.1993 -0.0796  0.1693
  452loPI   C4B 7232   5.461  12.700   7.979  0.2291 -0.2669  0.3153
  453loPI    C1 7233   8.687   7.774  10.909 -0.0530  0.1206  0.0233
  453loPI    C2 7234   8.535   7.451  11.089  0.0346 -0.0627 -0.2262
  453loPI    C3 7235   8.598   7.785  11.299 -0.2594 -0.1362 -0.0133
  453loPI   PO4 7236   8.881   7.605  10.746  0.0422  0.0484 -0.3036
  453loPI   GL1 7237   8.872   7.579  10.329  0.0720 -0.3102 -0.1922
  453loPI   GL2 7238   8.491   7.724  10.384 -0.1396 -0.4912  0.2375
  453loPI   C1A 7239   9.040   7.455   9.984 -0.2204  0.0986  0.0025
  453loPI   C2A 7240   9.040   7.601   9.461  0.2016  0.1262 -0.3005
  453loPI   C3A 7241   9.005   7.682   9.133  0.1607 -0.3291 -0.1644
  453loPI   C4A 7242   9.017   7.692   8.700  0.0662 -0.0742  0.2788
  453loPI   C5A 7243   9.003   7.740   8.230  0.0173 -0.1270 -0.2306
  453loPI   C6A 7244   9.208   7.790   7.805 -0.0194  0.1272 -0.1007
  453loPI   C1B 7245   8.527   7.634   9.900  0.2299 -0.1830  0.2395
  453loPI   C2B 7246   8.555   7.659   9.481 -0.0698  0.1599 -0.0687
  453loPI   C3B 7247   8.465   7.771   9.007 -0.0026  0.2557 -0.2896
  453loPI   C4B 7248   8.523   7.676   8.567 -0.0651  0.1127  0.2573
  454loPI    C1 7249   4.950   6.101  10.483  0.2629  0.1816  0.0038
  454loPI    C2 7250   4.786   5.952  10.816 -0.0069  0.0472 -0.1860
  454loPI    C3 7251   5.167   6.072  10.818  0.0939 -0.2621  0.0822
  454loPI   PO4 7252   4.920   5.881  10.277  0.2925  0.0651  0.1364
  454loPI   GL1 7253   5.272   5.745   9.982  0.0317  0.1473  0.1687
  454loPI   GL2 7254   5.513   5.667   9.780  0.2539 -0.0011  0.0846
  454loPI   C1A 7255   5.134   5.396   9.717  0.0567  0.1596 -0.0632
  454loPI   C2A 7256   5.146   5.370   9.271 -0.0889  0.0572  0.1229
  454loPI   C3A 7257   5.097   5.447   8.853  0.0250 -0.1096  0.0614
  454loPI   C4A 7258   5.177   5.365   8.481  0.1077 -0.1347 -0.0216
  454loPI   C5A 7259   5.138   5.391   8.018  0.2883  0.0033 -0.0896
  454loPI   C6A 7260   5.046   5.454   7.592 -0.2110  0.0779  0.1450
  454loPI   C1B 7261   5.476   5.715   9.316  0.0833 -0.1302 -0.0210
  454loPI   C2B 7262   5.618   5.707   8.897  0.0045 -0.2142  0.0293
  454loPI   C3B 7263   5.639   5.604   8.483 -0.0875 -0.2013  0.0777
  454loPI   C4B 7264   5.610   5.618   8.059  0.0115 -0.0042  0.1851
  455loPI    C1 7265   4.523  12.139  10.600 -0.0681 -0.2016  0.1509
  455loPI    C2 7266   4.810  12.219  10.868  0.0221  0.2797 -0.0779
  455loPI    C3 7267   4.458  12.071  10.989  0.2474 -0.0104  0.2409
  455loPI   PO4 7268   4.634  11.954  10.359  0.1515 -0.1833  0.2646
  455loPI   GL1 7269   4.535  11.841   9.870  0.2613 -0.0517 -0.0719
  455loPI   GL2 7270   4.855  12.075   9.890 -0.0295  0.0493  0.1203
  455loPI   C1A 7271   4.319  11.788   9.401 -0.1395 -0.0392 -0.0248
  455loPI   C2A 7272   4.192  11.955   8.943  0.2029 -0.0420  0.3878
  455loPI   C3A 7273   4.166  11.913   8.397  0.1637 -0.3977 -0.2044
  455loPI   C4A 7274   4.092  12.037   7.908 -0.0800  0.0157 -0.2170
  455loPI   C5A 7275   4.335  12.005   7.551  0.0076 -0.1710 -0.4032
  455loPI   C6A 7276   4.768  11.934   7.312  0.1904 -0.1057  0.3895
  455loPI   C1B 7277   4.642  12.164   9.468 -0.0569 -0.1247 -0.2346
  455loPI   C2B 7278   4.624  12.297   9.015  0.3109  0.1678 -0.0352
  455loPI   C3B 7279   4.605  12.280   8.605  0.1923  0.3753 -0.0400
  455loPI   C4B 7280   4.513  12.210   8.135 -0.1688  0.0445  0.2875
  456loPI    C1 7281   1.141   7.925  10.529 -0.0417 -0.0077 -0.0098
  456loPI    C2 7282   0.833   7.697  10.413 -0.0470  0.0726 -0.1563
  456loPI    C3 7283   1.149   7.530  10.594 -0.0642 -0.0465 -0.2357
  456loPI   PO4 7284   1.170   8.031  10.355  0.0343 -0.3621  0.1899
  456loPI   GL1 7285   1.084   8.346   9.992 -0.0764  0.0043 -0.2379
  456loPI   GL2 7286   1.273   8.448   9.764 -0.1323 -0.0574  0.0999
  456loPI   C1A 7287   0.775   8.394   9.774  0.0468  0.0570 -0.1483
  456loPI   C2A 7288   0.891   8.394   9.308 -0.0904 -0.2467  0.1793
  456loPI   C3A 7289   0.931   8.188   8.986 -0.1310 -0.0216  0.0612
  456loPI   C4A 7290   0.866   8.139   8.518 -0.3949  0.1962  0.2784
  456loPI   C5A 7291   1.108   7.761   8.249 -0.2594  0.2508 -0.0699
  456loPI   C6A 7292   1.236   7.422   7.976 -0.3096 -0.2006  0.1578
  456loPI   C1B 7293   1.171   8.076   9.516  0.2843 -0.1864 -0.1672
  456loPI   C2B 7294   1.195   7.680   9.282  0.2349 -0.0448 -0.0358
  456loPI   C3B 7295   0.856   7.321   9.209  0.1305  0.0964 -0.0106
  456loPI   C4B 7296   0.686   7.068   8.974  0.0996 -0.2345  0.0661
  457loPI    C1 7297  18.016  15.766  10.349 -0.3474 -0.0588 -0.0049
  457loPI    C2 7298  18.001  15.690  10.742 -0.0599 -0.0070  0.0178
  457loPI    C3 7299  18.289  15.925  10.594 -0.0643 -0.1637 -0.2469
  457loPI   PO4 7300  17.723  15.641  10.240 -0.0262 -0.2785 -0.0646
  457loPI   GL1 7301  17.711  15.144  10.048  0.1447  0.1661  0.0800
  457loPI   GL2 7302  17.942  15.259   9.860  0.3934 -0.1277  0.4864
  457loPI   C1A 7303  17.461  15.064   9.617  0.2486 -0.0632 -0.0761
  457loPI   C2A 7304  17.475  15.073   9.201 -0.1935  0.0993  0.2395
  457loPI   C3A 7305  17.432  15.042   8.717  0.4505 -0.0844 -0.0335
  457loPI   C4A 7306  17.381  15.043   8.354  0.0191 -0.1647  0.3128
  457loPI   C5A 7307  17.300  14.764   7.997  0.1815 -0.3195  0.0423
  457loPI   C6A 7308  17.495  14.581   7.608 -0.0740  0.0313  0.1304
  457loPI   C1B 7309  17.884  15.292   9.386  0.3855  0.0421 -0.0017
  457loPI   C2B 7310  17.852  15.310   8.966  0.2305 -0.2642  0.0559
  457loPI   C3B 7311  17.834  15.305   8.566  0.1559 -0.4992  0.0346
  457loPI   C4B 7312  17.674  15.464   8.201 -0.0861  0.2937 -0.1202
  458loPI    C1 7313   8.752  14.306  10.115 -0.2405 -0.2264 -0.1136
  458loPI    C2 7314   9.057  14.413  10.351 -0.6775  0.2772  0.2475
  458loPI    C3 7315   8.825  14.104  10.453 -0.1961 -0.2269 -0.1233
  458loPI   PO4 7316   8.767  14.302   9.919  0.0372 -0.0742  0.1384
  458loPI   GL1 7317   8.869  14.376   9.549 -0.0888 -0.2010 -0.0304
  458loPI   GL2 7318   8.639  14.670   9.565  0.1350 -0.0901 -0.1772
  458loPI   C1A 7319   8.699  14.005   9.254  0.2129  0.3116  0.0064
  458loPI   C2A 7320   8.600  13.822   8.735 -0.1967 -0.0067 -0.0077
  458loPI   C3A 7321   8.356  13.772   8.361 -0.2021 -0.1603 -0.0462
  458loPI   C4A 7322   8.449  13.678   7.941  0.4024 -0.2808 -0.0516
  458loPI   C5A 7323   8.595  13.514   7.541  0.5073  0.3051  0.2100
  458loPI   C6A 7324   8.916  13.276   7.394  0.4868  0.1810 -0.1742
  458loPI   C1B 7325   8.838  14.500   9.078  0.0591  0.0763 -0.1847
  458loPI   C2B 7326   8.957  14.193   8.731  0.0132 -0.1065 -0.0454
  458loPI   C3B 7327   9.032  14.403   8.284  0.1314  0.2563  0.1794
  458loPI   C4B 7328   9.264  14.225   8.069  0.2831  0.3481  0.0723
  459loPI    C1 7329   7.177   9.203  10.889 -0.0774  0.2418  0.1800
  459loPI    C2 7330   7.128   8.994  11.226 -0.1127 -0.0230  0.0136
  459loPI    C3 7331   7.165   9.392  11.241 -0.0980 -0.0338  0.3298
  459loPI   PO4 7332   7.193   9.134  10.571 -0.1361 -0.5248 -0.0515
  459loPI   GL1 7333   7.029   9.239  10.127 -0.1560  0.0984  0.1246
  459loPI   GL2 7334   6.743   9.358  10.021  0.2440  0.1949 -0.2843
  459loPI   C1A 7335   7.103   8.928   9.810 -0.3819  0.0631 -0.3970
  459loPI   C2A 7336   7.082   8.858   9.273  0.0429  0.0163  0.2089
  459loPI   C3A 7337   7.076   8.791   8.856 -0.2296 -0.2488  0.2275
  459loPI   C4A 7338   7.148   8.757   8.435  0.3071 -0.3352  0.4786
  459loPI   C5A 7339   7.219   8.717   7.996  0.1598  0.1995 -0.1390
  459loPI   C6A 7340   7.269   8.401   7.579  0.2767 -0.1084  0.1915
  459loPI   C1B 7341   6.859   9.250   9.608 -0.1966 -0.0878  0.1028
  459loPI   C2B 7342   6.720   9.159   9.123 -0.0922  0.0610 -0.1760
  459loPI   C3B 7343   6.755   9.153   8.764  0.1610 -0.0800 -0.2411
  459loPI   C4B 7344   6.614   9.312   8.356  0.0128 -0.0550 -0.1635
  460loPI    C1 7345   5.847   3.941  10.326  0.1204  0.1318 -0.0053
  460loPI    C2 7346   5.988   3.644  10.553  0.0424  0.1485  0.0654
  460loPI    C3 7347   5.635   3.810  10.638 -0.0240  0.1019 -0.1148
  460loPI   PO4 7348   5.984   3.819  10.055 -0.0151 -0.4989  0.0522
  460loPI   GL1 7349   6.358   3.812   9.781 -0.0042  0.1088  0.0052
  460loPI   GL2 7350   6.468   4.078   9.934  0.0159  0.1759  0.0421
  460loPI   C1A 7351   6.282   3.832   9.293  0.1191 -0.0570  0.0685
  460loPI   C2A 7352   6.194   3.819   8.880 -0.0664 -0.0544 -0.1361
  460loPI   C3A 7353   6.190   3.953   8.428 -0.0097  0.0023  0.1361
  460loPI   C4A 7354   6.006   3.932   7.996 -0.0206 -0.0296 -0.0866
  460loPI   C5A 7355   6.062   4.346   7.803  0.0837 -0.2044  0.1029
  460loPI   C6A 7356   6.106   4.753   7.645  0.0414  0.3748  0.2801
  460loPI   C1B 7357   6.628   4.245   9.523  0.0222 -0.0214  0.2838
  460loPI   C2B 7358   6.623   4.202   9.041  0.0381  0.2110 -0.1902
  460loPI   C3B 7359   6.473   4.335   8.648  0.3388 -0.2467  0.0521
  460loPI   C4B 7360   6.337   4.487   8.239 -0.0608  0.0081  0.2318
  461loPI    C1 7361   6.330   3.036  10.371  0.1397 -0.0968  0.0363
  461loPI    C2 7362   6.576   3.250  10.602  0.1473 -0.0970  0.0283
  461loPI    C3 7363   6.187   3.228  10.691  0.0931  0.1591 -0.1345
  461loPI   PO4 7364   6.461   3.036  10.147 -0.3070  0.1161 -0.1007
  461loPI   GL1 7365   6.523   3.199   9.782  0.1545  0.2063 -0.1696
  461loPI   GL2 7366   6.200   3.062   9.606  0.3436 -0.0203  0.3250
  461loPI   C1A 7367   6.537   3.352   9.332 -0.2640  0.0966 -0.0432
  461loPI   C2A 7368   6.556   3.383   8.907 -0.2661  0.2320  0.0022
  461loPI   C3A 7369   6.594   3.361   8.513 -0.1460 -0.0608  0.0856
  461loPI   C4A 7370   6.450   3.615   8.168 -0.0406 -0.3452 -0.1156
  461loPI   C5A 7371   6.355   3.692   7.673  0.1678 -0.0931  0.0264
  461loPI   C6A 7372   6.582   3.423   7.440 -0.0139 -0.2606  0.1242
  461loPI   C1B 7373   6.247   2.927   9.213  0.0126  0.3163  0.0445
  461loPI   C2B 7374   6.282   3.066   8.722  0.0776  0.1094 -0.0863
  461loPI   C3B 7375   6.346   3.057   8.269 -0.0166  0.2209 -0.2367
  461loPI   C4B 7376   6.316   3.224   7.823  0.0838  0.0623 -0.0375
  462loPI    C1 7377  11.780  11.059  10.579 -0.1495 -0.0326 -0.0318
  462loPI    C2 7378  11.883  11.384  10.788  0.1185  0.1181 -0.3875
  462loPI    C3 7379  11.658  11.100  10.957  0.2565  0.2743  0.0726
  462loPI   PO4 7380  11.669  11.111  10.298  0.1015 -0.1222  0.0503
  462loPI   GL1 7381  11.779  10.918  10.070  0.3057  0.1990  0.5128
  462loPI   GL2 7382  12.046  10.595   9.999 -0.1775 -0.1857  0.0529
  462loPI   C1A 7383  11.443  10.702   9.784 -0.1718  0.3164  0.0984
  462loPI   C2A 7384  11.548  10.520   9.395  0.2639  0.1913  0.0486
  462loPI   C3A 7385  11.650  10.532   8.931 -0.1848 -0.1100  0.2715
  462loPI   C4A 7386  11.624  10.450   8.529 -0.1914 -0.0493 -0.0979
  462loPI   C5A 7387  11.383  10.462   8.029 -0.1504 -0.2001 -0.1522
  462loPI   C6A 7388  11.409  10.805   7.680  0.2690  0.0855 -0.1021
  462loPI   C1B 7389  12.049  10.440   9.535  0.0420  0.3069  0.0508
  462loPI   C2B 7390  12.205  10.389   9.124 -0.1627  0.0906 -0.3140
  462loPI   C3B 7391  12.255  10.440   8.651  0.2150 -0.2601 -0.0027
  462loPI   C4B 7392  12.009  10.571   8.225 -0.0277 -0.3452  0.0966
  463loPI    C1 7393   3.991   6.074  10.546  0.1441  0.0999  0.1302
  463loPI    C2 7394   4.194   6.181  10.874  0.0548  0.0546  0.2007
  463loPI    C3 7395   3.816   6.055  10.905  0.1605 -0.2940  0.1212
  463loPI   PO4 7396   4.024   6.265  10.380 -0.0284  0.1571 -0.2250
  463loPI   GL1 7397   4.093   6.316  10.005 -0.1093  0.0921  0.1031
  463loPI   GL2 7398   4.235   6.510   9.715  0.2468  0.0741 -0.0409
  463loPI   C1A 7399   3.927   6.097   9.575  0.0252 -0.0530 -0.2055
  463loPI   C2A 7400   3.824   6.075   9.178 -0.2035  0.1310 -0.0821
  463loPI   C3A 7401   3.817   5.859   8.727 -0.2992  0.0797 -0.2756
  463loPI   C4A 7402   3.874   5.781   8.288 -0.1226 -0.0427 -0.0227
  463loPI   C5A 7403   3.924   5.749   7.865  0.1578 -0.0555 -0.0714
  463loPI   C6A 7404   4.043   5.662   7.426 -0.2071  0.3698 -0.2576
  463loPI   C1B 7405   4.245   6.463   9.250  0.1002 -0.0219 -0.2787
  463loPI   C2B 7406   4.322   6.563   8.830  0.1084 -0.4638  0.1370
  463loPI   C3B 7407   4.345   6.536   8.350  0.1009 -0.0394  0.0289
  463loPI   C4B 7408   4.079   6.716   8.142  0.1577 -0.3701 -0.1095
  464loPI    C1 7409   1.196  15.646  10.557  0.1164 -0.0929  0.1082
  464loPI    C2 7410   1.570  15.688  10.420  0.1132  0.1773  0.1766
  464loPI    C3 7411   1.507  15.560  10.794  0.1253 -0.3470  0.0085
  464loPI   PO4 7412   1.042  15.568  10.341 -0.0229  0.0336  0.1124
  464loPI   GL1 7413   1.146  15.513   9.879  0.1040  0.3628 -0.2958
  464loPI   GL2 7414   0.862  15.692   9.861  0.1893  0.0909 -0.1552
  464loPI   C1A 7415   1.374  15.377   9.456  0.1945  0.1621 -0.2544
  464loPI   C2A 7416   1.385  15.390   9.110  0.1182  0.0220 -0.0727
  464loPI   C3A 7417   1.329  15.403   8.736  0.1267  0.0195 -0.4317
  464loPI   C4A 7418   1.293  15.406   8.276  0.0098 -0.0594 -0.0065
  464loPI   C5A 7419   1.078  15.338   7.869  0.2197 -0.1123 -0.0721
  464loPI   C6A 7420   0.612  15.286   7.743 -0.0759 -0.1302 -0.0393
  464loPI   C1B 7421   0.913  15.555   9.396  0.1403 -0.0299  0.1925
  464loPI   C2B 7422   0.879  15.616   8.970  0.0130 -0.2906  0.1250
  464loPI   C3B 7423   0.853  15.575   8.559 -0.0242 -0.1258  0.2724
  464loPI   C4B 7424   0.752  15.629   8.136 -0.1389 -0.2940  0.3546
  465loPI    C1 7425   8.183   6.157  11.020 -0.1698  0.1426 -0.0316
  465loPI    C2 7426   7.870   6.367  11.154 -0.0651  0.2037  0.1202
  465loPI    C3 7427   8.237   6.446  11.291 -0.0083  0.0020  0.0885
  465loPI   PO4 7428   8.056   6.173  10.723  0.1100  0.2450 -0.1166
  465loPI   GL1 7429   8.046   6.086  10.362  0.1250  0.0675  0.1052
  465loPI   GL2 7430   8.078   6.405  10.339  0.0887  0.0451 -0.0240
  465loPI   C1A 7431   7.792   5.939   9.953 -0.2265 -0.1916  0.0558
  465loPI   C2A 7432   7.863   5.824   9.614 -0.0568  0.5425  0.1239
  465loPI   C3A 7433   7.861   5.922   9.176 -0.0201 -0.2591 -0.0741
  465loPI   C4A 7434   7.852   5.882   8.693 -0.0059 -0.0693 -0.3249
  465loPI   C5A 7435   7.976   5.955   8.275 -0.1805  0.0598 -0.2197
  465loPI   C6A 7436   8.036   6.291   7.966 -0.0905 -0.1143  0.1156
  465loPI   C1B 7437   8.083   6.282   9.897  0.0565 -0.0614  0.1485
  465loPI   C2B 7438   8.072   6.275   9.465 -0.0520  0.1446 -0.0548
  465loPI   C3B 7439   8.117   6.325   8.948  0.0288  0.1265 -0.0278
  465loPI   C4B 7440   8.204   6.378   8.502 -0.0987 -0.2456 -0.1214
  466loPI    C1 7441  13.445  15.544  10.339 -0.0563 -0.0539 -0.0172
  466loPI    C2 7442  13.473  15.186  10.516  0.2139  0.0750  0.2095
  466loPI    C3 7443  13.169  15.430  10.605 -0.0378 -0.1418 -0.0351
  466loPI   PO4 7444  13.676  15.474  10.099 -0.3695 -0.2555 -0.0539
  466loPI   GL1 7445  13.659  15.333   9.681  0.1297 -0.0041  0.0049
  466loPI   GL2 7446  13.951  15.265   9.694 -0.0252  0.1746  0.1299
  466loPI   C1A 7447  13.524  15.277   9.274 -0.3809 -0.0505  0.0539
  466loPI   C2A 7448  13.423  15.138   8.814  0.1785 -0.3275  0.1106
  466loPI   C3A 7449  13.317  15.093   8.381 -0.2925 -0.0423  0.1198
  466loPI   C4A 7450  13.251  14.763   7.999  0.2610 -0.2128 -0.0773
  466loPI   C5A 7451  13.066  14.478   7.830 -0.1435  0.0187 -0.1660
  466loPI   C6A 7452  12.902  14.391   7.537  0.1487 -0.0432  0.1428
  466loPI   C1B 7453  13.874  14.919   9.479  0.0036 -0.1256 -0.2340
  466loPI   C2B 7454  13.604  14.804   9.124  0.0148  0.2304  0.1248
  466loPI   C3B 7455  13.396  14.644   8.834  0.1953  0.0787  0.5198
  466loPI   C4B 7456  13.211  14.458   8.482  0.0640  0.1205 -0.0889
  467loPI    C1 7457   7.970  10.390  10.592  0.1075  0.1104  0.2276
  467loPI    C2 7458   7.576  10.348  10.648  0.0966  0.0049  0.0757
  467loPI    C3 7459   7.810  10.460  10.952 -0.0062 -0.2419  0.2497
  467loPI   PO4 7460   8.079  10.298  10.475  0.2143  0.2037 -0.1491
  467loPI   GL1 7461   8.196  10.107  10.114  0.2042  0.0725  0.0351
  467loPI   GL2 7462   8.341   9.947   9.949 -0.3158  0.1921 -0.0706
  467loPI   C1A 7463   7.928  10.139   9.747  0.1111  0.0190 -0.3719
  467loPI   C2A 7464   7.504  10.074   9.472  0.5983 -0.0624 -0.1730
  467loPI   C3A 7465   7.374  10.440   9.214  0.1176 -0.0382  0.1512
  467loPI   C4A 7466   7.387  10.524   8.755 -0.2353 -0.0547  0.1245
  467loPI   C5A 7467   7.245  10.456   8.245  0.2615  0.5822 -0.1838
  467loPI   C6A 7468   7.302  10.100   7.966 -0.0831  0.0622 -0.1647
  467loPI   C1B 7469   8.578   9.917   9.684  0.0951 -0.1285  0.4066
  467loPI   C2B 7470   8.732  10.332   9.514  0.2530  0.3079 -0.4022
  467loPI   C3B 7471   8.838  10.446   9.195  0.0843 -0.2603  0.2236
  467loPI   C4B 7472   8.643  10.492   8.810  0.0620 -0.0352 -0.3314
  468loPI    C1 7473   7.503   0.711  10.178  0.2598 -0.0891 -0.0296
  468loPI    C2 7474   7.250   0.403  10.214  0.1369 -0.0233 -0.3007
  468loPI    C3 7475   7.415   0.565  10.540 -0.0643 -0.1545 -0.1311
  468loPI   PO4 7476   7.706   0.651  10.053  0.0094  0.0296 -0.0247
  468loPI   GL1 7477   7.888   0.607   9.632  0.2724 -0.1702  0.2752
  468loPI   GL2 7478   7.883   0.250   9.512 -0.2361 -0.0726  0.0374
  468loPI   C1A 7479   7.796   0.838   9.323 -0.0665  0.3679  0.0222
  468loPI   C2A 7480   8.046   0.811   8.984  0.2315  0.2164 -0.0357
  468loPI   C3A 7481   8.087   0.842   8.542 -0.0253  0.0441 -0.0061
  468loPI   C4A 7482   8.130   0.986   8.134 -0.3841 -0.1712  0.1107
  468loPI   C5A 7483   8.176   0.795   7.783 -0.2323 -0.0122  0.0916
  468loPI   C6A 7484   8.515   0.776   7.420 -0.0837  0.6366  0.2164
  468loPI   C1B 7485   8.140   0.414   9.252  0.1124 -0.0653 -0.1224
  468loPI   C2B 7486   8.222   0.403   8.744 -0.0359 -0.1591 -0.1910
  468loPI   C3B 7487   8.211   0.323   8.396  0.4208  0.1485  0.1192
  468loPI   C4B 7488   7.853   0.101   8.108  0.0068 -0.0272  0.1123
  469loPI    C1 7489   6.250  16.812   9.926  0.0637  0.1362 -0.2594
  469loPI    C2 7490   6.460  17.079  10.137  0.0999 -0.0065 -0.1117
  469loPI    C3 7491   6.069  17.031  10.208  0.0765  0.0615 -0.1926
  469loPI   PO4 7492   6.413  16.574   9.989 -0.0760 -0.4154 -0.2603
  469loPI   GL1 7493   6.583  16.344   9.661 -0.0869  0.0248 -0.3267
  469loPI   GL2 7494   6.778  16.628   9.663  0.1759 -0.2523  0.0936
  469loPI   C1A 7495   6.292  16.450   9.330  0.2646 -0.0116 -0.2013
  469loPI   C2A 7496   6.115  16.584   8.946  0.4150 -0.3715 -0.3074
  469loPI   C3A 7497   5.990  16.509   8.556 -0.4521 -0.0103  0.1609
  469loPI   C4A 7498   5.836  16.775   8.364 -0.1730 -0.1231  0.3130
  469loPI   C5A 7499   5.586  16.876   8.087 -0.0589  0.0501  0.1192
  469loPI   C6A 7500   5.194  17.074   7.870 -0.0375 -0.1600 -0.2005
  469loPI   C1B 7501   6.742  16.746   9.230  0.0422 -0.4310 -0.0133
  469loPI   C2B 7502   6.726  16.760   8.805 -0.0899 -0.1458 -0.0991
  469loPI   C3B 7503   6.912  16.720   8.454  0.0443  0.1031 -0.1455
  469loPI   C4B 7504   7.087  16.726   8.063  0.3278  0.1004 -0.0640
  470loPI    C1 7505   1.847   4.622  10.499 -0.0075 -0.1902  0.0607
  470loPI    C2 7506   2.109   4.637  10.801  0.1581 -0.2766 -0.0770
  470loPI    C3 7507   1.724   4.554  10.874  0.1126  0.1172  0.1592
  470loPI   PO4 7508   1.946   4.730  10.285 -0.0559 -0.0110 -0.3159
  470loPI   GL1 7509   2.081   5.039  10.017 -0.0337  0.0576  0.0575
  470loPI   GL2 7510   2.303   5.245   9.820 -0.1841  0.0279  0.0856
  470loPI   C1A 7511   1.897   5.099   9.560  0.2261  0.2905  0.3166
  470loPI   C2A 7512   1.967   5.025   9.023 -0.0434  0.2816 -0.0904
  470loPI   C3A 7513   2.029   5.229   8.623 -0.0389 -0.1378 -0.0581
  470loPI   C4A 7514   2.122   5.572   8.368  0.0126 -0.1101 -0.1003
  470loPI   C5A 7515   1.980   5.726   8.022  0.1698  0.0161 -0.3562
  470loPI   C6A 7516   1.888   5.778   7.601  0.0212  0.0388 -0.1347
  470loPI   C1B 7517   2.417   5.306   9.288 -0.0362  0.0905  0.2202
  470loPI   C2B 7518   2.453   5.214   8.845  0.0574 -0.1160  0.1949
  470loPI   C3B 7519   2.477   5.211   8.390  0.0089  0.0800  0.0350
  470loPI   C4B 7520   2.452   5.255   7.908 -0.2340  0.2005 -0.0516
  471loPI    C1 7521   8.472  16.905  10.496 -0.1071 -0.0326  0.0154
  471loPI    C2 7522   8.161  16.992  10.732  0.0595  0.0086  0.2231
  471loPI    C3 7523   8.514  17.171  10.792  0.1468 -0.1009  0.0435
  471loPI   PO4 7524   8.392  16.982  10.206 -0.2672 -0.1812  0.1422
  471loPI   GL1 7525   8.261  16.809   9.820  0.2024 -0.1650  0.0432
  471loPI   GL2 7526   8.463  17.007   9.636 -0.0370  0.0992 -0.0265
  471loPI   C1A 7527   8.056  16.745   9.425  0.1780  0.1034 -0.1694
  471loPI   C2A 7528   8.013  16.281   9.237 -0.1116  0.2067 -0.1046
  471loPI   C3A 7529   7.850  16.205   8.793 -0.1733 -0.1518 -0.2366
  471loPI   C4A 7530   7.818  16.175   8.380 -0.0605  0.0543  0.1920
  471loPI   C5A 7531   7.960  16.222   7.961  0.0063  0.1833 -0.0517
  471loPI   C6A 7532   8.003  16.629   7.697  0.1447  0.1353 -0.0520
  471loPI   C1B 7533   8.602  16.947   9.209 -0.0228  0.0227  0.2038
  471loPI   C2B 7534   8.528  17.091   8.845  0.2432 -0.2268  0.3798
  471loPI   C3B 7535   8.469  17.004   8.400 -0.0633 -0.3973 -0.2725
  471loPI   C4B 7536   8.229  16.982   8.067  0.1336  0.0311  0.1212
  472loPI    C1 7537   7.304  15.606   9.984  0.2432 -0.2411 -0.0678
  472loPI    C2 7538   7.291  15.986  10.108  0.2053 -0.1332 -0.3916
  472loPI    C3 7539   7.281  15.688  10.375  0.1069  0.0895 -0.1416
  472loPI   PO4 7540   7.437  15.552   9.861 -0.1522  0.1237  0.1615
  472loPI   GL1 7541   7.604  15.447   9.487  0.1501 -0.1342 -0.2525
  472loPI   GL2 7542   7.821  15.643   9.536  0.3124  0.1185 -0.0432
  472loPI   C1A 7543   7.772  15.274   9.163 -0.2497 -0.0455  0.1607
  472loPI   C2A 7544   8.101  15.284   8.882  0.0201 -0.2355  0.3941
  472loPI   C3A 7545   8.315  15.099   8.434  0.0833  0.2775 -0.4576
  472loPI   C4A 7546   8.306  15.295   8.052  0.0972 -0.4691 -0.2555
  472loPI   C5A 7547   7.988  15.480   7.739  0.5269  0.1925  0.2643
  472loPI   C6A 7548   7.556  15.353   7.600 -0.3023 -0.0535 -0.1998
  472loPI   C1B 7549   7.857  15.823   9.116 -0.4076  0.2416  0.1734
  472loPI   C2B 7550   7.959  15.718   8.623 -0.2873 -0.0292 -0.1454
  472loPI   C3B 7551   7.825  15.766   8.124 -0.0223  0.1160  0.0175
  472loPI   C4B 7552   7.577  15.835   7.695 -0.0324  0.1895 -0.1394
  473loPI    C1 7553  15.265   9.747  11.152  0.0877  0.1879 -0.0115
  473loPI    C2 7554  15.569   9.519  11.027 -0.2051 -0.1124 -0.1921
  473loPI    C3 7555  15.617   9.914  11.061  0.2895 -0.1857  0.0602
  473loPI   PO4 7556  15.092   9.721  11.023  0.0006 -0.1635 -0.1623
  473loPI   GL1 7557  14.991   9.453  10.607 -0.1192  0.2807 -0.0745
  473loPI   GL2 7558  14.859   9.763  10.397 -0.4807  0.1827  0.0982
  473loPI   C1A 7559  15.194   9.236  10.208 -0.1632  0.0735 -0.0248
  473loPI   C2A 7560  15.240   9.007   9.784  0.1422 -0.0679 -0.1881
  473loPI   C3A 7561  15.274   9.022   9.350 -0.3401  0.2234  0.4461
  473loPI   C4A 7562  15.359   8.872   8.957 -0.0126  0.2912  0.0987
  473loPI   C5A 7563  15.215   9.092   8.556 -0.2301 -0.1162 -0.0387
  473loPI   C6A 7564  14.974   9.290   8.263  0.1845  0.2078 -0.2638
  473loPI   C1B 7565  14.967   9.710   9.966  0.0705  0.0761  0.0331
  473loPI   C2B 7566  15.090   9.431   9.614  0.0193  0.0356 -0.0877
  473loPI   C3B 7567  15.066   9.519   9.191 -0.1636  0.2871 -0.1581
  473loPI   C4B 7568  15.045   9.491   8.768  0.2855 -0.1206  0.0476
  474loPI    C1 7569   0.129   9.545  11.041  0.0685 -0.0836  0.2503
  474loPI    C2 7570   0.497   9.696  10.997  0.0926 -0.1712  0.1481
  474loPI    C3 7571   0.268   9.814  11.303  0.1493 -0.0048  0.1275
  474loPI   PO4 7572   0.012   9.583  10.703  0.1422  0.1097  0.0749
  474loPI   GL1 7573   0.044   9.546  10.250  0.1276  0.4476 -0.0227
  474loPI   GL2 7574  -0.142   9.451  10.027  0.1128 -0.3252  0.1260
  474loPI   C1A 7575   0.036   9.935   9.864 -0.2584  0.0926  0.2409
  474loPI   C2A 7576   0.082  10.139   9.481 -0.1922  0.1420 -0.0263
  474loPI   C3A 7577  -0.100  10.084   9.098  0.0673 -0.3685  0.0845
  474loPI   C4A 7578  -0.080  10.212   8.657 -0.0423 -0.1573  0.5142
  474loPI   C5A 7579  -0.089  10.335   8.098 -0.0800  0.2043 -0.0734
  474loPI   C6A 7580   0.240  10.365   7.832 -0.1483 -0.2465  0.0303
  474loPI   C1B 7581  -0.328   9.616   9.680 -0.0842 -0.4403  0.0426
  474loPI   C2B 7582  -0.341   9.675   9.329  0.1711  0.2129  0.2250
  474loPI   C3B 7583  -0.297   9.710   8.885  0.0309  0.3625  0.1553
  474loPI   C4B 7584   0.000   9.768   8.581 -0.1806  0.2470  0.4381
  475loPI    C1 7585  15.989  10.226  11.060  0.0238  0.0587  0.0948
  475loPI    C2 7586  16.042  10.502  11.344  0.0495  0.1114  0.0392
  475loPI    C3 7587  15.673  10.412  11.219  0.0332  0.0378  0.1382
  475loPI   PO4 7588  16.155  10.280  10.834 -0.2011  0.2340  0.1669
  475loPI   GL1 7589  16.072  10.192  10.376  0.0965 -0.0686 -0.2179
  475loPI   GL2 7590  15.797  10.041  10.267 -0.4881 -0.0443  0.2023
  475loPI   C1A 7591  16.319   9.996  10.053  0.2274 -0.2676 -0.2108
  475loPI   C2A 7592  16.359   9.871   9.618 -0.0663  0.1369 -0.0097
  475loPI   C3A 7593  16.380   9.774   9.137 -0.0628  0.0251 -0.1363
  475loPI   C4A 7594  16.382   9.673   8.686  0.1281  0.2926  0.0478
  475loPI   C5A 7595  16.536   9.772   8.324  0.0963 -0.0221  0.1654
  475loPI   C6A 7596  16.774   9.844   7.903 -0.1783  0.3183 -0.1025
  475loPI   C1B 7597  15.810  10.100   9.928  0.2839 -0.0234 -0.3287
  475loPI   C2B 7598  15.835   9.878   9.598  0.0862  0.0311  0.1250
  475loPI   C3B 7599  15.907   9.841   9.191  0.0279 -0.1941 -0.1059
  475loPI   C4B 7600  15.918   9.744   8.761  0.0078  0.2838  0.2186
  476loPI    C1 7601  14.376   7.129  11.064  0.1939 -0.0624  0.1310
  476loPI    C2 7602  14.171   7.136  11.408 -0.0790  0.0672 -0.0307
  476loPI    C3 7603  14.567   7.189  11.410 -0.0195 -0.3370  0.3018
  476loPI   PO4 7604  14.271   7.318  10.920 -0.2212 -0.0495  0.1131
  476loPI   GL1 7605  14.379   7.348  10.471 -0.0647 -0.0315 -0.1740
  476loPI   GL2 7606  14.034   7.213  10.442  0.2973  0.0249  0.2693
  476loPI   C1A 7607  14.381   7.679  10.204  0.0306  0.0981 -0.0707
  476loPI   C2A 7608  14.487   7.676   9.811 -0.0518  0.1782  0.2019
  476loPI   C3A 7609  14.416   7.724   9.368 -0.0021 -0.0911 -0.0120
  476loPI   C4A 7610  14.535   7.656   8.887 -0.0337  0.1673  0.2709
  476loPI   C5A 7611  14.565   7.720   8.448 -0.3779 -0.3091  0.0594
  476loPI   C6A 7612  14.866   7.516   8.195 -0.1536 -0.0577  0.0351
  476loPI   C1B 7613  13.992   7.320  10.009  0.1456  0.1030  0.0993
  476loPI   C2B 7614  14.067   7.282   9.528  0.1162 -0.4519 -0.3291
  476loPI   C3B 7615  14.238   7.293   9.090 -0.0659 -0.2844 -0.2137
  476loPI   C4B 7616  14.261   7.231   8.659 -0.3612  0.1255 -0.0153
  477loPI    C1 7617   8.419   6.903  11.090 -0.0355 -0.1793  0.1376
  477loPI    C2 7618   8.320   7.152  11.387  0.0352  0.0887 -0.0591
  477loPI    C3 7619   8.701   7.038  11.340  0.0286  0.0681 -0.0632
  477loPI   PO4 7620   8.312   7.054  10.917 -0.0453  0.3800 -0.2733
  477loPI   GL1 7621   8.288   7.307  10.620 -0.0018  0.1389 -0.0699
  477loPI   GL2 7622   8.088   7.045  10.401  0.2294 -0.0679 -0.2819
  477loPI   C1A 7623   8.541   7.165  10.300 -0.0281 -0.3883 -0.0631
  477loPI   C2A 7624   8.626   7.056   9.914 -0.0554  0.0598  0.1816
  477loPI   C3A 7625   8.750   7.111   9.481 -0.0043 -0.0503 -0.0575
  477loPI   C4A 7626   8.864   7.205   9.050 -0.1320 -0.0920  0.0007
  477loPI   C5A 7627   8.708   7.207   8.681  0.0842 -0.1138 -0.1306
  477loPI   C6A 7628   8.750   7.333   8.242  0.1203  0.0606  0.1020
  477loPI   C1B 7629   8.004   6.842   9.945  0.0899 -0.0314  0.0543
  477loPI   C2B 7630   7.895   6.852   9.481  0.5084 -0.1032 -0.2503
  477loPI   C3B 7631   8.006   6.826   9.034 -0.0067  0.2221 -0.0534
  477loPI   C4B 7632   7.949   6.813   8.624 -0.4309 -0.1551  0.0172
  478loPI    C1 7633   1.943   3.673  10.744  0.0952  0.1228  0.1208
  478loPI    C2 7634   2.076   3.355  10.947  0.2167  0.0533 -0.0645
  478loPI    C3 7635   1.710   3.500  11.019  0.1104 -0.2082 -0.0689
  478loPI   PO4 7636   2.060   3.684  10.494 -0.0263  0.1469  0.0934
  478loPI   GL1 7637   1.915   3.863  10.112 -0.0737 -0.3315  0.0735
  478loPI   GL2 7638   1.748   3.560   9.949  0.1106 -0.0679 -0.0688
  478loPI   C1A 7639   2.189   3.807   9.706  0.0360  0.1534  0.0921
  478loPI   C2A 7640   2.214   3.857   9.366  0.3228  0.0017 -0.1515
  478loPI   C3A 7641   2.179   3.732   8.924 -0.1419  0.2128  0.2274
  478loPI   C4A 7642   2.220   3.737   8.446 -0.1350 -0.2019  0.0763
  478loPI   C5A 7643   2.152   3.767   8.009 -0.0671  0.0338 -0.1296
  478loPI   C6A 7644   2.174   3.519   7.679 -0.1412 -0.0547 -0.2590
  478loPI   C1B 7645   1.765   3.524   9.512  0.1876 -0.0617  0.2088
  478loPI   C2B 7646   1.684   3.504   9.064 -0.1331  0.2036  0.0196
  478loPI   C3B 7647   1.706   3.584   8.650  0.2554  0.0410 -0.3268
  478loPI   C4B 7648   1.710   3.493   8.182 -0.0132 -0.0745 -0.0933
  479loPI    C1 7649   5.539  10.472  10.487  0.0553 -0.3319 -0.1318
  479loPI    C2 7650   5.646  10.158  10.710  0.3046  0.1253  0.4161
  479loPI    C3 7651   5.658  10.527  10.865 -0.0499  0.4064 -0.1914
  479loPI   PO4 7652   5.673  10.406  10.297 -0.2743  0.1338  0.4256
  479loPI   GL1 7653   5.556  10.423   9.952 -0.1465  0.1522  0.0207
  479loPI   GL2 7654   5.323  10.442   9.775 -0.1280  0.0042 -0.1779
  479loPI   C1A 7655   5.822  10.520   9.607 -0.1402 -0.0138  0.0501
  479loPI   C2A 7656   5.881  10.771   9.197 -0.0287 -0.0281 -0.0594
  479loPI   C3A 7657   6.173  10.891   9.028 -0.2589 -0.0766  0.0346
  479loPI   C4A 7658   6.292  10.806   8.617  0.2046  0.1833 -0.1334
  479loPI   C5A 7659   6.163  10.777   8.210  0.0146 -0.2050 -0.1825
  479loPI   C6A 7660   5.946  10.880   7.931  0.0506  0.0561 -0.0495
  479loPI   C1B 7661   5.226  10.595   9.339 -0.0129  0.0845  0.2128
  479loPI   C2B 7662   5.245  10.770   8.907  0.1593 -0.2959 -0.3007
  479loPI   C3B 7663   5.588  10.763   8.796  0.1345 -0.0798  0.1737
  479loPI   C4B 7664   5.795  10.932   8.575  0.1153 -0.0081 -0.3028
  480loPI    C1 7665   9.873  17.511  10.533 -0.1797  0.1585 -0.0475
  480loPI    C2 7666   9.650  17.426  10.854 -0.0761  0.1480  0.0218
  480loPI    C3 7667   9.955  17.682  10.885  0.0713 -0.0205 -0.0168
  480loPI   PO4 7668   9.770  17.536  10.357 -0.0824 -0.1329  0.0498
  480loPI   GL1 7669   9.622  17.580   9.967  0.0430  0.0169 -0.0489
  480loPI   GL2 7670   9.749  17.282   9.941  0.0427 -0.1746 -0.1017
  480loPI   C1A 7671   9.845  17.562   9.519  0.3744  0.1657 -0.0386
  480loPI   C2A 7672   9.909  17.534   9.040  0.1727 -0.0391 -0.1551
  480loPI   C3A 7673   9.900  17.678   8.542  0.0653 -0.3085  0.0442
  480loPI   C4A 7674   9.800  17.494   8.241  0.5002 -0.1777  0.4363
  480loPI   C5A 7675   9.962  17.377   7.826  0.1010  0.1470 -0.0634
  480loPI   C6A 7676   9.983  17.258   7.364 -0.1463 -0.0060 -0.3057
  480loPI   C1B 7677   9.830  17.074   9.507 -0.0951  0.0826 -0.1970
  480loPI   C2B 7678   9.914  17.048   8.973 -0.0605 -0.1144  0.0208
  480loPI   C3B 7679   9.934  17.116   8.502 -0.1214 -0.0058 -0.1108
  480loPI   C4B 7680   9.976  17.009   8.178  0.2105  0.0057  0.1515
  481loPI    C1 7681   1.059  16.498  10.625 -0.2034  0.2092  0.1175
  481loPI    C2 7682   0.899  16.334  10.953  0.0266 -0.0352  0.1106
  481loPI    C3 7683   1.233  16.553  10.981  0.0034  0.0081  0.0500
  481loPI   PO4 7684   0.854  16.587  10.522 -0.0993  0.2620  0.0646
  481loPI   GL1 7685   0.761  16.551  10.109  0.2005 -0.1369  0.0478
  481loPI   GL2 7686   0.482  16.751  10.096  0.1513 -0.0183 -0.0615
  481loPI   C1A 7687   0.804  16.698   9.671 -0.1116  0.1109 -0.0688
  481loPI   C2A 7688   0.789  16.585   9.318 -0.2799 -0.0606 -0.0341
  481loPI   C3A 7689   0.644  16.577   8.866  0.1297 -0.0811 -0.1994
  481loPI   C4A 7690   0.713  16.608   8.425 -0.2177  0.3661  0.1241
  481loPI   C5A 7691   0.657  16.668   7.977 -0.2695 -0.0637 -0.1112
  481loPI   C6A 7692   0.470  16.459   7.644 -0.1124 -0.1379  0.2814
  481loPI   C1B 7693   0.306  16.845   9.698 -0.1446  0.1728 -0.0607
  481loPI   C2B 7694   0.343  16.777   9.248  0.1279  0.0970 -0.2160
  481loPI   C3B 7695   0.196  16.731   8.817 -0.0826  0.1429  0.4014
  481loPI   C4B 7696   0.251  16.786   8.363  0.1855  0.1593 -0.2822
  482loPI    C1 7697   3.534   3.564  10.503 -0.1453 -0.2629 -0.0883
  482loPI    C2 7698   3.250   3.393  10.727 -0.1536 -0.1512 -0.0126
  482loPI    C3 7699   3.628   3.409  10.859 -0.1183 -0.2682 -0.0978
  482loPI   PO4 7700   3.370   3.629  10.277 -0.1496  0.2929 -0.1108
  482loPI   GL1 7701   3.473   3.443   9.920 -0.1508 -0.0079  0.2375
  482loPI   GL2 7702   3.840   3.466   9.965 -0.0476  0.2104 -0.0015
  482loPI   C1A 7703   3.396   3.261   9.625  0.0889 -0.1323  0.3677
  482loPI   C2A 7704   3.424   3.271   9.107 -0.2812 -0.3997 -0.3069
  482loPI   C3A 7705   3.454   3.338   8.660  0.0402  0.0823  0.0021
  482loPI   C4A 7706   3.531   3.278   8.217 -0.0138  0.1692  0.0028
  482loPI   C5A 7707   3.761   3.380   7.849 -0.1067  0.1749  0.2107
  482loPI   C6A 7708   3.973   3.303   7.514 -0.0074 -0.3571  0.0770
  482loPI   C1B 7709   3.976   3.563   9.599 -0.0469 -0.1918 -0.0604
  482loPI   C2B 7710   3.935   3.471   9.135 -0.0195 -0.2286  0.1143
  482loPI   C3B 7711   3.970   3.455   8.716 -0.0584  0.1138 -0.1052
  482loPI   C4B 7712   3.932   3.543   8.285  0.0335  0.0133  0.2820
  483loPI    C1 7713   3.178  18.132  10.230  0.0051  0.2074  0.1131
  483loPI    C2 7714   3.219  18.034  10.616 -0.1603 -0.1956  0.0328
  483loPI    C3 7715   2.966  18.325  10.509  0.2147  0.2275  0.2616
  483loPI   PO4 7716   3.188  17.803  10.146 -0.1278 -0.0013 -0.1582
  483loPI   GL1 7717   3.121  17.577   9.696 -0.2911 -0.0889 -0.1581
  483loPI   GL2 7718   2.946  17.294   9.654 -0.0468 -0.0164  0.0617
  483loPI   C1A 7719   3.284  17.622   9.237  0.2559 -0.2703 -0.2914
  483loPI   C2A 7720   3.261  17.807   8.894  0.3017 -0.0708 -0.0620
  483loPI   C3A 7721   3.053  17.627   8.564  0.1350 -0.2485  0.1072
  483loPI   C4A 7722   2.953  17.411   8.114  0.1002 -0.1412  0.2846
  483loPI   C5A 7723   2.697  17.351   7.806 -0.1984 -0.1786 -0.3331
  483loPI   C6A 7724   2.543  17.342   7.436 -0.0318 -0.1607  0.0952
  483loPI   C1B 7725   2.886  17.283   9.172  0.2001  0.2654  0.0101
  483loPI   C2B 7726   2.773  17.249   8.810  0.0956 -0.0987 -0.2680
  483loPI   C3B 7727   2.853  17.063   8.441  0.0396 -0.0116 -0.1993
  483loPI   C4B 7728   2.812  16.909   8.016 -0.0530  0.0164  0.0419
  484loPI    C1 7729   9.242   3.281  10.647  0.1551  0.1409 -0.1263
  484loPI    C2 7730   9.396   2.917  10.709 -0.2015  0.0030 -0.0262
  484loPI    C3 7731   9.440   3.202  10.986 -0.1487 -0.0431  0.0132
  484loPI   PO4 7732   9.179   3.272  10.353 -0.1173 -0.0123 -0.0444
  484loPI   GL1 7733   9.184   3.456  10.005  0.0163 -0.2330 -0.0909
  484loPI   GL2 7734   9.047   3.716   9.920 -0.0916  0.1393 -0.1802
  484loPI   C1A 7735   9.450   3.483   9.674  0.1026 -0.0297  0.0612
  484loPI   C2A 7736   9.461   3.493   9.262  0.0357  0.0794 -0.1538
  484loPI   C3A 7737   9.413   3.616   8.827 -0.0203  0.0556 -0.1943
  484loPI   C4A 7738   9.415   3.634   8.444  0.0648  0.0117 -0.2672
  484loPI   C5A 7739   9.399   3.443   8.060  0.0183 -0.1071 -0.0509
  484loPI   C6A 7740   9.305   3.491   7.732 -0.0167 -0.2213 -0.0449
  484loPI   C1B 7741   9.229   3.923   9.534  0.1443 -0.0674 -0.2317
  484loPI   C2B 7742   9.291   3.965   9.166  0.0831 -0.0487  0.1194
  484loPI   C3B 7743   9.247   4.015   8.621 -0.0449 -0.2424 -0.1301
  484loPI   C4B 7744   9.302   4.011   8.146  0.2536  0.0542  0.3090
  485loPI    C1 7745  16.048   7.670  11.036 -0.0835  0.0784  0.1093
  485loPI    C2 7746  16.069   7.804  11.412  0.0003  0.1374  0.0842
  485loPI    C3 7747  15.856   7.476  11.327  0.2994 -0.1045  0.2469
  485loPI   PO4 7748  16.001   7.940  10.957 -0.1397 -0.0846  0.0341
  485loPI   GL1 7749  16.073   8.213  10.528  0.2855 -0.0784 -0.1380
  485loPI   GL2 7750  15.780   8.111  10.463  0.0851 -0.2237 -0.2029
  485loPI   C1A 7751  16.274   8.251  10.153 -0.1355  0.0683  0.1197
  485loPI   C2A 7752  16.322   8.051   9.741  0.0445  0.0200  0.0924
  485loPI   C3A 7753  16.314   8.055   9.296  0.1638 -0.2451 -0.1989
  485loPI   C4A 7754  16.277   7.948   8.802 -0.2214 -0.0060 -0.2195
  485loPI   C5A 7755  16.264   7.896   8.415 -0.1282 -0.0848  0.2556
  485loPI   C6A 7756  15.981   8.032   7.974 -0.1357  0.0094 -0.0663
  485loPI   C1B 7757  15.741   8.188  10.013  0.0013  0.0539 -0.0533
  485loPI   C2B 7758  15.824   8.088   9.535 -0.0584 -0.3911 -0.1290
  485loPI   C3B 7759  15.839   8.051   9.141  0.0797 -0.1394 -0.1093
  485loPI   C4B 7760  15.779   7.940   8.732 -0.3643 -0.2250 -0.0936
  486loPI    C1 7761  11.178   4.385  10.733  0.0883  0.0802  0.0562
  486loPI    C2 7762  11.278   4.406  11.120  0.1188  0.0567  0.0495
  486loPI    C3 7763  10.991   4.644  10.974  0.0925  0.0507  0.0912
  486loPI   PO4 7764  11.273   4.436  10.554  0.1320 -0.2031  0.2453
  486loPI   GL1 7765  11.164   4.663  10.125  0.0350 -0.2666 -0.1797
  486loPI   GL2 7766  10.815   4.761   9.975  0.1509 -0.0127 -0.0348
  486loPI   C1A 7767  11.274   4.797   9.731  0.1070 -0.0171 -0.1109
  486loPI   C2A 7768  11.402   4.832   9.311 -0.1582 -0.2862  0.1743
  486loPI   C3A 7769  11.403   4.742   8.923  0.1159 -0.0787  0.1687
  486loPI   C4A 7770  11.377   4.818   8.541  0.0157  0.0989  0.1521
  486loPI   C5A 7771  11.349   4.702   8.089 -0.2343 -0.1246 -0.0376
  486loPI   C6A 7772  11.699   4.702   7.872  0.3892 -0.2181  0.2442
  486loPI   C1B 7773  10.790   4.816   9.573  0.0020 -0.1107 -0.1711
  486loPI   C2B 7774  10.813   4.744   9.147  0.0157 -0.0843 -0.0699
  486loPI   C3B 7775  10.792   4.843   8.751 -0.3453  0.0617  0.0456
  486loPI   C4B 7776  10.837   4.759   8.347 -0.0133  0.3133  0.0383
  487loPI    C1 7777  16.453   6.391  10.786  0.0116  0.1519 -0.0339
  487loPI    C2 7778  16.690   6.502  11.088  0.0270 -0.0079  0.0136
  487loPI    C3 7779  16.314   6.388  11.161  0.0277 -0.0373 -0.0282
  487loPI   PO4 7780  16.589   6.190  10.665 -0.4837 -0.2488 -0.1165
  487loPI   GL1 7781  16.669   5.927  10.420  0.0072 -0.1807 -0.1598
  487loPI   GL2 7782  16.408   5.729  10.248 -0.2851  0.0469 -0.3005
  487loPI   C1A 7783  16.646   6.192  10.025 -0.2226  0.1170 -0.2236
  487loPI   C2A 7784  16.590   6.269   9.545  0.0142  0.1759  0.0000
  487loPI   C3A 7785  16.627   6.126   9.148 -0.4237  0.2073 -0.0340
  487loPI   C4A 7786  16.792   6.067   8.774 -0.0850  0.0069  0.1533
  487loPI   C5A 7787  16.823   6.071   8.247 -0.0988 -0.1359  0.0516
  487loPI   C6A 7788  16.851   5.752   7.950  0.0433  0.2007 -0.1029
  487loPI   C1B 7789  16.288   5.835   9.792 -0.1257 -0.0586 -0.0739
  487loPI   C2B 7790  16.321   5.724   9.315  0.3797 -0.0272 -0.0064
  487loPI   C3B 7791  16.406   5.731   8.880  0.1179 -0.1657 -0.0793
  487loPI   C4B 7792  16.487   5.740   8.445 -0.0524 -0.1165 -0.0378
  488loPI    C1 7793   2.494  18.512  10.427  0.1731 -0.2349  0.1878
  488loPI    C2 7794   2.365  18.753  10.720 -0.0229  0.0380 -0.1164
  488loPI    C3 7795   2.529  18.399  10.809 -0.1796  0.0692  0.3158
  488loPI   PO4 7796   2.276  18.628  10.216  0.1315 -0.0233  0.2613
  488loPI   GL1 7797   2.374  18.459   9.747 -0.1906  0.2671 -0.2652
  488loPI   GL2 7798   2.612  18.549   9.610 -0.1526  0.2490  0.0384
  488loPI   C1A 7799   2.174  18.403   9.346  0.1050  0.0459 -0.0528
  488loPI   C2A 7800   2.082  18.496   8.907 -0.1455 -0.1357  0.5227
  488loPI   C3A 7801   1.788  18.791   8.710  0.1146  0.1846  0.0574
  488loPI   C4A 7802   1.580  18.966   8.300 -0.2316  0.2931  0.3628
  488loPI   C5A 7803   1.359  18.844   7.928  0.0485 -0.2024  0.0164
  488loPI   C6A 7804   1.059  18.631   7.831  0.0023 -0.0180 -0.0206
  488loPI   C1B 7805   2.660  18.322   9.308  0.0265 -0.2964  0.1610
  488loPI   C2B 7806   2.656  18.399   8.894  0.1434  0.2338 -0.1015
  488loPI   C3B 7807   2.477  18.463   8.386 -0.1282 -0.3196 -0.4040
  488loPI   C4B 7808   2.422  18.321   7.968 -0.0185 -0.2037 -0.2690
  489loPI    C1 7809  10.215   5.355  10.522 -0.1693  0.0578 -0.1541
  489loPI    C2 7810  10.038   5.471  10.861 -0.1305 -0.0664 -0.0906
  489loPI    C3 7811  10.291   5.162  10.864  0.1123  0.1284 -0.1744
  489loPI   PO4 7812  10.061   5.274  10.393  0.1486  0.0890  0.2828
  489loPI   GL1 7813   9.855   5.541  10.092 -0.0137 -0.1853 -0.1679
  489loPI   GL2 7814  10.000   5.228   9.923 -0.3799 -0.4611 -0.2261
  489loPI   C1A 7815   9.770   5.657   9.627  0.1539 -0.0902 -0.1042
  489loPI   C2A 7816   9.704   5.750   9.232  0.1310 -0.1138  0.0528
  489loPI   C3A 7817   9.850   5.758   8.823 -0.0208  0.0374 -0.0617
  489loPI   C4A 7818   9.955   5.725   8.377 -0.2672 -0.0105  0.0438
  489loPI   C5A 7819   9.933   5.833   7.966 -0.1059 -0.1693 -0.4779
  489loPI   C6A 7820  10.278   5.758   7.661 -0.1560  0.0140 -0.1439
  489loPI   C1B 7821  10.093   5.262   9.435  0.2171  0.2825  0.3093
  489loPI   C2B 7822  10.044   5.328   9.000  0.1280 -0.1778  0.2145
  489loPI   C3B 7823  10.145   5.251   8.630 -0.3670 -0.1066  0.2203
  489loPI   C4B 7824  10.173   5.291   8.159  0.2813  0.1356 -0.0074
  490loPI    C1 7825   5.409   2.710  10.392  0.2687 -0.0465  0.1180
  490loPI    C2 7826   5.375   2.354  10.213 -0.0762 -0.0159  0.1161
  490loPI    C3 7827   5.258   2.400  10.593  0.0322  0.0799  0.1386
  490loPI   PO4 7828   5.279   2.940  10.197  0.0038  0.0568  0.1706
  490loPI   GL1 7829   5.276   3.167   9.822  0.1281 -0.1145 -0.4087
  490loPI   GL2 7830   5.176   3.449   9.937  0.1419  0.0278  0.1474
  490loPI   C1A 7831   5.162   3.050   9.393  0.2550 -0.0020 -0.0974
  490loPI   C2A 7832   5.296   3.021   8.931  0.0894  0.0249 -0.1446
  490loPI   C3A 7833   5.237   2.929   8.551  0.5070  0.0413 -0.4764
  490loPI   C4A 7834   5.443   2.799   8.127  0.4325 -0.0585 -0.1795
  490loPI   C5A 7835   5.507   2.666   7.744  0.1827 -0.3251 -0.0047
  490loPI   C6A 7836   5.282   2.569   7.433 -0.1090 -0.2687 -0.0955
  490loPI   C1B 7837   5.200   3.511   9.500 -0.2600  0.2977  0.1574
  490loPI   C2B 7838   5.302   3.541   9.146  0.7833 -0.1762 -0.3414
  490loPI   C3B 7839   5.292   3.571   8.711 -0.2426  0.1257  0.1577
  490loPI   C4B 7840   5.351   3.349   8.362 -0.0996 -0.2851 -0.1529
  491loPI    C1 7841  14.416  14.233  10.444  0.2322 -0.0624  0.0350
  491loPI    C2 7842  14.530  14.557  10.238 -0.2572  0.0078 -0.1392
  491loPI    C3 7843  14.351  14.599  10.594  0.2098 -0.0994  0.1161
  491loPI   PO4 7844  14.175  14.112  10.213  0.0991 -0.0049  0.1427
  491loPI   GL1 7845  14.069  14.003   9.747 -0.1259 -0.0339  0.0440
  491loPI   GL2 7846  14.062  14.316   9.786 -0.2860  0.3526 -0.2001
  491loPI   C1A 7847  14.164  14.005   9.376 -0.2801  0.1869 -0.0181
  491loPI   C2A 7848  14.350  13.905   9.031 -0.2079  0.2285 -0.1912
  491loPI   C3A 7849  14.445  13.568   8.828  0.2394  0.3052  0.0401
  491loPI   C4A 7850  14.665  13.365   8.483 -0.2820 -0.2705 -0.1152
  491loPI   C5A 7851  14.843  13.455   8.068 -0.0536 -0.2441  0.0244
  491loPI   C6A 7852  15.040  13.434   7.636 -0.0478 -0.1750  0.1553
  491loPI   C1B 7853  13.829  14.379   9.443 -0.1504  0.1207  0.2793
  491loPI   C2B 7854  13.996  14.546   9.065  0.1667 -0.0058  0.0794
  491loPI   C3B 7855  13.809  14.470   8.683 -0.0849  0.0837 -0.2801
  491loPI   C4B 7856  13.926  14.474   8.186  0.2412  0.0644 -0.0025
  492loPI    C1 7857   9.041   2.212  10.266 -0.1725  0.2726  0.0700
  492loPI    C2 7858   8.738   1.997  10.117 -0.0619  0.0998  0.0910
  492loPI    C3 7859   8.818   1.985  10.508  0.2450 -0.2056  0.0237
  492loPI   PO4 7860   9.325   2.209  10.233 -0.2314 -0.0839 -0.0753
  492loPI   GL1 7861   9.490   2.271   9.920  0.2776  0.1035 -0.1569
  492loPI   GL2 7862   9.258   2.527   9.744 -0.2065 -0.0480  0.2420
  492loPI   C1A 7863   9.623   2.241   9.523  0.0578  0.3041  0.0375
  492loPI   C2A 7864   9.586   2.203   9.152 -0.0329  0.1697  0.0103
  492loPI   C3A 7865   9.743   2.137   8.715 -0.2482  0.1764 -0.2032
  492loPI   C4A 7866   9.768   2.152   8.235  0.2290 -0.1215 -0.1999
  492loPI   C5A 7867   9.810   1.910   7.874 -0.0716 -0.0733 -0.0232
  492loPI   C6A 7868   9.806   1.433   7.724  0.2168  0.0895  0.0695
  492loPI   C1B 7869   9.367   2.680   9.309  0.1404  0.0536 -0.0057
  492loPI   C2B 7870   9.379   2.684   8.819 -0.2598 -0.2301 -0.1528
  492loPI   C3B 7871   9.429   2.666   8.419  0.0119 -0.2814 -0.0973
  492loPI   C4B 7872   9.552   2.611   8.004 -0.0495 -0.0823 -0.0116
  493loPI    C1 7873   9.701  16.300  10.263  0.1520  0.0860  0.0047
  493loPI    C2 7874   9.866  16.214  10.618 -0.1888 -0.0446  0.1359
  493loPI    C3 7875   9.758  16.590  10.533  0.1978  0.0489  0.0353
  493loPI   PO4 7876   9.508  16.109  10.197  0.2412 -0.1508  0.0624
  493loPI   GL1 7877   9.599  15.795   9.916  0.1832 -0.0993  0.0029
  493loPI   GL2 7878   9.299  15.790   9.678 -0.1966 -0.1255  0.1945
  493loPI   C1A 7879   9.769  16.006   9.555 -0.0605  0.0960 -0.0124
  493loPI   C2A 7880   9.801  16.038   9.080  0.0751  0.0255  0.1352
  493loPI   C3A 7881   9.920  15.979   8.629 -0.0479  0.1947 -0.0171
  493loPI   C4A 7882  10.129  15.868   8.215 -0.0923 -0.2840  0.1137
  493loPI   C5A 7883  10.047  16.089   7.820 -0.0129  0.3069 -0.2708
  493loPI   C6A 7884   9.821  16.281   7.512  0.1719  0.1187 -0.0318
  493loPI   C1B 7885   9.263  15.862   9.245  0.2140  0.0138  0.0880
  493loPI   C2B 7886   9.333  15.889   8.764 -0.3326 -0.3193 -0.0592
  493loPI   C3B 7887   9.559  16.026   8.316 -0.1055 -0.1027  0.0889
  493loPI   C4B 7888   9.565  15.996   7.891  0.1270 -0.2631  0.1118
  494loPI    C1 7889   2.641   4.834  10.083  0.0231 -0.0394 -0.1133
  494loPI    C2 7890   2.786   4.887  10.452  0.1684  0.1865 -0.2008
  494loPI    C3 7891   2.402   4.787  10.401  0.1293  0.2254  0.0082
  494loPI   PO4 7892   2.743   4.995   9.930  0.1341  0.1495 -0.1920
  494loPI   GL1 7893   2.755   4.985   9.530 -0.0709  0.1846  0.0388
  494loPI   GL2 7894   2.338   4.895   9.454 -0.2024  0.0125 -0.3402
  494loPI   C1A 7895   2.814   5.028   9.154 -0.3605  0.1631 -0.0593
  494loPI   C2A 7896   2.842   4.922   8.746  0.1897 -0.1213  0.2841
  494loPI   C3A 7897   2.921   4.950   8.308  0.1010  0.1487 -0.1835
  494loPI   C4A 7898   3.006   4.775   7.842 -0.2096  0.0549 -0.0671
  494loPI   C5A 7899   3.311   4.809   7.519  0.2014  0.0295 -0.2588
  494loPI   C6A 7900   3.597   4.680   7.320 -0.0755 -0.1159 -0.0542
  494loPI   C1B 7901   2.451   4.738   9.084  0.3583 -0.2705  0.0563
  494loPI   C2B 7902   2.379   4.780   8.553  0.1594 -0.0126 -0.1661
  494loPI   C3B 7903   2.449   4.785   8.065 -0.1383  0.0571 -0.1814
  494loPI   C4B 7904   2.272   4.871   7.703  0.0583 -0.0112 -0.2328
  495loPI    C1 7905   0.452   6.326  10.664  0.2194  0.0383  0.2160
  495loPI    C2 7906   0.643   5.987  10.757  0.2641 -0.0252 -0.0972
  495loPI    C3 7907   0.816   6.341  10.829  0.1779 -0.0617  0.3185
  495loPI   PO4 7908   0.297   6.261  10.449 -0.0784 -0.2954  0.1493
  495loPI   GL1 7909   0.210   6.369  10.043 -0.1516 -0.5152  0.0783
  495loPI   GL2 7910   0.465   6.196   9.953 -0.0916  0.3552  0.0654
  495loPI   C1A 7911   0.429   6.609   9.664 -0.0643  0.0627  0.1086
  495loPI   C2A 7912   0.349   6.895   9.336 -0.0249 -0.3529 -0.0405
  495loPI   C3A 7913   0.170   7.022   8.854  0.0324  0.1501  0.0818
  495loPI   C4A 7914   0.309   7.115   8.371 -0.0239 -0.1891 -0.4166
  495loPI   C5A 7915   0.144   6.996   7.947 -0.0311  0.0032 -0.1081
  495loPI   C6A 7916   0.158   6.811   7.522 -0.0481  0.1439 -0.2291
  495loPI   C1B 7917   0.362   6.064   9.561 -0.0051 -0.0992  0.1417
  495loPI   C2B 7918   0.383   6.300   9.184  0.0865  0.1538 -0.0805
  495loPI   C3B 7919   0.474   6.668   8.918 -0.2674  0.1020  0.0283
  495loPI   C4B 7920   0.676   6.719   8.482  0.2935  0.1087 -0.1329
  496loPI    C1 7921   2.262   9.736  10.615 -0.0548 -0.1742  0.1726
  496loPI    C2 7922   2.125   9.992  10.891 -0.0645  0.0903 -0.0736
  496loPI    C3 7923   2.519   9.944  10.841 -0.0617  0.1687 -0.1275
  496loPI   PO4 7924   2.164   9.802  10.409  0.3004 -0.0129  0.0831
  496loPI   GL1 7925   2.305   9.749   9.980 -0.1781 -0.0503 -0.2200
  496loPI   GL2 7926   1.876   9.729  10.016  0.3310  0.0728  0.2632
  496loPI   C1A 7927   2.005   9.836   9.577  0.0187  0.2762  0.0721
  496loPI   C2A 7928   1.825   9.997   9.285 -0.3538  0.0106  0.0250
  496loPI   C3A 7929   1.773   9.942   8.941  0.0400 -0.0579  0.0230
  496loPI   C4A 7930   1.743   9.892   8.573  0.1190  0.1552 -0.0804
  496loPI   C5A 7931   1.972  10.069   8.207  0.1585  0.0930 -0.1969
  496loPI   C6A 7932   2.146  10.341   7.893 -0.2375  0.0730 -0.2176
  496loPI   C1B 7933   2.069   9.386   9.808  0.2956  0.1942  0.1918
  496loPI   C2B 7934   2.200   9.154   9.399  0.0806 -0.0075  0.0536
  496loPI   C3B 7935   2.309   9.227   8.962  0.1782  0.1394 -0.3848
  496loPI   C4B 7936   2.142   9.183   8.601 -0.4293  0.0948 -0.0446
  497loPI    C1 7937   6.846   7.463  10.418  0.2712 -0.2602  0.0354
  497loPI    C2 7938   6.914   7.503  10.810  0.0506 -0.2199  0.0707
  497loPI    C3 7939   6.799   7.150  10.663  0.1574 -0.2414  0.0380
  497loPI   PO4 7940   7.041   7.604  10.343 -0.3182  0.0015 -0.1752
  497loPI   GL1 7941   7.456   7.524  10.105 -0.0143  0.3595 -0.0862
  497loPI   GL2 7942   7.703   7.229  10.166 -0.0522  0.0527 -0.2709
  497loPI   C1A 7943   7.798   7.792   9.930  0.1492  0.1060  0.2403
  497loPI   C2A 7944   8.081   7.749   9.572 -0.3086 -0.1227 -0.0526
  497loPI   C3A 7945   8.001   8.029   9.240  0.2510  0.0011  0.1474
  497loPI   C4A 7946   7.840   8.181   8.922 -0.0522 -0.1387  0.1053
  497loPI   C5A 7947   7.840   8.171   8.549  0.2457  0.1618 -0.0259
  497loPI   C6A 7948   7.826   7.979   8.228  0.1591  0.1247 -0.2893
  497loPI   C1B 7949   7.724   7.281   9.718 -0.0763 -0.2553  0.0897
  497loPI   C2B 7950   7.869   7.323   9.313 -0.0184 -0.0572  0.3925
  497loPI   C3B 7951   7.878   7.585   9.018  0.0496  0.1622 -0.1535
  497loPI   C4B 7952   8.062   7.719   8.621  0.3480 -0.0732  0.0895
  498loPI    C1 7953  11.025   8.857  11.027  0.1442  0.0547  0.1455
  498loPI    C2 7954  11.283   8.687  11.281 -0.0952  0.0974  0.4223
  498loPI    C3 7955  10.909   8.766  11.399 -0.1688  0.2483  0.0986
  498loPI   PO4 7956  10.963   8.819  10.779 -0.4136  0.1727  0.1194
  498loPI   GL1 7957  10.889   9.014  10.449  0.1644 -0.2218 -0.1675
  498loPI   GL2 7958  11.066   8.755  10.308 -0.0985  0.1214  0.0332
  498loPI   C1A 7959  10.721   9.198  10.063  0.3351  0.2539  0.2745
  498loPI   C2A 7960  10.772   9.243   9.689  0.0775 -0.2549 -0.1846
  498loPI   C3A 7961  10.741   9.234   9.345  0.2120 -0.0124 -0.0283
  498loPI   C4A 7962  10.708   9.256   8.922 -0.2233  0.0474  0.0742
  498loPI   C5A 7963  10.467   9.178   8.441 -0.1760 -0.0708 -0.0992
  498loPI   C6A 7964  10.334   9.434   8.142 -0.0605 -0.0844 -0.2722
  498loPI   C1B 7965  10.951   8.716   9.914  0.2891 -0.2233  0.2108
  498loPI   C2B 7966  10.918   8.783   9.447 -0.0852  0.1453 -0.1844
  498loPI   C3B 7967  10.932   8.774   9.042  0.0634  0.0792 -0.1571
  498loPI   C4B 7968  10.900   8.794   8.657 -0.2770 -0.1287  0.0588
  499loPI    C1 7969  15.610  17.507  10.276 -0.0100  0.1757 -0.3881
  499loPI    C2 7970  15.220  17.536  10.362  0.0805  0.0153  0.1071
  499loPI    C3 7971  15.493  17.660  10.626  0.3704 -0.0114 -0.1737
  499loPI   PO4 7972  15.645  17.492  10.083 -0.0384  0.0530  0.0068
  499loPI   GL1 7973  15.490  17.761   9.780  0.0416 -0.0005  0.3280
  499loPI   GL2 7974  15.775  17.987   9.794  0.1149 -0.4764 -0.2101
  499loPI   C1A 7975  15.515  17.529   9.452  0.1449 -0.0224  0.0349
  499loPI   C2A 7976  15.623  17.497   8.983 -0.1506 -0.0993 -0.1495
  499loPI   C3A 7977  15.555  17.469   8.452  0.1781  0.3534  0.2418
  499loPI   C4A 7978  15.896  17.294   8.177  0.0083  0.0846 -0.3061
  499loPI   C5A 7979  16.070  17.624   7.934  0.0902 -0.0068 -0.1934
  499loPI   C6A 7980  16.256  18.053   8.093 -0.2367  0.0339  0.0286
  499loPI   C1B 7981  15.634  18.061   9.427 -0.3929 -0.1597  0.0387
  499loPI   C2B 7982  15.574  17.986   9.074  0.1721 -0.1464 -0.0494
  499loPI   C3B 7983  15.530  17.992   8.597 -0.2330 -0.2048  0.0986
  499loPI   C4B 7984  15.613  18.089   8.199 -0.2779  0.0054  0.3195
  500loPI    C1 7985   1.414   5.754  10.544  0.0397  0.1739  0.1009
  500loPI    C2 7986   1.016   5.756  10.506  0.0340  0.0171  0.1434
  500loPI    C3 7987   1.192   5.993  10.776 -0.0312  0.0734  0.1371
  500loPI   PO4 7988   1.486   5.636  10.340 -0.0154 -0.1773 -0.0243
  500loPI   GL1 7989   1.490   5.802   9.926 -0.0850 -0.1295  0.0586
  500loPI   GL2 7990   1.642   5.563   9.801  0.2193 -0.3222 -0.1141
  500loPI   C1A 7991   1.243   5.780   9.532 -0.0603  0.0145 -0.0310
  500loPI   C2A 7992   1.207   5.858   9.144  0.1280  0.0279 -0.1825
  500loPI   C3A 7993   1.045   5.859   8.913  0.0356  0.0256 -0.0118
  500loPI   C4A 7994   0.767   5.733   8.549  0.0801  0.0542 -0.2194
  500loPI   C5A 7995   0.624   5.752   8.249 -0.1867  0.1449  0.1798
  500loPI   C6A 7996   0.205   5.593   8.062  0.2625 -0.1408  0.0542
  500loPI   C1B 7997   1.559   5.427   9.441  0.0920  0.0007  0.1036
  500loPI   C2B 7998   1.494   5.444   9.005 -0.0909  0.1301 -0.1749
  500loPI   C3B 7999   1.198   5.357   8.638  0.0715 -0.0092  0.1778
  500loPI   C4B 8000   1.099   5.580   8.217 -0.3328  0.1385 -0.0547
  501loPI    C1 8001   9.742   1.165  10.113  0.0507  0.1778  0.0123
  501loPI    C2 8002   9.992   1.212  10.422  0.1213  0.1534 -0.0411
  501loPI    C3 8003   9.618   1.351  10.445  0.1976  0.3625 -0.0341
  501loPI   PO4 8004   9.816   1.297   9.952 -0.1697  0.2045  0.4122
  501loPI   GL1 8005   9.981   1.691   9.705 -0.2142  0.0814 -0.2544
  501loPI   GL2 8006  10.196   1.424   9.587 -0.0832 -0.1348  0.2055
  501loPI   C1A 8007   9.826   1.813   9.269 -0.2924  0.0556  0.1263
  501loPI   C2A 8008   9.785   1.613   8.908 -0.0898  0.0488 -0.0869
  501loPI   C3A 8009   9.931   1.258   8.725  0.1660  0.0168  0.0083
  501loPI   C4A 8010   9.898   0.944   8.497  0.0893  0.2332 -0.0925
  501loPI   C5A 8011  10.152   0.895   8.160  0.1142  0.2888  0.2306
  501loPI   C6A 8012  10.366   0.691   7.852 -0.1226 -0.0481 -0.2495
  501loPI   C1B 8013  10.277   1.478   9.161 -0.1553  0.2907  0.2232
  501loPI   C2B 8014  10.536   1.715   8.807 -0.3724  0.2818 -0.0759
  501loPI   C3B 8015  10.641   1.727   8.364 -0.0572 -0.0611 -0.0718
  501loPI   C4B 8016  10.304   1.732   8.113  0.2309  0.2571  0.1668
  502loPI    C1 8017   6.519   6.724  10.765  0.0383  0.0381  0.0431
  502loPI    C2 8018   6.453   6.355  10.904 -0.0640  0.0867  0.1255
  502loPI    C3 8019   6.414   6.670  11.147 -0.0388  0.1569  0.0392
  502loPI   PO4 8020   6.392   6.682  10.524 -0.0494  0.0975  0.1047
  502loPI   GL1 8021   6.341   6.631  10.079 -0.4043  0.0466 -0.0035
  502loPI   GL2 8022   6.594   6.523   9.894  0.0617 -0.0830 -0.0846
  502loPI   C1A 8023   6.378   6.914   9.693 -0.1051 -0.0298 -0.2210
  502loPI   C2A 8024   6.066   6.999   9.449 -0.0959 -0.0604 -0.0305
  502loPI   C3A 8025   5.808   7.083   9.128 -0.1589 -0.0429 -0.1243
  502loPI   C4A 8026   5.609   7.188   8.731 -0.2524  0.2822 -0.1779
  502loPI   C5A 8027   5.476   7.391   8.336  0.0044 -0.0530 -0.0589
  502loPI   C6A 8028   5.417   7.369   7.959 -0.4802  0.2179 -0.0375
  502loPI   C1B 8029   6.614   6.466   9.491 -0.2419 -0.0441 -0.1732
  502loPI   C2B 8030   6.716   6.549   9.104  0.0162  0.5289 -0.2486
  502loPI   C3B 8031   6.711   6.636   8.591 -0.0404  0.1314  0.0400
  502loPI   C4B 8032   6.731   6.706   8.180  0.1092  0.1670 -0.1644
  503loPI    C1 8033  12.974   9.158  10.778  0.0781  0.0583 -0.3022
  503loPI    C2 8034  12.971   9.003  11.147 -0.0775  0.3255 -0.1882
  503loPI    C3 8035  13.303   9.175  11.005 -0.0335  0.2705 -0.1525
  503loPI   PO4 8036  12.778   9.042  10.707  0.0396  0.0724 -0.0512
  503loPI   GL1 8037  12.544   8.930  10.417  0.0498  0.0528  0.0759
  503loPI   GL2 8038  12.856   8.681  10.326 -0.1395  0.0377 -0.1216
  503loPI   C1A 8039  12.461   8.777   9.939 -0.0625  0.1065  0.1900
  503loPI   C2A 8040  12.507   8.738   9.464  0.0356 -0.1375 -0.4172
  503loPI   C3A 8041  12.504   8.721   9.049 -0.0022  0.1558  0.0481
  503loPI   C4A 8042  12.453   8.581   8.617 -0.1080 -0.0605 -0.0205
  503loPI   C5A 8043  12.551   8.634   8.225 -0.0683  0.1233 -0.0067
  503loPI   C6A 8044  12.469   8.736   7.806  0.2105  0.2364  0.0750
  503loPI   C1B 8045  13.016   8.732   9.852  0.1178  0.3217 -0.1385
  503loPI   C2B 8046  13.035   8.685   9.418 -0.1841 -0.2543 -0.0995
  503loPI   C3B 8047  13.021   8.537   8.938 -0.0612 -0.4054  0.1699
  503loPI   C4B 8048  12.943   8.578   8.552 -0.0562  0.1021  0.1275
  504loPI    C1 8049   6.531   8.206  10.393  0.0793  0.1262  0.3628
  504loPI    C2 8050   6.801   8.000  10.182 -0.2298  0.0038  0.0796
  504loPI    C3 8051   6.771   7.943  10.577  0.3806  0.2635  0.1747
  504loPI   PO4 8052   6.509   8.474  10.275 -0.1292  0.1081 -0.0824
  504loPI   GL1 8053   6.394   8.374   9.867 -0.0738 -0.0848  0.1570
  504loPI   GL2 8054   6.467   8.116   9.890  0.0735 -0.1425 -0.0640
  504loPI   C1A 8055   6.448   8.283   9.418 -0.2091 -0.3139  0.1425
  504loPI   C2A 8056   6.622   8.111   9.078  0.0306 -0.3343 -0.0879
  504loPI   C3A 8057   6.577   8.129   8.640 -0.0346  0.0505  0.2793
  504loPI   C4A 8058   6.727   8.373   8.296  0.0601 -0.0334  0.3218
  504loPI   C5A 8059   6.333   8.508   8.111  0.2934  0.0910  0.1564
  504loPI   C6A 8060   6.035   8.525   7.671  0.1360  0.1360 -0.0030
  504loPI   C1B 8061   6.827   8.125   9.655  0.0618 -0.0734  0.3514
  504loPI   C2B 8062   7.027   7.847   9.348  0.0400  0.3130  0.1588
  504loPI   C3B 8063   6.901   7.791   8.894  0.2568  0.0764 -0.0100
  504loPI   C4B 8064   6.888   7.742   8.510  0.0156  0.0053  0.0546
  505loPI    C1 8065  16.596  16.499  10.201  0.0726 -0.1037  0.0895
  505loPI    C2 8066  16.217  16.437  10.310  0.0259  0.3131  0.1802
  505loPI    C3 8067  16.320  16.781  10.133  0.3451  0.1643  0.0702
  505loPI   PO4 8068  16.696  16.326  10.066  0.1542  0.1137 -0.1844
  505loPI   GL1 8069  16.825  16.181   9.699 -0.0275 -0.0776 -0.0051
  505loPI   GL2 8070  16.571  15.928   9.672 -0.0539 -0.2132 -0.2363
  505loPI   C1A 8071  16.698  16.433   9.373 -0.2605  0.3639 -0.1771
  505loPI   C2A 8072  16.734  16.764   9.073 -0.2529 -0.0310 -0.2534
  505loPI   C3A 8073  16.619  16.696   8.664  0.0216  0.1796 -0.0741
  505loPI   C4A 8074  16.348  16.546   8.339 -0.2377 -0.0605 -0.1660
  505loPI   C5A 8075  16.341  16.234   7.983 -0.1259 -0.0438 -0.0432
  505loPI   C6A 8076  16.567  15.989   7.646  0.1207  0.1157  0.0085
  505loPI   C1B 8077  16.621  15.931   9.248 -0.0935  0.0949 -0.1679
  505loPI   C2B 8078  16.672  16.156   8.891  0.0516 -0.1020  0.1596
  505loPI   C3B 8079  16.345  16.088   8.482 -0.0794 -0.1261  0.5079
  505loPI   C4B 8080  15.960  16.159   8.306 -0.0627 -0.3147 -0.0550
  506loPI    C1 8081  16.260  12.094  10.655  0.1073 -0.0120  0.1269
  506loPI    C2 8082  16.055  11.880  10.924 -0.1187  0.0906  0.0379
  506loPI    C3 8083  16.057  12.280  10.946  0.1599  0.0874  0.1006
  506loPI   PO4 8084  16.295  11.964  10.460  0.0673 -0.0128 -0.2113
  506loPI   GL1 8085  16.358  11.826  10.128  0.0918  0.2434  0.1935
  506loPI   GL2 8086  16.498  12.173  10.106  0.2579  0.1435 -0.3437
  506loPI   C1A 8087  16.439  11.585   9.808 -0.2188  0.1471 -0.3658
  506loPI   C2A 8088  16.447  11.394   9.452 -0.0012  0.0842 -0.0954
  506loPI   C3A 8089  16.715  11.308   9.133  0.3095  0.0379 -0.0808
  506loPI   C4A 8090  16.970  11.349   8.704 -0.1285 -0.1337  0.2093
  506loPI   C5A 8091  16.944  11.341   8.252  0.2013  0.2712  0.0367
  506loPI   C6A 8092  16.779  11.140   7.910  0.0586  0.1485  0.0539
  506loPI   C1B 8093  16.360  12.115   9.634 -0.2805  0.0349 -0.2046
  506loPI   C2B 8094  16.133  12.158   9.235 -0.0857 -0.0625  0.0061
  506loPI   C3B 8095  16.102  11.977   8.919  0.0004  0.2403  0.0697
  506loPI   C4B 8096  16.014  11.650   8.589 -0.0613  0.0179  0.1415
  507loPI    C1 8097   1.432   8.694  10.752  0.0348 -0.1090 -0.0894
  507loPI    C2 8098   1.196   9.017  10.751  0.2254  0.0336  0.0745
  507loPI    C3 8099   1.170   8.751  11.049  0.0746 -0.0997 -0.0560
  507loPI   PO4 8100   1.484   8.612  10.553 -0.2266  0.0423  0.1961
  507loPI   GL1 8101   1.302   8.768  10.199  0.0618  0.0612 -0.0891
  507loPI   GL2 8102   0.968   8.822  10.035 -0.0217 -0.1828 -0.2559
  507loPI   C1A 8103   1.533   8.820   9.855 -0.0488 -0.0667 -0.4479
  507loPI   C2A 8104   1.679   9.013   9.532 -0.0277  0.0011 -0.3662
  507loPI   C3A 8105   1.740   9.345   9.273  0.1250  0.2058 -0.0654
  507loPI   C4A 8106   1.773   9.420   8.847 -0.1994 -0.1573 -0.0526
  507loPI   C5A 8107   1.611   9.290   8.480  0.1925 -0.1384  0.3718
  507loPI   C6A 8108   1.437   9.164   8.160  0.0742 -0.1173 -0.0702
  507loPI   C1B 8109   1.041   8.821   9.575 -0.0560  0.2344 -0.2488
  507loPI   C2B 8110   1.286   8.702   9.241  0.1795 -0.2051  0.2293
  507loPI   C3B 8111   1.300   8.505   8.843  0.0156 -0.2521  0.0499
  507loPI   C4B 8112   1.350   8.251   8.491 -0.0007  0.1508 -0.0045
  508loPI    C1 8113   3.002  13.585  10.563 -0.1195  0.1563  0.1801
  508loPI    C2 8114   3.023  13.925  10.773  0.0831  0.1050  0.2453
  508loPI    C3 8115   3.192  13.592  10.915 -0.1353 -0.0300  0.1934
  508loPI   PO4 8116   3.024  13.669  10.346  0.0609  0.1091  0.1213
  508loPI   GL1 8117   2.925  13.917   9.957 -0.1779  0.0431  0.2396
  508loPI   GL2 8118   2.783  14.200   9.900 -0.0012 -0.0307  0.1877
  508loPI   C1A 8119   3.010  13.857   9.525 -0.1340  0.0572  0.1075
  508loPI   C2A 8120   2.991  13.852   9.121  0.3911 -0.3272 -0.3373
  508loPI   C3A 8121   2.965  13.703   8.778  0.1721  0.1473  0.0678
  508loPI   C4A 8122   3.060  13.806   8.346  0.1230  0.0472  0.1765
  508loPI   C5A 8123   3.084  13.645   7.974  0.1465 -0.1948 -0.3312
  508loPI   C6A 8124   2.615  13.708   7.735  0.0086  0.1744 -0.1584
  508loPI   C1B 8125   2.888  14.351   9.494 -0.1750  0.0899 -0.1338
  508loPI   C2B 8126   2.849  14.357   9.077  0.0602  0.2391  0.2436
  508loPI   C3B 8127   2.924  14.311   8.654 -0.1419  0.0110  0.1377
  508loPI   C4B 8128   2.971  14.211   8.204  0.1169 -0.1771  0.0678
  509loPI    C1 8129  11.938   1.057  10.774 -0.0292 -0.0519 -0.0966
  509loPI    C2 8130  11.617   0.844  10.665 -0.0090 -0.1155 -0.0320
  509loPI    C3 8131  11.957   0.658  10.766  0.0492 -0.0482 -0.1024
  509loPI   PO4 8132  11.956   1.252  10.559 -0.2362 -0.0658 -0.0015
  509loPI   GL1 8133  12.029   1.156  10.093  0.0038 -0.0706  0.2389
  509loPI   GL2 8134  12.001   0.896  10.204 -0.0402  0.1168 -0.4180
  509loPI   C1A 8135  11.925   1.176   9.603 -0.1614 -0.0226  0.0532
  509loPI   C2A 8136  11.880   1.163   9.198  0.0412  0.0267  0.2170
  509loPI   C3A 8137  11.771   1.168   8.808 -0.1261 -0.2298  0.0939
  509loPI   C4A 8138  11.548   1.137   8.446 -0.1574 -0.1141  0.0358
  509loPI   C5A 8139  11.375   1.143   8.098  0.1689 -0.2612  0.0569
  509loPI   C6A 8140  11.130   1.262   7.829  0.0668 -0.2838  0.1553
  509loPI   C1B 8141  12.093   0.733   9.790  0.0555 -0.0058  0.1245
  509loPI   C2B 8142  12.235   0.729   9.308  0.1694 -0.1968 -0.0982
  509loPI   C3B 8143  12.376   0.684   8.864  0.0134 -0.4391  0.0652
  509loPI   C4B 8144  12.534   0.626   8.484 -0.0797  0.3763 -0.0116
  510loPI    C1 8145   3.590   1.429  10.410  0.1117  0.0082 -0.0219
  510loPI    C2 8146   3.211   1.542  10.350  0.1277  0.0291 -0.0839
  510loPI    C3 8147   3.373   1.573  10.714  0.1371  0.2215 -0.1033
  510loPI   PO4 8148   3.617   1.236  10.113 -0.0205 -0.0433 -0.0693
  510loPI   GL1 8149   3.402   1.397   9.822 -0.0809  0.2355 -0.0084
  510loPI   GL2 8150   3.024   1.325   9.830  0.0089 -0.0418  0.0216
  510loPI   C1A 8151   3.510   1.449   9.365  0.1497 -0.0913 -0.1223
  510loPI   C2A 8152   3.534   1.346   8.918  0.3179  0.0206  0.3211
  510loPI   C3A 8153   3.555   1.497   8.507 -0.3143  0.0593  0.1576
  510loPI   C4A 8154   3.575   1.520   8.128  0.0847  0.0321  0.0428
  510loPI   C5A 8155   3.511   1.405   7.768 -0.0076  0.1792  0.0113
  510loPI   C6A 8156   3.310   1.002   7.678 -0.2292 -0.2635 -0.1670
  510loPI   C1B 8157   3.027   1.208   9.419 -0.0646 -0.1214  0.0701
  510loPI   C2B 8158   3.061   1.189   9.022 -0.3201  0.2941  0.0306
  510loPI   C3B 8159   3.116   1.267   8.613  0.0983  0.2215 -0.1473
  510loPI   C4B 8160   3.115   1.332   8.173 -0.0225 -0.0089  0.0237
  511loPI    C1 8161  10.041   7.404  11.284 -0.1414 -0.2731 -0.0815
  511loPI    C2 8162  10.180   7.029  11.271  0.1269 -0.1797  0.0315
  511loPI    C3 8163  10.062   7.187  11.619  0.3889 -0.0278  0.0537
  511loPI   PO4 8164  10.141   7.518  10.999 -0.1610  0.1795 -0.1179
  511loPI   GL1 8165  10.107   7.783  10.547  0.0459 -0.0002 -0.2220
  511loPI   GL2 8166   9.925   7.947  10.317 -0.3546  0.5172  0.0395
  511loPI   C1A 8167  10.028   7.493  10.177 -0.2906  0.0170 -0.0917
  511loPI   C2A 8168  10.016   7.491   9.824 -0.1018  0.0643  0.2400
  511loPI   C3A 8169  10.094   7.521   9.417 -0.1405  0.2016 -0.2205
  511loPI   C4A 8170  10.069   7.462   9.008 -0.1369  0.1240 -0.1929
  511loPI   C5A 8171  10.075   7.503   8.574  0.3586 -0.0512 -0.0003
  511loPI   C6A 8172   9.998   7.447   8.182 -0.0509 -0.1916  0.0072
  511loPI   C1B 8173   9.817   7.953   9.880 -0.0959 -0.1341  0.2035
  511loPI   C2B 8174   9.869   7.989   9.473 -0.0899 -0.0490  0.0930
  511loPI   C3B 8175   9.856   7.931   9.020 -0.0204  0.1937 -0.0931
  511loPI   C4B 8176   9.815   8.048   8.591  0.1928 -0.0439  0.0215
  512loPI    C1 8177   4.064  10.249  10.376  0.1510  0.1791  0.1270
  512loPI    C2 8178   4.275  10.115  10.689 -0.0956 -0.2877  0.1023
  512loPI    C3 8179   3.936  10.320  10.748  0.2273  0.2563  0.1390
  512loPI   PO4 8180   4.150  10.001  10.238 -0.0081 -0.0389 -0.1890
  512loPI   GL1 8181   4.299   9.833   9.825  0.0929  0.1424  0.1448
  512loPI   GL2 8182   4.552   9.788   9.520  0.1639 -0.0646 -0.0882
  512loPI   C1A 8183   4.015   9.906   9.358  0.0977 -0.2239  0.2744
  512loPI   C2A 8184   3.867   9.734   9.016  0.0229 -0.0372  0.0574
  512loPI   C3A 8185   4.055   9.626   8.734  0.1837  0.1152  0.0826
  512loPI   C4A 8186   4.121   9.624   8.271  0.4818  0.0202 -0.0793
  512loPI   C5A 8187   4.164   9.583   7.802  0.1805 -0.2363  0.0849
  512loPI   C6A 8188   4.111   9.725   7.427 -0.0204 -0.1300  0.1889
  512loPI   C1B 8189   4.357   9.626   9.087 -0.0499 -0.0293 -0.0795
  512loPI   C2B 8190   4.471   9.394   8.792  0.0923 -0.1198 -0.1675
  512loPI   C3B 8191   4.604   9.664   8.414  0.0403  0.0353 -0.0830
  512loPI   C4B 8192   4.601   9.722   7.910 -0.0590  0.3485  0.1194
  513loPI    C1 8193   6.583   5.915  10.772 -0.0425  0.0395  0.1663
  513loPI    C2 8194   6.798   6.067  11.073 -0.0632  0.1372  0.1321
  513loPI    C3 8195   6.467   5.856  11.150  0.0585 -0.0372  0.1859
  513loPI   PO4 8196   6.697   5.840  10.542  0.1017  0.2896 -0.2251
  513loPI   GL1 8197   6.861   5.612  10.210  0.1225 -0.0668  0.0413
  513loPI   GL2 8198   6.835   5.872  10.007  0.1659 -0.4638 -0.1396
  513loPI   C1A 8199   7.044   5.460   9.761  0.1792  0.1132  0.0426
  513loPI   C2A 8200   7.099   5.547   9.277  0.0268 -0.0515 -0.0687
  513loPI   C3A 8201   7.055   5.521   8.885 -0.0977  0.1696 -0.0185
  513loPI   C4A 8202   7.029   5.772   8.480  0.0292  0.0971  0.1956
  513loPI   C5A 8203   6.989   6.111   8.180  0.1713 -0.1290  0.1110
  513loPI   C6A 8204   7.312   6.355   8.037  0.3653  0.0529  0.0389
  513loPI   C1B 8205   6.880   5.890   9.592  0.2749 -0.3484  0.0555
  513loPI   C2B 8206   6.822   5.995   9.135  0.2455 -0.3697 -0.0245
  513loPI   C3B 8207   6.746   6.196   8.804 -0.0809  0.0004  0.2041
  513loPI   C4B 8208   6.458   6.251   8.446 -0.1316  0.2158  0.4612
  514loPI    C1 8209   8.103   4.385  10.756  0.0463 -0.1190  0.0184
  514loPI    C2 8210   8.013   4.033  10.922 -0.2163 -0.0030  0.1279
  514loPI    C3 8211   8.234   4.297  11.124  0.1928 -0.1993 -0.0523
  514loPI   PO4 8212   8.102   4.297  10.520 -0.2744 -0.1595  0.1272
  514loPI   GL1 8213   7.906   4.573  10.181 -0.0696  0.0723  0.0872
  514loPI   GL2 8214   7.852   4.878  10.190 -0.0925  0.1162  0.0497
  514loPI   C1A 8215   7.911   4.493   9.743 -0.1419  0.0364  0.0534
  514loPI   C2A 8216   8.010   4.471   9.303  0.0316  0.1477 -0.1748
  514loPI   C3A 8217   7.868   4.544   8.939 -0.2916 -0.0226 -0.1039
  514loPI   C4A 8218   8.017   4.596   8.477  0.2403 -0.0428  0.0277
  514loPI   C5A 8219   7.881   4.720   8.086 -0.1630 -0.0252 -0.1116
  514loPI   C6A 8220   8.181   4.833   7.666  0.2230 -0.2052 -0.1448
  514loPI   C1B 8221   7.722   4.950   9.744  0.0511 -0.2374 -0.2330
  514loPI   C2B 8222   7.733   4.912   9.268  0.3454 -0.3966  0.1726
  514loPI   C3B 8223   7.767   4.976   8.772 -0.0267  0.2520 -0.1748
  514loPI   C4B 8224   7.856   5.063   8.449  0.1387  0.1524 -0.0589
  515loPI    C1 8225  12.030   1.824  10.709  0.0806  0.0070 -0.0029
  515loPI    C2 8226  12.002   2.212  10.804  0.2574  0.0002  0.0817
  515loPI    C3 8227  11.864   1.933  11.056 -0.0569  0.0135 -0.0700
  515loPI   PO4 8228  12.279   1.831  10.579 -0.1769  0.0940 -0.1733
  515loPI   GL1 8229  12.363   1.592  10.288  0.1010 -0.1306  0.1097
  515loPI   GL2 8230  12.601   1.855  10.142 -0.2852  0.1245 -0.1465
  515loPI   C1A 8231  12.238   1.574   9.795  0.1673 -0.0407 -0.0281
  515loPI   C2A 8232  11.994   1.626   9.348 -0.0735 -0.2813 -0.0928
  515loPI   C3A 8233  11.990   1.593   8.948 -0.2264 -0.2754  0.1205
  515loPI   C4A 8234  11.939   1.540   8.519 -0.1054  0.3798  0.0578
  515loPI   C5A 8235  11.979   1.256   8.257 -0.0236  0.1217 -0.0253
  515loPI   C6A 8236  11.817   1.186   7.865  0.2050 -0.1972 -0.4759
  515loPI   C1B 8237  12.615   1.934   9.691  0.0402  0.2746 -0.0991
  515loPI   C2B 8238  12.746   1.956   9.311 -0.0235 -0.0390 -0.0474
  515loPI   C3B 8239  12.725   2.080   8.882  0.0417 -0.0380  0.2200
  515loPI   C4B 8240  12.770   2.047   8.438  0.0171 -0.1446  0.0430
  516loPI    C1 8241   7.981   3.339  10.409 -0.1813 -0.2091  0.0749
  516loPI    C2 8242   8.263   3.380  10.690 -0.1689  0.0520  0.0270
  516loPI    C3 8243   7.897   3.530  10.750 -0.2361 -0.0987  0.0002
  516loPI   PO4 8244   8.113   3.406  10.176 -0.2082  0.2594 -0.1730
  516loPI   GL1 8245   8.256   3.514   9.800 -0.0861 -0.1879  0.2069
  516loPI   GL2 8246   8.630   3.451   9.800 -0.0943 -0.0351  0.0125
  516loPI   C1A 8247   8.367   3.523   9.381  0.0669 -0.0149  0.1961
  516loPI   C2A 8248   8.420   3.648   8.875  0.2326 -0.2841 -0.2863
  516loPI   C3A 8249   8.454   3.619   8.452  0.4506  0.2047  0.0526
  516loPI   C4A 8250   8.414   3.711   7.981 -0.1112 -0.0169 -0.1469
  516loPI   C5A 8251   8.210   3.461   7.745  0.3804 -0.1447  0.0011
  516loPI   C6A 8252   8.106   3.580   7.404 -0.2529  0.1753 -0.2957
  516loPI   C1B 8253   8.878   3.494   9.465  0.0207  0.1969  0.0538
  516loPI   C2B 8254   8.922   3.564   9.007 -0.0434 -0.0465 -0.0039
  516loPI   C3B 8255   8.926   3.578   8.621  0.0336  0.2792 -0.1968
  516loPI   C4B 8256   8.906   3.612   8.129  0.2601 -0.0360 -0.1357
  517loPI    C1 8257   3.225  10.210  10.588  0.1457 -0.0758  0.1785
  517loPI    C2 8258   3.004  10.058  10.885 -0.1272  0.1312  0.0849
  517loPI    C3 8259   3.161  10.425  10.919 -0.1626  0.1571 -0.0270
  517loPI   PO4 8260   3.077  10.190  10.346 -0.0206 -0.3033 -0.1366
  517loPI   GL1 8261   2.792  10.452  10.139  0.1454  0.0624  0.3429
  517loPI   GL2 8262   3.112  10.519   9.966 -0.0631  0.2879  0.4271
  517loPI   C1A 8263   2.678  10.610   9.739 -0.0459  0.1338 -0.2051
  517loPI   C2A 8264   2.608  10.618   9.388  0.1174 -0.2239  0.2401
  517loPI   C3A 8265   2.608  10.617   8.923  0.1514  0.0495  0.1238
  517loPI   C4A 8266   2.796  10.743   8.561 -0.0037  0.0382  0.1345
  517loPI   C5A 8267   3.135  10.755   8.408  0.0515 -0.1033  0.1178
  517loPI   C6A 8268   3.498  10.661   8.155  0.0036  0.2425 -0.3984
  517loPI   C1B 8269   3.028  10.229   9.647 -0.1666  0.0573 -0.0023
  517loPI   C2B 8270   3.063  10.289   9.161 -0.0633 -0.2127 -0.0526
  517loPI   C3B 8271   2.971  10.324   8.729 -0.1104  0.1054  0.0906
  517loPI   C4B 8272   2.929  10.256   8.296  0.0377  0.2332  0.0521
  518loPI    C1 8273   7.399  17.466  10.035 -0.1035  0.1075 -0.0591
  518loPI    C2 8274   7.337  17.405  10.426 -0.2120  0.2443 -0.0541
  518loPI    C3 8275   7.299  17.102  10.168 -0.0734  0.1380  0.0488
  518loPI   PO4 8276   7.692  17.681  10.013  0.2680 -0.3031  0.0663
  518loPI   GL1 8277   7.925  17.728   9.702  0.1792  0.0665 -0.3550
  518loPI   GL2 8278   8.180  17.613   9.461 -0.1533  0.0570 -0.1181
  518loPI   C1A 8279   7.738  17.762   9.233 -0.1475 -0.0826  0.2718
  518loPI   C2A 8280   7.727  17.747   8.800  0.0573  0.1279 -0.0499
  518loPI   C3A 8281   7.593  17.578   8.413  0.0293 -0.1595 -0.0292
  518loPI   C4A 8282   7.642  17.736   7.968  0.0665  0.2164 -0.0425
  518loPI   C5A 8283   7.858  17.957   7.668 -0.4883 -0.2068 -0.0127
  518loPI   C6A 8284   8.226  18.165   7.453 -0.1179 -0.0823  0.0547
  518loPI   C1B 8285   8.128  17.310   9.117 -0.1258 -0.0421 -0.2000
  518loPI   C2B 8286   8.030  16.904   8.974 -0.2069 -0.1889  0.0815
  518loPI   C3B 8287   8.147  16.612   8.675 -0.0920 -0.0835 -0.0163
  518loPI   C4B 8288   8.218  16.529   8.240 -0.1776 -0.0156  0.1669
  519loPI    C1 8289   4.032   2.637  10.679 -0.1376  0.1058  0.0658
  519loPI    C2 8290   3.706   2.405  10.696  0.0544 -0.1700  0.0540
  519loPI    C3 8291   3.803   2.636  11.008 -0.1740 -0.0537  0.0411
  519loPI   PO4 8292   4.038   2.659  10.405  0.1751 -0.0940 -0.4011
  519loPI   GL1 8293   3.980   2.836   9.990  0.0201  0.1132 -0.1091
  519loPI   GL2 8294   3.784   2.983   9.859 -0.2670 -0.0598  0.0870
  519loPI   C1A 8295   4.183   2.737   9.548 -0.2804  0.2316 -0.1526
  519loPI   C2A 8296   4.156   2.568   9.199  0.0082  0.0763 -0.2336
  519loPI   C3A 8297   4.171   2.546   8.787  0.1545 -0.2312 -0.1404
  519loPI   C4A 8298   4.185   2.664   8.323 -0.0283  0.2203  0.4018
  519loPI   C5A 8299   4.516   2.712   8.062  0.1364 -0.1708 -0.0135
  519loPI   C6A 8300   4.518   2.876   7.708 -0.0309  0.3227  0.2730
  519loPI   C1B 8301   3.789   3.056   9.449 -0.3227  0.0806  0.0828
  519loPI   C2B 8302   3.818   2.929   8.951 -0.1173  0.1348  0.1377
  519loPI   C3B 8303   3.924   3.033   8.437 -0.0769 -0.0466  0.0530
  519loPI   C4B 8304   4.022   2.930   7.925  0.1006  0.4307  0.1968
  520loPI    C1 8305   5.219  13.618  10.491 -0.2030 -0.1968 -0.0152
  520loPI    C2 8306   5.475  13.414  10.721  0.0096 -0.0242 -0.0955
  520loPI    C3 8307   5.094  13.454  10.834  0.0211 -0.2657  0.0355
  520loPI   PO4 8308   5.267  13.583  10.171  0.0906  0.1312 -0.0733
  520loPI   GL1 8309   5.545  13.592   9.886 -0.1300  0.1652  0.1622
  520loPI   GL2 8310   5.617  13.792   9.693  0.1699  0.0776  0.0256
  520loPI   C1A 8311   5.433  13.447   9.390  0.0635  0.1757 -0.2925
  520loPI   C2A 8312   5.403  13.411   8.987  0.0909  0.2956  0.1734
  520loPI   C3A 8313   5.319  13.426   8.555 -0.1398 -0.0432  0.0219
  520loPI   C4A 8314   5.377  13.324   8.114 -0.0386  0.2183 -0.1910
  520loPI   C5A 8315   5.668  13.305   7.762  0.4608 -0.0852  0.1164
  520loPI   C6A 8316   6.071  13.168   7.512 -0.0700 -0.1461 -0.1557
  520loPI   C1B 8317   5.800  13.811   9.220  0.3129  0.1084  0.0363
  520loPI   C2B 8318   5.691  13.824   8.797  0.3666  0.1695  0.2349
  520loPI   C3B 8319   5.755  13.889   8.424 -0.1623 -0.2524 -0.2312
  520loPI   C4B 8320   5.810  13.662   8.120  0.0520 -0.1804  0.1612
  521loPI    C1 8321  17.485   0.247  10.901  0.0865 -0.0118 -0.0227
  521loPI    C2 8322  17.583   0.634  10.907 -0.1535  0.0550 -0.2447
  521loPI    C3 8323  17.359   0.480  11.200 -0.1188  0.1004 -0.1942
  521loPI   PO4 8324  17.377   0.206  10.618  0.1193  0.1633  0.1047
  521loPI   GL1 8325  17.296   0.315  10.144  0.2302  0.1935  0.3311
  521loPI   GL2 8326  17.602   0.335  10.001  0.2009  0.0368 -0.2054
  521loPI   C1A 8327  17.149   0.285   9.796 -0.1722  0.0554 -0.0065
  521loPI   C2A 8328  17.268  -0.103   9.602 -0.1126 -0.0067  0.2894
  521loPI   C3A 8329  17.238  -0.349   9.186  0.0139  0.1370 -0.0018
  521loPI   C4A 8330  17.371  -0.458   8.745 -0.2986  0.1609 -0.0377
  521loPI   C5A 8331  17.131  -0.457   8.401  0.0561 -0.1848  0.3019
  521loPI   C6A 8332  17.219  -0.525   7.996 -0.2418  0.2044 -0.0646
  521loPI   C1B 8333  17.682   0.094   9.565 -0.6589 -0.1043  0.0794
  521loPI   C2B 8334  17.698  -0.090   9.157 -0.1069 -0.2674  0.1125
  521loPI   C3B 8335  17.779  -0.043   8.770  0.2013  0.0465 -0.1112
  521loPI   C4B 8336  17.650  -0.077   8.451  0.0884  0.0134  0.2655
  522loPI    C1 8337  17.701   2.643  10.489  0.1120  0.0710 -0.0293
  522loPI    C2 8338  17.466   2.795  10.776 -0.0831  0.1585 -0.2322
  522loPI    C3 8339  17.699   2.479  10.854 -0.0876  0.2201  0.0385
  522loPI   PO4 8340  17.807   2.867  10.353  0.0179  0.2933  0.0150
  522loPI   GL1 8341  17.672   3.061   9.985 -0.3017  0.0675  0.2201
  522loPI   GL2 8342  17.589   3.395  10.018  0.1143  0.0976 -0.0145
  522loPI   C1A 8343  17.458   2.784   9.606  0.0576 -0.2045  0.1309
  522loPI   C2A 8344  17.331   2.733   9.123  0.0802  0.1014 -0.1186
  522loPI   C3A 8345  16.820   2.735   8.944 -0.3332 -0.2382  0.1557
  522loPI   C4A 8346  16.676   2.533   8.588 -0.2643 -0.0939 -0.2533
  522loPI   C5A 8347  16.533   2.629   8.214  0.2337 -0.1352  0.4018
  522loPI   C6A 8348  16.596   2.906   7.882  0.1499  0.2559  0.0429
  522loPI   C1B 8349  17.834   3.168   9.511 -0.3896 -0.0473  0.1472
  522loPI   C2B 8350  17.961   3.258   9.132 -0.2014 -0.0251  0.2186
  522loPI   C3B 8351  18.113   3.556   8.880 -0.1383  0.1753 -0.4643
  522loPI   C4B 8352  18.097   3.756   8.412  0.0524 -0.0925 -0.1134
  523loPI    C1 8353  12.021   4.073  10.963  0.0098  0.1281  0.1734
  523loPI    C2 8354  12.090   4.014  11.353 -0.1431  0.0067  0.1835
  523loPI    C3 8355  11.802   4.265  11.237  0.0004  0.1561  0.1462
  523loPI   PO4 8356  12.033   3.868  10.853 -0.1757  0.0304  0.0240
  523loPI   GL1 8357  11.989   3.639  10.486 -0.2894 -0.0436  0.1058
  523loPI   GL2 8358  12.228   3.697  10.204  0.0559  0.1978 -0.0627
  523loPI   C1A 8359  11.775   3.762   9.995 -0.0599 -0.0621  0.0257
  523loPI   C2A 8360  11.791   3.863   9.569  0.1173  0.0631 -0.0362
  523loPI   C3A 8361  11.820   3.849   9.121 -0.2471  0.0767  0.2036
  523loPI   C4A 8362  11.811   3.874   8.744 -0.0489 -0.2760  0.1155
  523loPI   C5A 8363  11.785   3.880   8.299 -0.2152 -0.2159  0.1556
  523loPI   C6A 8364  11.964   3.732   7.962  0.0482  0.0643 -0.0875
  523loPI   C1B 8365  12.334   3.746   9.783  0.0248  0.0369 -0.1800
  523loPI   C2B 8366  12.295   3.881   9.420 -0.2571  0.2977  0.1605
  523loPI   C3B 8367  12.352   3.800   8.970  0.2276 -0.2324 -0.1898
  523loPI   C4B 8368  12.319   3.821   8.492  0.0863  0.2589  0.0041
  524loPI    C1 8369  15.295   3.593  10.841  0.1436  0.0049 -0.2071
  524loPI    C2 8370  14.953   3.765  10.956  0.1018 -0.2153  0.0070
  524loPI    C3 8371  15.303   3.915  11.078  0.0784 -0.0755 -0.0949
  524loPI   PO4 8372  15.266   3.449  10.589  0.2550  0.1583  0.0922
  524loPI   GL1 8373  15.035   3.502  10.163 -0.0515  0.2745 -0.1544
  524loPI   GL2 8374  15.123   3.265   9.928 -0.1755 -0.1034 -0.1840
  524loPI   C1A 8375  14.928   3.653   9.781 -0.0925 -0.0831 -0.1037
  524loPI   C2A 8376  14.878   3.614   9.386 -0.2147  0.2232 -0.0265
  524loPI   C3A 8377  14.836   3.572   8.949  0.2660  0.0487 -0.2468
  524loPI   C4A 8378  14.917   3.425   8.518 -0.1828  0.1813 -0.0133
  524loPI   C5A 8379  15.338   3.248   8.291  0.4340 -0.2252  0.2143
  524loPI   C6A 8380  15.796   3.340   8.286  0.1596  0.0307  0.0025
  524loPI   C1B 8381  15.136   3.143   9.419  0.2198 -0.2152  0.1063
  524loPI   C2B 8382  15.077   3.125   8.918 -0.1059  0.2542  0.0385
  524loPI   C3B 8383  15.028   2.915   8.510  0.1787  0.0025  0.1566
  524loPI   C4B 8384  15.002   2.910   8.095  0.0483 -0.0125 -0.1464
  525loPI    C1 8385   0.331   6.888  10.810  0.2419 -0.1187  0.0020
  525loPI    C2 8386   0.408   7.127  11.121  0.0580  0.1098 -0.1248
  525loPI    C3 8387   0.570   6.762  11.104 -0.0119  0.0556  0.2883
  525loPI   PO4 8388   0.332   7.039  10.610  0.2792  0.1010 -0.1072
  525loPI   GL1 8389   0.288   7.259  10.146 -0.2594  0.3918  0.2132
  525loPI   GL2 8390   0.605   7.489   9.995 -0.0941  0.2089 -0.2829
  525loPI   C1A 8391   0.208   7.036   9.808  0.2876 -0.2986 -0.0543
  525loPI   C2A 8392  -0.091   7.131   9.490 -0.4441  0.0049  0.3598
  525loPI   C3A 8393  -0.232   7.302   9.049 -0.0931 -0.3644  0.0573
  525loPI   C4A 8394  -0.156   7.478   8.592 -0.1191 -0.3940 -0.0661
  525loPI   C5A 8395   0.093   7.498   8.109  0.2129 -0.3055  0.1637
  525loPI   C6A 8396   0.276   7.669   7.681  0.1111  0.0870 -0.3363
  525loPI   C1B 8397   0.462   7.773   9.827 -0.2771 -0.0230 -0.1480
  525loPI   C2B 8398   0.682   7.829   9.434 -0.0159 -0.3189 -0.1816
  525loPI   C3B 8399   0.660   7.719   9.042 -0.0134 -0.1481  0.0396
  525loPI   C4B 8400   1.011   7.595   8.791  0.2433 -0.1460  0.0847
  526loPI    C1 8401   3.705   9.696  10.201  0.1826 -0.1212  0.1675
  526loPI    C2 8402   3.400   9.761  10.450  0.0380  0.1815 -0.0822
  526loPI    C3 8403   3.769   9.877  10.552 -0.0172  0.2889 -0.0013
  526loPI   PO4 8404   3.608   9.444  10.066  0.4291 -0.0091 -0.1857
  526loPI   GL1 8405   3.452   9.180   9.688  0.0673 -0.1919  0.0540
  526loPI   GL2 8406   3.495   9.519   9.585 -0.0250  0.1791  0.1139
  526loPI   C1A 8407   3.498   8.950   9.333 -0.1420 -0.0062 -0.0897
  526loPI   C2A 8408   3.393   8.959   8.927  0.0779  0.1311 -0.2712
  526loPI   C3A 8409   3.177   8.953   8.599 -0.2765  0.2589 -0.0442
  526loPI   C4A 8410   3.007   9.070   8.351  0.0952  0.3521 -0.3694
  526loPI   C5A 8411   2.954   9.216   8.047 -0.1009  0.1807 -0.0841
  526loPI   C6A 8412   2.691   9.148   7.647 -0.0539 -0.0452  0.2272
  526loPI   C1B 8413   3.399   9.472   9.145  0.1056 -0.1286  0.1920
  526loPI   C2B 8414   3.280   9.451   8.733  0.0630  0.0927  0.0927
  526loPI   C3B 8415   3.391   9.544   8.284  0.2563 -0.1004 -0.0870
  526loPI   C4B 8416   3.736   9.427   7.986 -0.0260  0.0445  0.0275
  527loPI    C1 8417  13.067  16.895  10.483  0.3283 -0.2154 -0.1299
  527loPI    C2 8418  13.274  17.233  10.541 -0.0764  0.0305 -0.0822
  527loPI    C3 8419  13.095  17.051  10.850 -0.4454  0.1638 -0.2114
  527loPI   PO4 8420  12.896  16.889  10.269  0.3722  0.0732 -0.1997
  527loPI   GL1 8421  12.906  16.631   9.944 -0.0688 -0.2214 -0.2355
  527loPI   GL2 8422  13.175  16.415   9.923 -0.2361  0.0448  0.0665
  527loPI   C1A 8423  12.861  16.792   9.526  0.1021  0.1905 -0.0900
  527loPI   C2A 8424  13.042  16.718   9.074 -0.2281 -0.2651 -0.0302
  527loPI   C3A 8425  13.126  16.812   8.608  0.4762  0.3966 -0.0510
  527loPI   C4A 8426  12.996  17.111   8.328  0.0549  0.0115  0.0544
  527loPI   C5A 8427  12.674  17.206   8.106  0.2079  0.0053 -0.1392
  527loPI   C6A 8428  12.458  17.127   7.779 -0.1429 -0.2348  0.1098
  527loPI   C1B 8429  13.214  16.270   9.550  0.1265 -0.2830  0.1042
  527loPI   C2B 8430  13.261  16.168   9.091  0.1848  0.1348  0.1417
  527loPI   C3B 8431  13.168  16.062   8.623  0.4460  0.4391 -0.0575
  527loPI   C4B 8432  13.439  15.894   8.273 -0.0078  0.0023  0.3330
  528loPI    C1 8433   9.009  16.812  10.249  0.0930  0.0559  0.0734
  528loPI    C2 8434   9.259  16.523  10.369  0.0988  0.0889  0.1413
  528loPI    C3 8435   8.942  16.620  10.594 -0.2439 -0.2755 -0.1692
  528loPI   PO4 8436   8.963  16.722  10.008  0.0459 -0.0309  0.2532
  528loPI   GL1 8437   8.933  16.733   9.644  0.0280  0.0768  0.0458
  528loPI   GL2 8438   8.954  17.057   9.587 -0.2300  0.2223 -0.2318
  528loPI   C1A 8439   8.991  16.612   9.225  0.0476 -0.0341 -0.1996
  528loPI   C2A 8440   8.923  16.763   8.820  0.2787 -0.1568 -0.0620
  528loPI   C3A 8441   9.119  16.698   8.416 -0.0563 -0.1666  0.1107
  528loPI   C4A 8442   9.137  16.783   8.005 -0.2145  0.0732 -0.0696
  528loPI   C5A 8443   8.995  16.576   7.646  0.1899 -0.0023 -0.1639
  528loPI   C6A 8444   8.892  16.345   7.334  0.1483  0.0545 -0.1123
  528loPI   C1B 8445   9.080  17.100   9.161 -0.2469  0.0392 -0.2559
  528loPI   C2B 8446   9.010  17.376   8.831  0.1241  0.2347 -0.0831
  528loPI   C3B 8447   8.587  17.527   8.582  0.2544  0.2529 -0.0112
  528loPI   C4B 8448   8.493  17.481   8.149 -0.1359 -0.2403  0.4524
  529loPI    C1 8449   8.258  18.360  10.120 -0.0442 -0.0688 -0.2125
  529loPI    C2 8450   7.965  18.513  10.344 -0.0531 -0.1284 -0.1834
  529loPI    C3 8451   8.011  18.634   9.966  0.0166  0.0374 -0.1227
  529loPI   PO4 8452   8.492  18.361  10.129  0.2338  0.0580  0.2935
  529loPI   GL1 8453   8.863  18.376   9.768  0.0003  0.1040 -0.2927
  529loPI   GL2 8454   8.814  18.059   9.638 -0.0345  0.1063  0.1626
  529loPI   C1A 8455   8.799  18.502   9.348  0.1889  0.0809 -0.0443
  529loPI   C2A 8456   8.937  18.415   8.931 -0.1638  0.1446  0.3775
  529loPI   C3A 8457   8.876  18.430   8.522 -0.1530 -0.3549 -0.0345
  529loPI   C4A 8458   8.935  18.641   8.192 -0.0306  0.0830  0.4217
  529loPI   C5A 8459   9.056  19.010   7.858  0.3390  0.1865  0.0799
  529loPI   C6A 8460   8.725  19.335   7.892  0.0265  0.1264 -0.0584
  529loPI   C1B 8461   8.939  18.022   9.199 -0.0581  0.0861  0.2756
  529loPI   C2B 8462   8.959  17.917   8.734  0.3995  0.0927 -0.1326
  529loPI   C3B 8463   8.973  17.850   8.312  0.1900 -0.0828  0.1830
  529loPI   C4B 8464   9.014  18.015   7.945 -0.2795 -0.1777  0.1299
  530loPI    C1 8465   9.359   8.515  10.717  0.2208 -0.1762 -0.1778
  530loPI    C2 8466   9.750   8.566  10.653  0.2308 -0.0322 -0.0100
  530loPI    C3 8467   9.570   8.758  10.954  0.0165 -0.0433 -0.1291
  530loPI   PO4 8468   9.199   8.606  10.522  0.0039 -0.1093 -0.0968
  530loPI   GL1 8469   9.066   8.490  10.139 -0.0881 -0.0788 -0.0146
  530loPI   GL2 8470   9.352   8.805  10.086 -0.2259 -0.0433 -0.2184
  530loPI   C1A 8471   9.167   8.432   9.808  0.2848 -0.1297  0.0982
  530loPI   C2A 8472   9.146   8.503   9.361  0.1662  0.0392  0.0486
  530loPI   C3A 8473   9.113   8.603   8.888  0.1789 -0.2136 -0.1460
  530loPI   C4A 8474   9.116   8.638   8.404  0.0204  0.0939 -0.0503
  530loPI   C5A 8475   9.204   8.725   8.020 -0.0740  0.0584  0.1350
  530loPI   C6A 8476   8.982   8.957   7.668  0.1072 -0.0892 -0.0320
  530loPI   C1B 8477   9.461   8.824   9.566  0.0727  0.1463  0.3637
  530loPI   C2B 8478   9.462   8.882   9.168 -0.2869 -0.0272 -0.1032
  530loPI   C3B 8479   9.453   8.947   8.707 -0.0792  0.0473  0.2114
  530loPI   C4B 8480   9.635   9.040   8.272  0.1676 -0.2091  0.0322
  531loPI    C1 8481   7.167   3.889  10.580  0.2469  0.0247  0.2165
  531loPI    C2 8482   7.004   3.530  10.511  0.3578  0.0426 -0.1630
  531loPI    C3 8483   6.844   3.773  10.786  0.0856 -0.1645 -0.1341
  531loPI   PO4 8484   7.206   3.938  10.284 -0.0186 -0.0031 -0.3696
  531loPI   GL1 8485   7.492   4.088  10.071  0.0784  0.0911  0.0272
  531loPI   GL2 8486   7.881   4.100  10.096  0.0518 -0.1800 -0.0378
  531loPI   C1A 8487   7.602   4.095   9.597  0.0851  0.1683 -0.4235
  531loPI   C2A 8488   7.632   4.087   9.084 -0.0154  0.0651  0.0031
  531loPI   C3A 8489   7.682   4.142   8.660 -0.1189 -0.1351 -0.2685
  531loPI   C4A 8490   7.737   4.180   8.323 -0.0231  0.4007 -0.1249
  531loPI   C5A 8491   7.445   4.421   8.047  0.1065  0.0491 -0.0179
  531loPI   C6A 8492   7.518   4.808   7.737 -0.0904  0.0211  0.0291
  531loPI   C1B 8493   8.114   4.026   9.632  0.1748 -0.0009 -0.0364
  531loPI   C2B 8494   8.172   3.976   9.272  0.1647  0.1734  0.0145
  531loPI   C3B 8495   8.219   4.123   8.810 -0.0138  0.2035 -0.3801
  531loPI   C4B 8496   8.241   4.074   8.330  0.2437  0.0292 -0.1076
  532loPI    C1 8497   2.663  11.787  10.628 -0.0899 -0.0110 -0.1480
  532loPI    C2 8498   3.026  11.623  10.659 -0.0389  0.1116 -0.0940
  532loPI    C3 8499   2.956  11.985  10.814 -0.2009  0.0618 -0.0488
  532loPI   PO4 8500   2.678  11.838  10.356 -0.0416 -0.0433 -0.0262
  532loPI   GL1 8501   2.700  11.974   9.994  0.0493 -0.1684  0.0703
  532loPI   GL2 8502   2.654  12.174   9.856  0.1622  0.0084 -0.2186
  532loPI   C1A 8503   2.885  11.856   9.578  0.1740 -0.2095 -0.3389
  532loPI   C2A 8504   2.810  11.956   9.222  0.0669 -0.0307  0.1718
  532loPI   C3A 8505   2.750  11.981   8.794 -0.1103 -0.0549 -0.2045
  532loPI   C4A 8506   2.875  11.969   8.343  0.0572  0.4318 -0.1271
  532loPI   C5A 8507   2.792  11.670   7.974 -0.1858 -0.1041  0.0507
  532loPI   C6A 8508   2.985  11.305   7.752 -0.0766  0.2131  0.2132
  532loPI   C1B 8509   2.390  12.156   9.508 -0.1407 -0.0692 -0.2241
  532loPI   C2B 8510   2.354  12.194   9.033 -0.3329  0.1610  0.0752
  532loPI   C3B 8511   2.375  12.137   8.565  0.1101  0.0871 -0.1182
  532loPI   C4B 8512   2.373  12.131   8.107  0.0103  0.1053 -0.2179
  533loPI    C1 8513   4.336   8.816   9.936  0.1090  0.0448  0.0187
  533loPI    C2 8514   4.451   8.678  10.294 -0.1003 -0.0093  0.0668
  533loPI    C3 8515   4.723   8.749  10.009  0.0596 -0.0394  0.2106
  533loPI   PO4 8516   4.188   9.024   9.998  0.2680  0.0178  0.0382
  533loPI   GL1 8517   3.952   9.305   9.727 -0.1224  0.2790 -0.1347
  533loPI   GL2 8518   4.237   9.361   9.619  0.2308  0.0919 -0.2079
  533loPI   C1A 8519   3.841   9.263   9.345  0.1178  0.0684  0.1810
  533loPI   C2A 8520   3.744   9.280   8.855 -0.3278  0.2444  0.1058
  533loPI   C3A 8521   3.612   9.184   8.466  0.1147  0.3106 -0.1747
  533loPI   C4A 8522   3.541   8.951   8.096  0.1281  0.2111  0.2941
  533loPI   C5A 8523   3.482   9.051   7.640  0.1636 -0.0143 -0.2546
  533loPI   C6A 8524   3.123   8.908   7.368  0.0853 -0.1081 -0.2107
  533loPI   C1B 8525   4.305   9.069   9.233 -0.1455  0.0189  0.1247
  533loPI   C2B 8526   4.246   9.028   8.954 -0.1218 -0.0533 -0.1867
  533loPI   C3B 8527   4.129   9.087   8.519 -0.0756  0.1627  0.0239
  533loPI   C4B 8528   4.036   9.038   8.085 -0.1781  0.2036  0.0042
  534loPI    C1 8529  10.021  10.314  10.815 -0.0948  0.0293 -0.1395
  534loPI    C2 8530   9.879  10.152  11.151 -0.0178 -0.0068 -0.1243
  534loPI    C3 8531   9.901  10.549  11.115 -0.1358 -0.0008 -0.1322
  534loPI   PO4 8532  10.197  10.179  10.744 -0.1203 -0.0329 -0.1868
  534loPI   GL1 8533  10.231   9.990  10.371 -0.1472 -0.3254  0.1382
  534loPI   GL2 8534  10.042   9.683  10.406 -0.1016 -0.0141  0.1512
  534loPI   C1A 8535  10.169  10.063   9.928  0.2088 -0.1340  0.2796
  534loPI   C2A 8536  10.276  10.164   9.508 -0.3681  0.2410 -0.1315
  534loPI   C3A 8537  10.251  10.143   9.035 -0.1898  0.0225 -0.2142
  534loPI   C4A 8538  10.456  10.414   8.742  0.2576  0.1515 -0.1430
  534loPI   C5A 8539  10.595  10.652   8.544  0.0660  0.1269 -0.0283
  534loPI   C6A 8540  10.820  10.892   8.457 -0.0765 -0.3743  0.1244
  534loPI   C1B 8541  10.162   9.528  10.044  0.2415 -0.0177  0.0332
  534loPI   C2B 8542  10.291   9.326   9.718  0.2421  0.1751  0.3321
  534loPI   C3B 8543  10.272   9.281   9.213 -0.0418  0.2551  0.0209
  534loPI   C4B 8544  10.077   9.307   8.796 -0.1849  0.1469  0.0317
  535loPI    C1 8545   0.817  11.201  10.622 -0.0175 -0.0953  0.0267
  535loPI    C2 8546   0.937  10.967  10.923  0.1115 -0.0877 -0.0180
  535loPI    C3 8547   0.797  11.334  10.999  0.1932 -0.0660  0.0291
  535loPI   PO4 8548   0.668  10.989  10.487 -0.0702  0.3153 -0.1302
  535loPI   GL1 8549   0.769  10.954  10.062 -0.1384 -0.1957 -0.0589
  535loPI   GL2 8550   1.096  11.003  10.020  0.1083  0.0177  0.1649
  535loPI   C1A 8551   0.829  10.738   9.673  0.2329 -0.1203 -0.1235
  535loPI   C2A 8552   0.794  10.788   9.230 -0.2508 -0.0397 -0.5482
  535loPI   C3A 8553   0.603  10.760   8.880 -0.0810  0.0859  0.2076
  535loPI   C4A 8554   0.815  10.806   8.461 -0.0243  0.0752 -0.2249
  535loPI   C5A 8555   0.696  11.080   8.086 -0.0124  0.0876  0.0940
  535loPI   C6A 8556   0.696  11.464   8.393  0.2274  0.0843  0.0902
  535loPI   C1B 8557   1.202  11.179   9.677 -0.0787  0.2651  0.0657
  535loPI   C2B 8558   1.175  11.166   9.207  0.0757 -0.1498 -0.2485
  535loPI   C3B 8559   1.059  11.099   8.802 -0.0541 -0.1797  0.2220
  535loPI   C4B 8560   1.138  11.208   8.400  0.2496 -0.2247  0.0301
  536loPI    C1 8561   9.157   5.247  10.927  0.1775 -0.1265  0.0055
  536loPI    C2 8562   8.967   4.948  11.114 -0.0027 -0.1366 -0.1893
  536loPI    C3 8563   8.793   5.307  11.083  0.1635 -0.0429 -0.0585
  536loPI   PO4 8564   9.255   5.126  10.750  0.0908  0.0674 -0.2374
  536loPI   GL1 8565   9.140   5.335  10.296  0.1737 -0.1960 -0.1364
  536loPI   GL2 8566   9.324   5.543  10.171 -0.0696 -0.2685 -0.2330
  536loPI   C1A 8567   8.991   5.257   9.861 -0.0454  0.1021 -0.1301
  536loPI   C2A 8568   8.958   5.308   9.483  0.0543  0.2668  0.0413
  536loPI   C3A 8569   9.004   5.281   9.016  0.1294 -0.0130  0.1294
  536loPI   C4A 8570   9.144   5.339   8.574 -0.1053  0.1822 -0.0763
  536loPI   C5A 8571   9.127   5.273   8.102 -0.3779  0.0197  0.3476
  536loPI   C6A 8572   9.338   5.668   7.887 -0.1587 -0.0177  0.0815
  536loPI   C1B 8573   9.325   5.721   9.784  0.0593 -0.3288  0.0600
  536loPI   C2B 8574   9.242   5.724   9.431  0.1772 -0.1686  0.4284
  536loPI   C3B 8575   9.331   5.829   8.946 -0.1557  0.2689  0.1407
  536loPI   C4B 8576   9.456   5.744   8.456  0.1478  0.2532  0.2171
  537loPI    C1 8577  15.411   0.027  10.592 -0.0653  0.0216  0.0599
  537loPI    C2 8578  15.326   0.337  10.354 -0.0023 -0.0576 -0.0669
  537loPI    C3 8579  15.127   0.289  10.698 -0.1294  0.0292 -0.1271
  537loPI   PO4 8580  15.518  -0.132  10.395 -0.0563  0.0725 -0.4738
  537loPI   GL1 8581  15.480  -0.155  10.036 -0.3643  0.0374  0.1643
  537loPI   GL2 8582  15.430   0.138   9.908  0.1414  0.0102  0.0769
  537loPI   C1A 8583  15.759  -0.164   9.642  0.0502 -0.1488  0.0282
  537loPI   C2A 8584  15.803  -0.194   9.204 -0.1771  0.2108  0.0471
  537loPI   C3A 8585  15.571  -0.300   8.863  0.0678 -0.1131 -0.3703
  537loPI   C4A 8586  15.357  -0.315   8.484  0.2597 -0.2706 -0.1816
  537loPI   C5A 8587  15.337  -0.277   7.999 -0.2659 -0.1829  0.2757
  537loPI   C6A 8588  15.130  -0.257   7.669 -0.0710 -0.1889  0.0759
  537loPI   C1B 8589  15.426   0.329   9.456 -0.1012 -0.2600  0.0029
  537loPI   C2B 8590  15.357   0.146   9.113 -0.3138  0.0125 -0.0574
  537loPI   C3B 8591  15.306   0.169   8.681 -0.1803 -0.0583 -0.4047
  537loPI   C4B 8592  15.106   0.193   8.169  0.0491 -0.0685  0.2997
  538loPI    C1 8593  16.540   8.689  10.546 -0.2012  0.1106 -0.2064
  538loPI    C2 8594  16.648   8.304  10.523  0.0450  0.1697 -0.0752
  538loPI    C3 8595  16.392   8.424  10.806 -0.2621  0.0535 -0.2987
  538loPI   PO4 8596  16.654   8.821  10.506 -0.2633  0.1216 -0.2778
  538loPI   GL1 8597  16.756   8.990  10.130 -0.0757 -0.0209 -0.0463
  538loPI   GL2 8598  16.528   8.679  10.035  0.0041  0.0946 -0.0296
  538loPI   C1A 8599  16.820   8.927   9.716 -0.1946 -0.2028  0.1599
  538loPI   C2A 8600  16.755   8.881   9.347 -0.0479  0.0442 -0.1527
  538loPI   C3A 8601  16.890   8.837   8.935  0.3171 -0.1882 -0.3180
  538loPI   C4A 8602  16.995   8.902   8.567  0.1320  0.0160  0.0447
  538loPI   C5A 8603  17.192   9.031   8.162  0.0241 -0.0622 -0.0200
  538loPI   C6A 8604  17.178   9.488   8.110 -0.2009  0.0255  0.0807
  538loPI   C1B 8605  16.512   8.507   9.567 -0.0602  0.0195  0.2588
  538loPI   C2B 8606  16.602   8.461   9.157 -0.2297  0.3266 -0.1269
  538loPI   C3B 8607  16.652   8.468   8.741  0.3078 -0.0269  0.3288
  538loPI   C4B 8608  16.538   8.306   8.398 -0.0820 -0.0829 -0.0760
  539loPI    C1 8609  13.206  14.970  10.187 -0.0524  0.0033 -0.0163
  539loPI    C2 8610  12.911  15.025  10.451  0.0514 -0.2134  0.1476
  539loPI    C3 8611  12.937  14.680  10.249 -0.0417 -0.0401 -0.1674
  539loPI   PO4 8612  13.307  15.084  10.038 -0.2254 -0.1602  0.1472
  539loPI   GL1 8613  13.147  15.174   9.662  0.3318  0.2053  0.0805
  539loPI   GL2 8614  13.407  14.945   9.579 -0.1773  0.4100 -0.1640
  539loPI   C1A 8615  12.992  15.439   9.347  0.1091 -0.0228  0.0240
  539loPI   C2A 8616  12.781  15.387   9.015  0.1962 -0.1142 -0.0749
  539loPI   C3A 8617  12.680  15.268   8.653 -0.0455 -0.0881 -0.2958
  539loPI   C4A 8618  12.432  15.196   8.165 -0.3137 -0.0196 -0.1484
  539loPI   C5A 8619  12.440  15.065   7.741  0.0394 -0.0329 -0.1353
  539loPI   C6A 8620  12.169  15.013   7.442 -0.0684  0.1294  0.1649
  539loPI   C1B 8621  13.090  14.973   9.182 -0.1627 -0.2051 -0.2300
  539loPI   C2B 8622  12.999  14.906   8.761 -0.1491  0.0022 -0.2389
  539loPI   C3B 8623  12.830  14.845   8.374  0.1548 -0.3395 -0.2460
  539loPI   C4B 8624  12.642  14.708   7.960  0.1071  0.1366  0.2827
  540loPI    C1 8625   5.789  16.021  10.007 -0.1427  0.1882  0.0386
  540loPI    C2 8626   5.595  15.807  10.284 -0.0592  0.0874  0.0199
  540loPI    C3 8627   5.672  16.194  10.348  0.0843  0.0303  0.1995
  540loPI   PO4 8628   5.976  15.888   9.950  0.2991 -0.1821 -0.1469
  540loPI   GL1 8629   6.119  15.648   9.617 -0.2378  0.0702  0.2683
  540loPI   GL2 8630   6.409  15.902   9.472 -0.3020 -0.1344  0.0545
  540loPI   C1A 8631   6.364  15.402   9.310 -0.1490 -0.0334 -0.2686
  540loPI   C2A 8632   6.349  15.306   8.875  0.1883 -0.2564 -0.0366
  540loPI   C3A 8633   6.294  15.243   8.411 -0.3652 -0.0557  0.0562
  540loPI   C4A 8634   6.412  15.389   7.921 -0.1724  0.0603 -0.3098
  540loPI   C5A 8635   6.531  15.327   7.524 -0.2388  0.2146 -0.0630
  540loPI   C6A 8636   6.324  15.237   7.182 -0.1429 -0.1260  0.1999
  540loPI   C1B 8637   6.586  15.744   9.051 -0.1258 -0.1169  0.0857
  540loPI   C2B 8638   6.911  15.829   8.845 -0.0080 -0.1145 -0.0575
  540loPI   C3B 8639   7.101  15.621   8.533  0.1011 -0.0134  0.2996
  540loPI   C4B 8640   7.369  15.495   8.109 -0.1925 -0.1415  0.0435
  541loPI    C1 8641   6.108   2.700   9.977  0.3074 -0.0659  0.4385
  541loPI    C2 8642   5.812   2.476  10.126 -0.0401  0.0180 -0.0988
  541loPI    C3 8643   5.858   2.853  10.250 -0.1197 -0.0147  0.0323
  541loPI   PO4 8644   6.316   2.509   9.962 -0.2189  0.2038 -0.1601
  541loPI   GL1 8645   6.574   2.530   9.750 -0.0329  0.0033  0.1049
  541loPI   GL2 8646   6.771   2.765   9.890 -0.5524 -0.0381  0.2024
  541loPI   C1A 8647   6.810   2.362   9.415  0.0961  0.0903  0.0910
  541loPI   C2A 8648   6.899   2.507   9.022 -0.0974 -0.0157 -0.1180
  541loPI   C3A 8649   7.064   2.310   8.646 -0.0902 -0.0637  0.1590
  541loPI   C4A 8650   6.977   2.237   8.203 -0.0606 -0.1361  0.0823
  541loPI   C5A 8651   7.002   2.264   7.810  0.1299  0.0555 -0.2097
  541loPI   C6A 8652   7.384   2.136   7.624  0.1858 -0.1353  0.1065
  541loPI   C1B 8653   6.867   2.825   9.418  0.0774  0.1419  0.0261
  541loPI   C2B 8654   6.700   2.920   9.034 -0.1092  0.1417 -0.1713
  541loPI   C3B 8655   6.724   2.741   8.526 -0.0152 -0.0685  0.3069
  541loPI   C4B 8656   6.624   2.724   8.013  0.1868  0.0243  0.0552
  542loPI    C1 8657   8.752  15.569  10.450 -0.1192  0.0102  0.1739
  542loPI    C2 8658   8.761  15.261  10.705  0.1335 -0.0032  0.1520
  542loPI    C3 8659   9.077  15.504  10.675  0.0480  0.0860 -0.0418
  542loPI   PO4 8660   8.632  15.423  10.243  0.1716 -0.2452  0.0027
  542loPI   GL1 8661   8.541  15.570   9.764 -0.2356  0.0853 -0.0157
  542loPI   GL2 8662   8.818  15.663   9.782 -0.2343 -0.3071  0.1291
  542loPI   C1A 8663   8.614  15.221   9.568 -0.2053  0.1377 -0.2770
  542loPI   C2A 8664   8.740  15.045   9.276 -0.3223  0.0623  0.0213
  542loPI   C3A 8665   9.029  14.932   8.980  0.2529 -0.0931 -0.2750
  542loPI   C4A 8666   9.182  14.858   8.469  0.1106  0.0336 -0.0471
  542loPI   C5A 8667   9.263  15.037   8.105  0.3015  0.0179 -0.0060
  542loPI   C6A 8668   9.222  15.041   7.733  0.0765 -0.0750  0.2189
  542loPI   C1B 8669   8.813  15.673   9.355  0.0554  0.0090  0.1235
  542loPI   C2B 8670   8.864  15.752   8.923 -0.2186  0.1709 -0.1041
  542loPI   C3B 8671   8.690  15.767   8.501 -0.0890  0.1915  0.4289
  542loPI   C4B 8672   8.406  15.579   8.510  0.0570 -0.4973 -0.2663
  543loPI    C1 8673  18.343   0.177  10.502 -0.1793  0.0579 -0.2515
  543loPI    C2 8674  18.001   0.321  10.650 -0.2267  0.0428 -0.3458
  543loPI    C3 8675  18.350   0.487  10.754 -0.2273 -0.2175  0.0958
  543loPI   PO4 8676  18.305   0.098  10.348  0.1652 -0.1641  0.2829
  543loPI   GL1 8677  18.065   0.034   9.883 -0.1467 -0.0312  0.0481
  543loPI   GL2 8678  18.425   0.019   9.891  0.3387 -0.0094 -0.0538
  543loPI   C1A 8679  18.172  -0.289   9.597 -0.1231  0.2159  0.0280
  543loPI   C2A 8680  18.244  -0.340   9.154  0.3451 -0.1634  0.0553
  543loPI   C3A 8681  18.170  -0.292   8.738  0.1047  0.0601  0.0746
  543loPI   C4A 8682  18.123  -0.373   8.232 -0.0918 -0.0986  0.0326
  543loPI   C5A 8683  18.146  -0.322   7.778 -0.1542  0.0147 -0.1370
  543loPI   C6A 8684  18.254  -0.290   7.399 -0.1163  0.0186 -0.0752
  543loPI   C1B 8685  18.562  -0.009   9.497  0.0943 -0.0116 -0.0619
  543loPI   C2B 8686  18.606  -0.030   9.130 -0.1951 -0.4353  0.0422
  543loPI   C3B 8687  18.516   0.037   8.668 -0.0831 -0.3323  0.0017
  543loPI   C4B 8688  18.398   0.076   8.130  0.1645 -0.0384 -0.1136
  544loPI    C1 8689  15.483   6.840  10.894 -0.0314  0.0546 -0.1389
  544loPI    C2 8690  15.200   7.068  10.727 -0.3095  0.0323  0.2865
  544loPI    C3 8691  15.447   7.224  11.000 -0.2602 -0.0834  0.3087
  544loPI   PO4 8692  15.464   6.601  10.753  0.0559 -0.0541  0.1752
  544loPI   GL1 8693  15.267   6.469  10.495 -0.0264  0.0406 -0.0146
  544loPI   GL2 8694  14.951   6.676  10.405  0.0765 -0.1169  0.1696
  544loPI   C1A 8695  15.165   6.387  10.101  0.0661 -0.2690 -0.0643
  544loPI   C2A 8696  15.113   6.277   9.644 -0.0181 -0.0585  0.0056
  544loPI   C3A 8697  15.200   6.318   9.180 -0.1089  0.2633 -0.1157
  544loPI   C4A 8698  15.130   6.224   8.761  0.2185  0.2361 -0.2297
  544loPI   C5A 8699  15.357   6.288   8.420  0.2310 -0.0425  0.1391
  544loPI   C6A 8700  15.155   6.305   8.051 -0.0764  0.1332  0.1733
  544loPI   C1B 8701  14.994   6.842  10.008 -0.0693  0.1580  0.0622
  544loPI   C2B 8702  14.873   6.809   9.561  0.1567 -0.1596 -0.1109
  544loPI   C3B 8703  14.930   6.830   9.185 -0.2583  0.2386 -0.0584
  544loPI   C4B 8704  14.920   6.673   8.772  0.1586 -0.0025 -0.1074
  545loPI    C1 8705  11.859   4.929  10.833  0.0010  0.0568  0.1987
  545loPI    C2 8706  11.468   4.845  10.823 -0.0099  0.1279 -0.0125
  545loPI    C3 8707  11.737   4.548  10.830 -0.0555  0.0692 -0.4411
  545loPI   PO4 8708  11.868   5.117  10.689 -0.1539  0.1479  0.1935
  545loPI   GL1 8709  11.775   5.310  10.208 -0.0113  0.2854  0.0185
  545loPI   GL2 8710  11.842   5.605  10.153 -0.0007 -0.1193 -0.3213
  545loPI   C1A 8711  11.602   5.181   9.833  0.2106  0.1502 -0.0991
  545loPI   C2A 8712  11.749   5.248   9.364  0.2352 -0.0178 -0.3222
  545loPI   C3A 8713  11.650   5.175   8.879  0.1829  0.3772 -0.0675
  545loPI   C4A 8714  11.847   5.150   8.452  0.2875  0.0603 -0.0871
  545loPI   C5A 8715  12.014   5.425   8.108  0.1486  0.3211 -0.0200
  545loPI   C6A 8716  12.150   5.477   7.668  0.3787  0.3199  0.1386
  545loPI   C1B 8717  11.903   5.589   9.644 -0.0527  0.0593  0.2952
  545loPI   C2B 8718  11.993   5.651   9.220 -0.1088  0.0634 -0.2103
  545loPI   C3B 8719  12.032   5.608   8.633  0.0059 -0.0896  0.1013
  545loPI   C4B 8720  12.420   5.520   8.403 -0.4887  0.3677 -0.2547
  546loPI    C1 8721   3.277  11.932  10.397 -0.0864  0.0474  0.1789
  546loPI    C2 8722   3.672  11.870  10.395 -0.0882  0.0357  0.1920
  546loPI    C3 8723   3.477  11.907  10.743 -0.1093 -0.0257  0.1869
  546loPI   PO4 8724   3.213  11.869  10.146  0.2796 -0.1623 -0.2059
  546loPI   GL1 8725   3.607  11.907   9.818 -0.0852  0.0556  0.0692
  546loPI   GL2 8726   3.860  11.974   9.647 -0.1503  0.1061 -0.1803
  546loPI   C1A 8727   3.334  12.140   9.485 -0.1118  0.0025 -0.5341
  546loPI   C2A 8728   3.227  12.255   9.050  0.2035  0.2649  0.3377
  546loPI   C3A 8729   3.216  12.220   8.642  0.2596  0.3242  0.3805
  546loPI   C4A 8730   3.237  12.270   8.243 -0.1064 -0.1592  0.1326
  546loPI   C5A 8731   3.077  12.153   7.867 -0.0192  0.1522 -0.0095
  546loPI   C6A 8732   3.014  12.352   7.460  0.1985 -0.1930  0.1689
  546loPI   C1B 8733   3.758  11.969   9.192  0.1548 -0.0525 -0.0419
  546loPI   C2B 8734   3.663  12.064   8.831  0.0125  0.0549  0.1917
  546loPI   C3B 8735   3.711  12.062   8.344 -0.3109  0.0632  0.3165
  546loPI   C4B 8736   3.526  11.968   7.958  0.1806 -0.0645  0.4533
  547loPI    C1 8737   6.045  13.783  10.483 -0.2106  0.0803 -0.0056
  547loPI    C2 8738   5.877  13.717  10.840 -0.0326  0.0714  0.0777
  547loPI    C3 8739   6.144  14.011  10.796 -0.0660  0.0830 -0.0525
  547loPI   PO4 8740   5.968  13.573  10.394  0.0954 -0.3406 -0.0379
  547loPI   GL1 8741   6.110  13.357  10.005 -0.0531  0.0369 -0.2288
  547loPI   GL2 8742   5.947  13.183   9.923 -0.2537  0.0486 -0.1616
  547loPI   C1A 8743   6.171  13.552   9.600  0.4676 -0.2194  0.2329
  547loPI   C2A 8744   6.264  13.583   9.211  0.3939  0.2801 -0.1413
  547loPI   C3A 8745   6.142  13.590   8.800 -0.2119 -0.0481 -0.1803
  547loPI   C4A 8746   6.207  13.548   8.363  0.0866 -0.0644 -0.1542
  547loPI   C5A 8747   6.201  13.416   7.891  0.1282 -0.3750 -0.0554
  547loPI   C6A 8748   6.529  13.346   7.458 -0.2199 -0.1383  0.2085
  547loPI   C1B 8749   5.831  13.212   9.480 -0.1789  0.0709  0.2455
  547loPI   C2B 8750   5.903  13.262   9.104 -0.0278 -0.2626  0.3380
  547loPI   C3B 8751   5.795  13.246   8.682  0.2213  0.0562  0.1778
  547loPI   C4B 8752   5.855  13.199   8.245  0.0705  0.0105  0.0972
  548loPI    C1 8753   6.249   2.113  10.635  0.1878 -0.0703 -0.1003
  548loPI    C2 8754   6.571   1.913  10.508  0.2939  0.0279  0.0123
  548loPI    C3 8755   6.425   1.846  10.874  0.2148  0.0182 -0.0210
  548loPI   PO4 8756   6.152   2.118  10.300  0.1734  0.1567 -0.0539
  548loPI   GL1 8757   6.019   2.175   9.774 -0.0818  0.0339 -0.1633
  548loPI   GL2 8758   6.204   2.101   9.595 -0.1907  0.1160  0.0621
  548loPI   C1A 8759   5.879   2.401   9.432 -0.2178 -0.0767  0.2275
  548loPI   C2A 8760   5.422   2.621   9.255  0.0310 -0.1067 -0.0086
  548loPI   C3A 8761   5.091   2.540   9.049  0.1044  0.2370 -0.1274
  548loPI   C4A 8762   5.049   2.421   8.658 -0.1871 -0.1440 -0.2892
  548loPI   C5A 8763   5.091   2.484   8.222 -0.0650  0.2094  0.2151
  548loPI   C6A 8764   4.995   2.540   7.815 -0.1677 -0.4524  0.0824
  548loPI   C1B 8765   6.328   2.332   9.312  0.0353 -0.1972  0.3707
  548loPI   C2B 8766   6.156   2.501   8.969  0.2124  0.0458 -0.3223
  548loPI   C3B 8767   5.828   2.809   8.969 -0.2090  0.0660 -0.1183
  548loPI   C4B 8768   5.667   3.078   9.308  0.1366  0.1436 -0.1656
  549loPI    C1 8769  10.901   3.928  10.654  0.0103  0.0382 -0.1643
  549loPI    C2 8770  11.117   3.937  10.991  0.1320  0.2102 -0.2454
  549loPI    C3 8771  10.803   4.181  10.948  0.1915  0.2773 -0.3047
  549loPI   PO4 8772  11.069   3.960  10.425  0.2808 -0.0349  0.3481
  549loPI   GL1 8773  11.188   4.152  10.115 -0.2976 -0.1671  0.2153
  549loPI   GL2 8774  11.531   4.270   9.960  0.1254 -0.0104  0.0347
  549loPI   C1A 8775  11.036   4.344   9.703 -0.2307  0.0363  0.0688
  549loPI   C2A 8776  11.081   4.390   9.263  0.2031 -0.0380  0.2444
  549loPI   C3A 8777  10.991   4.402   8.774 -0.3039 -0.1371  0.2222
  549loPI   C4A 8778  11.010   4.291   8.290 -0.1020 -0.0860  0.1584
  549loPI   C5A 8779  11.110   4.105   7.849  0.1797 -0.2308  0.0951
  549loPI   C6A 8780  11.263   4.423   7.599  0.1592 -0.2913  0.0280
  549loPI   C1B 8781  11.510   4.335   9.524  0.4587  0.2503  0.1801
  549loPI   C2B 8782  11.636   4.323   9.091  0.1151 -0.0241  0.1183
  549loPI   C3B 8783  11.493   4.238   8.632 -0.1922 -0.3131  0.0278
  549loPI   C4B 8784  11.497   4.243   8.153 -0.1588  0.4269 -0.1019
  550loPI    C1 8785   0.640  14.633  10.512  0.1713 -0.1666 -0.0887
  550loPI    C2 8786   0.885  14.586  10.824 -0.0555  0.1918  0.1506
  550loPI    C3 8787   0.514  14.438  10.838 -0.0335  0.1218  0.0077
  550loPI   PO4 8788   0.798  14.536  10.255 -0.3466 -0.1178 -0.0390
  550loPI   GL1 8789   1.024  14.485   9.858  0.1524  0.3269 -0.4292
  550loPI   GL2 8790   1.119  14.800   9.955 -0.2682 -0.0757 -0.2660
  550loPI   C1A 8791   1.170  14.491   9.463 -0.0273 -0.0592  0.0594
  550loPI   C2A 8792   0.992  14.517   8.935 -0.3913  0.0141 -0.1699
  550loPI   C3A 8793   0.955  14.530   8.483 -0.0017  0.1535 -0.2173
  550loPI   C4A 8794   1.071  14.322   8.154  0.0534  0.2514 -0.0883
  550loPI   C5A 8795   1.376  14.311   7.778 -0.0402 -0.1121 -0.0210
  550loPI   C6A 8796   1.736  14.258   7.411  0.0033 -0.1166  0.2496
  550loPI   C1B 8797   1.033  15.001   9.597  0.0746  0.0029 -0.0885
  550loPI   C2B 8798   0.965  15.012   9.102  0.2784  0.2138  0.1774
  550loPI   C3B 8799   0.898  15.071   8.648 -0.1363  0.1486  0.1906
  550loPI   C4B 8800   0.823  15.059   8.238 -0.1155 -0.3304 -0.0204
  551loPI    C1 8801  11.184   3.137  10.830  0.1273 -0.0095 -0.0203
  551loPI    C2 8802  11.236   3.389  11.137  0.1083  0.0238 -0.0443
  551loPI    C3 8803  11.297   2.997  11.187 -0.2268 -0.0139  0.0944
  551loPI   PO4 8804  11.175   3.287  10.631 -0.2128  0.2423 -0.0629
  551loPI   GL1 8805  11.353   3.366  10.176  0.2854 -0.0151  0.0451
  551loPI   GL2 8806  11.284   3.655  10.108 -0.0374 -0.0589 -0.0204
  551loPI   C1A 8807  11.575   3.389   9.738  0.2074  0.0961 -0.3322
  551loPI   C2A 8808  11.584   3.485   9.282 -0.1723  0.2126  0.2434
  551loPI   C3A 8809  11.502   3.370   8.899  0.1947  0.0061  0.3539
  551loPI   C4A 8810  11.484   3.379   8.539 -0.2484  0.3048 -0.3782
  551loPI   C5A 8811  11.514   3.445   8.129 -0.2569 -0.0487 -0.1831
  551loPI   C6A 8812  11.426   3.750   7.844 -0.2200 -0.0428 -0.0436
  551loPI   C1B 8813  11.296   3.902   9.694  0.0330 -0.0541 -0.2710
  551loPI   C2B 8814  11.313   3.886   9.309 -0.0696  0.0746 -0.1984
  551loPI   C3B 8815  11.286   3.771   8.881  0.1658  0.2944  0.3884
  551loPI   C4B 8816  11.261   3.859   8.464 -0.1327  0.0759 -0.0878
  552loPI    C1 8817  13.781   1.231  10.451  0.1141  0.0888 -0.0418
  552loPI    C2 8818  13.573   0.890  10.424 -0.0396  0.1594  0.2201
  552loPI    C3 8819  13.960   0.882  10.524  0.0780  0.0305 -0.2261
  552loPI   PO4 8820  13.661   1.307  10.221  0.2943 -0.0325 -0.0100
  552loPI   GL1 8821  13.716   1.552   9.829 -0.2663 -0.3108  0.0235
  552loPI   GL2 8822  13.750   1.892  10.022 -0.1113  0.0603 -0.1726
  552loPI   C1A 8823  13.438   1.509   9.410  0.0885  0.1166  0.4449
  552loPI   C2A 8824  13.240   1.387   9.048 -0.1942  0.0132 -0.1729
  552loPI   C3A 8825  12.745   1.441   8.809 -0.1501 -0.2112  0.0777
  552loPI   C4A 8826  12.450   1.662   8.593 -0.0026 -0.3088  0.2355
  552loPI   C5A 8827  12.295   1.755   8.244 -0.2850 -0.1266  0.3036
  552loPI   C6A 8828  12.147   1.633   7.839  0.0501  0.0967 -0.0477
  552loPI   C1B 8829  13.765   1.978   9.575  0.0365 -0.2097 -0.2602
  552loPI   C2B 8830  13.686   1.938   9.132  0.1692 -0.1341  0.1249
  552loPI   C3B 8831  13.642   1.762   8.730  0.1960 -0.1507  0.0469
  552loPI   C4B 8832  13.500   1.641   8.346 -0.0483 -0.1209  0.0472
  553loPI    C1 8833   2.268   2.866  10.215  0.0991  0.0554 -0.0489
  553loPI    C2 8834   2.093   2.766  10.561  0.3097  0.0881  0.0689
  553loPI    C3 8835   2.302   3.106  10.534  0.2136  0.1334 -0.1192
  553loPI   PO4 8836   2.398   2.673  10.169  0.1720 -0.1688  0.0446
  553loPI   GL1 8837   2.658   2.699   9.849  0.2572  0.0789  0.1485
  553loPI   GL2 8838   2.465   2.919   9.715 -0.1885  0.3535 -0.1680
  553loPI   C1A 8839   2.900   2.533   9.505 -0.1889 -0.4620  0.3083
  553loPI   C2A 8840   2.944   2.674   9.027 -0.0214 -0.0217  0.1495
  553loPI   C3A 8841   2.901   2.549   8.594 -0.2635 -0.1114  0.3317
  553loPI   C4A 8842   2.954   2.584   8.190  0.1668  0.0177 -0.0540
  553loPI   C5A 8843   2.854   2.590   7.683 -0.0899  0.4512  0.0431
  553loPI   C6A 8844   2.783   2.511   7.249  0.2762  0.3331  0.2706
  553loPI   C1B 8845   2.547   2.949   9.368 -0.2222 -0.3047  0.1064
  553loPI   C2B 8846   2.527   3.000   9.014 -0.0428  0.0017  0.0570
  553loPI   C3B 8847   2.467   2.956   8.495 -0.1379  0.1864 -0.0967
  553loPI   C4B 8848   2.514   2.921   8.025  0.3838 -0.0138  0.2918
  554loPI    C1 8849  10.780   9.295  11.104 -0.0344  0.0714  0.2248
  554loPI    C2 8850  10.824   9.645  11.292 -0.2182  0.0310  0.3455
  554loPI    C3 8851  11.003   9.317  11.434  0.0398  0.0946  0.1732
  554loPI   PO4 8852  10.790   9.299  10.878 -0.0011  0.0035 -0.0966
  554loPI   GL1 8853  10.853   9.485  10.417  0.2098 -0.0340 -0.2115
  554loPI   GL2 8854  10.570   9.636  10.301 -0.0624  0.1724  0.1392
  554loPI   C1A 8855  11.097   9.721  10.087  0.0163  0.0478 -0.0756
  554loPI   C2A 8856  11.042   9.711   9.657  0.2101 -0.0709 -0.2127
  554loPI   C3A 8857  11.022   9.756   9.257  0.0669  0.0100  0.1021
  554loPI   C4A 8858  11.048   9.668   8.889 -0.0037  0.0213 -0.2833
  554loPI   C5A 8859  10.895   9.586   8.459 -0.0174  0.3307  0.1318
  554loPI   C6A 8860  10.837   9.316   8.150  0.1378  0.2725  0.1424
  554loPI   C1B 8861  10.592   9.682   9.850  0.1763 -0.2222 -0.0391
  554loPI   C2B 8862  10.480   9.725   9.427 -0.2939  0.2536  0.0746
  554loPI   C3B 8863  10.519   9.732   9.052 -0.1199  0.0266  0.0265
  554loPI   C4B 8864  10.460   9.659   8.628 -0.1672 -0.0516  0.0238
  555loPI    C1 8865   8.678  12.124  10.519  0.0634  0.0790 -0.0605
  555loPI    C2 8866   9.051  12.141  10.664 -0.0692  0.0241  0.2970
  555loPI    C3 8867   8.787  12.428  10.754 -0.0986  0.0956 -0.0056
  555loPI   PO4 8868   8.699  12.122  10.257  0.0349  0.1007  0.2702
  555loPI   GL1 8869   8.448  11.990   9.930  0.4900  0.0927 -0.0956
  555loPI   GL2 8870   8.135  11.906   9.999  0.1862 -0.0265 -0.1207
  555loPI   C1A 8871   8.545  12.126   9.594  0.0915 -0.4244 -0.1768
  555loPI   C2A 8872   8.483  12.305   9.181 -0.1038  0.1773 -0.2069
  555loPI   C3A 8873   8.542  12.472   8.810 -0.2013 -0.0170  0.0602
  555loPI   C4A 8874   8.377  12.201   8.433  0.0345 -0.1648  0.0438
  555loPI   C5A 8875   8.121  12.349   8.238 -0.0139  0.2024  0.0904
  555loPI   C6A 8876   7.801  12.339   7.874 -0.2313 -0.1419 -0.0645
  555loPI   C1B 8877   8.034  12.165   9.658 -0.0079 -0.3972 -0.1052
  555loPI   C2B 8878   7.974  12.221   9.167 -0.0854 -0.0969 -0.0215
  555loPI   C3B 8879   7.938  12.351   8.679  0.0904 -0.2750  0.1573
  555loPI   C4B 8880   7.604  12.546   8.365 -0.0464  0.1681  0.0790
  556loPI    C1 8881   4.698   6.552  10.343  0.0102  0.0886 -0.0081
  556loPI    C2 8882   4.587   6.406  10.698 -0.2435  0.0624 -0.0963
  556loPI    C3 8883   4.732   6.777  10.671  0.0189 -0.0255  0.0698
  556loPI   PO4 8884   4.560   6.460  10.179  0.0335 -0.2104  0.2809
  556loPI   GL1 8885   4.669   6.236   9.856  0.1257 -0.1203 -0.1164
  556loPI   GL2 8886   5.002   6.142   9.872  0.2083  0.2627  0.1510
  556loPI   C1A 8887   4.529   6.119   9.462 -0.1558 -0.1268  0.0857
  556loPI   C2A 8888   4.379   6.044   8.996  0.0461  0.5758 -0.0495
  556loPI   C3A 8889   4.292   6.072   8.539 -0.0035  0.0461  0.3273
  556loPI   C4A 8890   4.337   5.953   8.201 -0.2271 -0.1035  0.1315
  556loPI   C5A 8891   4.417   5.832   7.798 -0.0049  0.0176 -0.1059
  556loPI   C6A 8892   4.566   5.754   7.369  0.1698  0.3309  0.0208
  556loPI   C1B 8893   5.003   6.020   9.510 -0.1937 -0.0917  0.0648
  556loPI   C2B 8894   4.805   5.738   9.212  0.2002  0.2838 -0.1681
  556loPI   C3B 8895   4.679   5.704   8.838  0.0977 -0.0241 -0.1260
  556loPI   C4B 8896   4.687   5.690   8.399  0.1726 -0.0987 -0.0405
  557loPI    C1 8897  12.965  15.879  10.426  0.0155 -0.2998  0.2009
  557loPI    C2 8898  13.204  15.951  10.738 -0.0081 -0.1597  0.1872
  557loPI    C3 8899  12.824  16.073  10.745 -0.0453 -0.2727  0.1576
  557loPI   PO4 8900  13.168  15.985  10.232 -0.0290  0.0006  0.1660
  557loPI   GL1 8901  13.014  15.923   9.825 -0.3614  0.2413 -0.0594
  557loPI   GL2 8902  13.165  15.638   9.769 -0.0660  0.2374 -0.0930
  557loPI   C1A 8903  12.792  15.873   9.416 -0.0428  0.1070  0.0605
  557loPI   C2A 8904  12.726  15.886   8.952 -0.1477  0.2476  0.2019
  557loPI   C3A 8905  12.752  15.828   8.463 -0.3396 -0.2471 -0.1437
  557loPI   C4A 8906  13.005  16.006   8.150  0.0567  0.0148 -0.3816
  557loPI   C5A 8907  13.100  16.211   7.797  0.2010 -0.1519  0.0558
  557loPI   C6A 8908  13.105  16.454   7.447 -0.0555 -0.2570  0.2677
  557loPI   C1B 8909  13.411  15.760   9.339 -0.0124 -0.0130  0.0137
  557loPI   C2B 8910  13.212  15.682   8.940 -0.0795  0.2635  0.2656
  557loPI   C3B 8911  13.137  15.469   8.590 -0.1405 -0.2466  0.2382
  557loPI   C4B 8912  12.920  15.429   8.183  0.1892 -0.3117 -0.0819
  558loPI    C1 8913  12.694   6.887  10.937 -0.1228 -0.0460 -0.0509
  558loPI    C2 8914  12.978   6.655  10.775 -0.1679 -0.1277 -0.0137
  558loPI    C3 8915  12.826   6.564  11.133 -0.1654 -0.0241  0.0141
  558loPI   PO4 8916  12.581   6.942  10.655  0.1485 -0.0226  0.2747
  558loPI   GL1 8917  12.852   7.043  10.324 -0.1306 -0.0481 -0.2024
  558loPI   GL2 8918  12.914   6.828  10.199  0.1174 -0.0865  0.1960
  558loPI   C1A 8919  13.090   7.367  10.110  0.3315  0.2393 -0.1584
  558loPI   C2A 8920  13.085   7.294   9.742  0.1699 -0.1452  0.3175
  558loPI   C3A 8921  13.113   7.305   9.304 -0.0382 -0.0442 -0.0087
  558loPI   C4A 8922  13.100   7.284   8.807  0.1758 -0.0373  0.1569
  558loPI   C5A 8923  13.319   7.285   8.486 -0.0371 -0.3385 -0.3401
  558loPI   C6A 8924  13.760   7.231   8.315  0.2219  0.1890  0.3194
  558loPI   C1B 8925  12.971   6.539   9.881  0.1897  0.0607  0.2777
  558loPI   C2B 8926  13.030   6.447   9.409  0.1945  0.0092 -0.1039
  558loPI   C3B 8927  13.168   6.372   8.917 -0.0289  0.2887  0.1378
  558loPI   C4B 8928  13.010   6.508   8.577  0.0319 -0.1808 -0.1239
  559loPI    C1 8929  10.838  12.734  10.556  0.0968 -0.0739  0.1549
  559loPI    C2 8930  10.892  13.109  10.686  0.1235 -0.0231 -0.0004
  559loPI    C3 8931  10.866  12.808  10.948  0.1093  0.0862  0.1246
  559loPI   PO4 8932  11.042  12.692  10.338  0.1513 -0.1609  0.1391
  559loPI   GL1 8933  11.145  12.793   9.854  0.5545 -0.1435 -0.2552
  559loPI   GL2 8934  11.174  12.474   9.847  0.0667  0.1573 -0.1530
  559loPI   C1A 8935  11.253  12.804   9.423  0.3577  0.0299 -0.2713
  559loPI   C2A 8936  11.416  12.766   9.057  0.1286  0.0327  0.1206
  559loPI   C3A 8937  11.716  12.583   8.769 -0.0435 -0.1008 -0.1816
  559loPI   C4A 8938  11.774  12.684   8.324 -0.0161  0.1660 -0.0780
  559loPI   C5A 8939  11.736  12.802   7.878  0.0156 -0.0358 -0.3305
  559loPI   C6A 8940  11.638  12.525   7.549  0.0343 -0.1545  0.1040
  559loPI   C1B 8941  10.884  12.498   9.480 -0.0857  0.1074 -0.2002
  559loPI   C2B 8942  10.860  12.263   9.110  0.0158  0.1124  0.0209
  559loPI   C3B 8943  10.703  11.971   9.196  0.2324 -0.4219  0.1658
  559loPI   C4B 8944  10.699  11.584   9.100 -0.3934  0.2038  0.0747
  560loPI    C1 8945   6.095  18.688   9.848 -0.3241 -0.1051  0.1712
  560loPI    C2 8946   6.026  18.313   9.728  0.0922 -0.0761 -0.1822
  560loPI    C3 8947   6.271  18.382  10.036 -0.2693 -0.1057  0.1193
  560loPI   PO4 8948   6.018  18.738   9.552 -0.1043  0.0010  0.2245
  560loPI   GL1 8949   6.334  18.731   9.280 -0.1519  0.0558  0.2930
  560loPI   GL2 8950   6.360  19.044   9.199 -0.0306  0.0706  0.0721
  560loPI   C1A 8951   6.213  18.667   8.880  0.0811  0.0827  0.2747
  560loPI   C2A 8952   6.341  18.563   8.484 -0.1323 -0.1130 -0.1514
  560loPI   C3A 8953   6.384  18.084   8.238  0.2627 -0.2334  0.3443
  560loPI   C4A 8954   6.647  17.759   7.962 -0.1583 -0.3462 -0.0825
  560loPI   C5A 8955   7.056  17.680   7.758 -0.3130  0.1114 -0.0152
  560loPI   C6A 8956   7.368  18.065   7.487 -0.0062  0.0964 -0.0423
  560loPI   C1B 8957   6.665  18.936   8.861 -0.1855 -0.0026  0.0683
  560loPI   C2B 8958   6.780  18.833   8.423 -0.4114 -0.2654 -0.1094
  560loPI   C3B 8959   6.911  18.863   7.990  0.0885 -0.1416  0.1380
  560loPI   C4B 8960   6.833  18.690   7.592  0.1163 -0.0130  0.1262
  561loPI    C1 8961  10.701  14.485  10.517  0.2138  0.0598  0.1722
  561loPI    C2 8962  10.313  14.442  10.603  0.1171  0.1281 -0.2127
  561loPI    C3 8963  10.546  14.667  10.837 -0.0264 -0.0800  0.1379
  561loPI   PO4 8964  10.684  14.532  10.243  0.1982 -0.0800 -0.1052
  561loPI   GL1 8965  10.801  14.506   9.862  0.1649 -0.3985  0.0072
  561loPI   GL2 8966  11.112  14.375   9.866 -0.1189 -0.2600 -0.0230
  561loPI   C1A 8967  10.721  14.646   9.505 -0.3539  0.1089  0.1491
  561loPI   C2A 8968  10.860  14.563   8.998  0.0644 -0.2213  0.0195
  561loPI   C3A 8969  11.112  14.657   8.573  0.1884  0.0626 -0.0921
  561loPI   C4A 8970  11.288  14.635   8.155  0.0744 -0.0282 -0.1344
  561loPI   C5A 8971  11.314  14.837   7.615  0.2449 -0.1439  0.0335
  561loPI   C6A 8972  11.452  15.021   7.265 -0.0035  0.0828  0.1260
  561loPI   C1B 8973  11.186  14.476   9.404 -0.2202  0.0043  0.1355
  561loPI   C2B 8974  11.406  14.530   9.000  0.0845  0.0311  0.4568
  561loPI   C3B 8975  11.577  14.801   8.729  0.1492 -0.4901  0.2244
  561loPI   C4B 8976  11.644  14.984   8.386 -0.5032  0.4433  0.2449
  562loPI    C1 8977   9.260  10.364  10.500 -0.0358  0.1434 -0.0998
  562loPI    C2 8978   9.125  10.481  10.858 -0.1741  0.0260 -0.1131
  562loPI    C3 8979   9.513  10.517  10.770 -0.1202 -0.0467  0.0896
  562loPI   PO4 8980   9.076  10.293  10.389 -0.1782  0.0928 -0.0603
  562loPI   GL1 8981   8.724  10.416  10.016 -0.0686 -0.2941 -0.1784
  562loPI   GL2 8982   8.921  10.205   9.938 -0.0221  0.4413  0.0869
  562loPI   C1A 8983   8.986  10.718   9.781  0.0176  0.2556  0.0369
  562loPI   C2A 8984   9.172  10.824   9.383  0.0733  0.0932 -0.1062
  562loPI   C3A 8985   8.961  10.885   8.924  0.1983  0.0357 -0.0840
  562loPI   C4A 8986   9.016  10.903   8.523  0.1442 -0.4504 -0.0309
  562loPI   C5A 8987   9.000  10.928   8.075  0.1479  0.1314  0.2014
  562loPI   C6A 8988   9.128  10.857   7.654  0.0295  0.1648  0.0746
  562loPI   C1B 8989   9.222  10.283   9.642 -0.1204  0.3687 -0.0823
  562loPI   C2B 8990   9.322  10.358   9.259 -0.1940 -0.2596  0.2179
  562loPI   C3B 8991   9.182  10.455   8.765  0.1260 -0.2903 -0.1363
  562loPI   C4B 8992   9.257  10.504   8.294  0.0998 -0.3729 -0.0365
  563loPI    C1 8993   8.629   5.710  11.263  0.1083 -0.0861  0.2884
  563loPI    C2 8994   8.294   5.840  11.438 -0.0441 -0.1102  0.0197
  563loPI    C3 8995   8.483   5.518  11.582 -0.2090 -0.1746  0.0943
  563loPI   PO4 8996   8.719   5.788  10.977 -0.1152 -0.0267  0.0616
  563loPI   GL1 8997   8.504   5.932  10.517  0.0409  0.2565 -0.1886
  563loPI   GL2 8998   8.383   5.719  10.281  0.0450 -0.3327  0.0354
  563loPI   C1A 8999   8.519   6.175  10.186 -0.1140 -0.2756  0.2336
  563loPI   C2A 9000   8.651   6.243   9.840  0.0516  0.0161 -0.0336
  563loPI   C3A 9001   8.621   6.328   9.362  0.0742  0.1029 -0.0415
  563loPI   C4A 9002   8.631   6.258   8.938  0.3351  0.1330  0.0390
  563loPI   C5A 9003   8.700   6.312   8.514  0.1302  0.0028 -0.0561
  563loPI   C6A 9004   8.789   6.434   8.063 -0.1639  0.1333  0.0180
  563loPI   C1B 9005   8.309   5.784   9.810  0.2428 -0.0073 -0.1032
  563loPI   C2B 9006   8.348   5.845   9.414 -0.4794 -0.0960 -0.0087
  563loPI   C3B 9007   8.277   5.850   8.968 -0.1136 -0.1451  0.1043
  563loPI   C4B 9008   8.402   5.901   8.591 -0.2575 -0.0950  0.0272
  564loPI    C1 9009  17.057   7.229  10.875  0.0162  0.3042  0.1047
  564loPI    C2 9010  16.760   7.049  11.074  0.2762 -0.4973 -0.1920
  564loPI    C3 9011  17.086   7.174  11.270 -0.0705  0.0300  0.0745
  564loPI   PO4 9012  16.962   7.281  10.656  0.2240  0.2207  0.0775
  564loPI   GL1 9013  16.989   7.193  10.271 -0.1188 -0.2779 -0.0422
  564loPI   GL2 9014  16.645   7.182  10.252 -0.2719 -0.3881 -0.2160
  564loPI   C1A 9015  17.198   7.005   9.918  0.0989  0.2197 -0.3323
  564loPI   C2A 9016  17.252   7.127   9.522 -0.1533 -0.0711 -0.2475
  564loPI   C3A 9017  17.197   7.072   9.154 -0.0595  0.0794  0.2022
  564loPI   C4A 9018  17.179   7.059   8.700  0.3434 -0.1172 -0.0008
  564loPI   C5A 9019  17.292   6.885   8.351 -0.0289  0.0222  0.2719
  564loPI   C6A 9020  17.487   7.040   8.023  0.3795  0.0069  0.1698
  564loPI   C1B 9021  16.759   7.163   9.858 -0.2061 -0.2088 -0.2796
  564loPI   C2B 9022  16.753   7.267   9.481  0.2933  0.0867  0.1915
  564loPI   C3B 9023  16.719   7.048   9.017  0.1163 -0.4295 -0.2032
  564loPI   C4B 9024  16.670   7.062   8.578  0.0842 -0.0735 -0.0534
  565loPI    C1 9025  13.269   3.280  10.799  0.1557  0.0342  0.2033
  565loPI    C2 9026  13.210   3.467  11.148  0.1328 -0.2319  0.3448
  565loPI    C3 9027  12.920   3.240  10.991  0.1038 -0.0297  0.0968
  565loPI   PO4 9028  13.396   3.446  10.723 -0.1748 -0.1195  0.2121
  565loPI   GL1 9029  13.620   3.444  10.325  0.0639 -0.3335 -0.2301
  565loPI   GL2 9030  13.267   3.646  10.300 -0.0043  0.0248 -0.2885
  565loPI   C1A 9031  13.920   3.695  10.003 -0.3043  0.2700  0.2567
  565loPI   C2A 9032  13.872   3.643   9.610 -0.0859  0.1667  0.1189
  565loPI   C3A 9033  13.790   3.737   9.234 -0.1632 -0.1782 -0.1016
  565loPI   C4A 9034  13.823   3.604   8.822  0.2430  0.1270 -0.0477
  565loPI   C5A 9035  13.725   3.611   8.327  0.2633  0.2385  0.0867
  565loPI   C6A 9036  13.738   3.602   7.855 -0.1940 -0.1179 -0.1007
  565loPI   C1B 9037  13.409   3.785   9.876 -0.0249 -0.0374 -0.0664
  565loPI   C2B 9038  13.220   3.644   9.453  0.1542  0.1346 -0.1943
  565loPI   C3B 9039  13.261   3.727   9.086  0.0059 -0.1815 -0.1278
  565loPI   C4B 9040  13.336   3.689   8.635 -0.1459 -0.0867  0.1323
  566loPI    C1 9041  16.606   1.046  10.490 -0.0995 -0.0357  0.1199
  566loPI    C2 9042  16.770   1.135  10.137 -0.2018  0.1174  0.1100
  566loPI    C3 9043  16.688   1.427  10.398 -0.1127  0.0033  0.2670
  566loPI   PO4 9044  16.412   0.916  10.434 -0.0788 -0.1683  0.2470
  566loPI   GL1 9045  16.307   0.801  10.065 -0.1151 -0.0305  0.2194
  566loPI   GL2 9046  16.565   0.883   9.746 -0.1733 -0.2649  0.0001
  566loPI   C1A 9047  16.033   0.874   9.800  0.0631 -0.1181 -0.4442
  566loPI   C2A 9048  15.677   0.782   9.525 -0.3045  0.0340 -0.0331
  566loPI   C3A 9049  15.550   0.711   9.145 -0.0779  0.1481 -0.0839
  566loPI   C4A 9050  15.526   0.649   8.751 -0.2119  0.2397 -0.1642
  566loPI   C5A 9051  15.497   1.022   8.508  0.0841 -0.0659 -0.0166
  566loPI   C6A 9052  15.602   1.447   8.346 -0.1921 -0.1030 -0.0200
  566loPI   C1B 9053  16.287   1.206   9.478 -0.1645  0.1719 -0.1229
  566loPI   C2B 9054  16.432   1.515   9.432 -0.0585 -0.0678  0.0374
  566loPI   C3B 9055  16.463   1.891   9.457  0.2209  0.1816  0.1686
  566loPI   C4B 9056  16.736   2.227   9.195 -0.0938 -0.0008 -0.0456
  567loPI    C1 9057  10.485  17.082  10.517  0.1395  0.2096 -0.3885
  567loPI    C2 9058  10.880  17.045  10.569  0.0793 -0.1485 -0.1493
  567loPI    C3 9059  10.632  16.995  10.879 -0.1523  0.1518 -0.2813
  567loPI   PO4 9060  10.479  16.997  10.270 -0.0216  0.0864  0.0268
  567loPI   GL1 9061  10.733  16.889   9.939  0.0021 -0.2598  0.1149
  567loPI   GL2 9062  10.638  16.520   9.843 -0.2743  0.0725  0.0697
  567loPI   C1A 9063  10.757  16.945   9.449 -0.1916 -0.1602 -0.2510
  567loPI   C2A 9064  10.702  17.099   9.025  0.1113 -0.0059 -0.3134
  567loPI   C3A 9065  10.848  17.227   8.675  0.0011  0.2200 -0.1715
  567loPI   C4A 9066  10.974  17.126   8.219 -0.0072  0.1725  0.0096
  567loPI   C5A 9067  10.966  16.735   8.040  0.0270 -0.0295 -0.2803
  567loPI   C6A 9068  10.925  16.610   7.609  0.0967  0.3071 -0.0620
  567loPI   C1B 9069  10.721  16.429   9.318 -0.4097 -0.6928  0.1452
  567loPI   C2B 9070  10.731  16.560   8.826 -0.0676 -0.0241 -0.3082
  567loPI   C3B 9071  11.090  16.401   8.566 -0.1145 -0.2646 -0.1501
  567loPI   C4B 9072  11.503  16.535   8.372  0.2675  0.3940 -0.1015
  568loPI    C1 9073  18.006  11.302  10.791 -0.0547 -0.0665  0.0737
  568loPI    C2 9074  17.788  11.314  11.125  0.0368  0.0225  0.1311
  568loPI    C3 9075  18.182  11.248  11.146  0.1124  0.4326  0.0757
  568loPI   PO4 9076  17.968  11.183  10.586 -0.2651 -0.1036 -0.0941
  568loPI   GL1 9077  17.719  11.057  10.278  0.0395 -0.2999 -0.0257
  568loPI   GL2 9078  17.866  10.832  10.314 -0.2274  0.1958 -0.0791
  568loPI   C1A 9079  17.900  11.056   9.835 -0.0014  0.0925 -0.1828
  568loPI   C2A 9080  17.988  11.199   9.487 -0.1664 -0.0534 -0.0783
  568loPI   C3A 9081  18.026  11.357   9.066  0.0451  0.2165  0.0015
  568loPI   C4A 9082  17.745  11.347   8.704 -0.0909  0.0209  0.1829
  568loPI   C5A 9083  17.400  11.549   8.548  0.0073  0.3841  0.2469
  568loPI   C6A 9084  17.278  11.750   8.182  0.1037  0.2042  0.1275
  568loPI   C1B 9085  17.561  10.668  10.043  0.0621  0.1497 -0.2240
  568loPI   C2B 9086  17.642  10.692   9.557 -0.0159  0.1547 -0.0883
  568loPI   C3B 9087  17.487  10.666   9.146  0.2281 -0.1578 -0.3937
  568loPI   C4B 9088  17.528  10.657   8.741 -0.0015 -0.2787 -0.2189
  569loPI    C1 9089   1.761  13.076  10.780  0.1806  0.0153 -0.2448
  569loPI    C2 9090   2.066  12.971  11.017  0.1154  0.0776 -0.1325
  569loPI    C3 9091   1.785  13.222  11.152 -0.0097 -0.0146 -0.2201
  569loPI   PO4 9092   1.920  13.130  10.478  0.2028  0.4419  0.1206
  569loPI   GL1 9093   1.733  13.136  10.097 -0.0740 -0.2323 -0.2125
  569loPI   GL2 9094   1.450  12.993   9.998 -0.2622 -0.0046 -0.0762
  569loPI   C1A 9095   1.624  13.318   9.690 -0.0468 -0.0558  0.2134
  569loPI   C2A 9096   1.665  13.419   9.280 -0.0707  0.1268 -0.0520
  569loPI   C3A 9097   1.730  13.379   8.892  0.3809  0.7167  0.0474
  569loPI   C4A 9098   1.692  13.202   8.415  0.0238 -0.2142 -0.0735
  569loPI   C5A 9099   1.618  13.315   8.100  0.0766 -0.1399  0.1418
  569loPI   C6A 9100   1.505  13.445   7.801 -0.1099 -0.0431 -0.0956
  569loPI   C1B 9101   1.244  13.014   9.679  0.2057 -0.0094 -0.1979
  569loPI   C2B 9102   1.200  13.032   9.225  0.2063 -0.1022 -0.1169
  569loPI   C3B 9103   1.179  12.964   8.817  0.1681 -0.0367  0.0421
  569loPI   C4B 9104   1.246  12.882   8.295 -0.3083  0.1531  0.1167
  570loPI    C1 9105  11.372  17.087  10.355 -0.2354  0.0498 -0.2311
  570loPI    C2 9106  11.411  17.444  10.180 -0.0693  0.0948 -0.1045
  570loPI    C3 9107  11.296  17.421  10.562  0.1210  0.0235 -0.0506
  570loPI   PO4 9108  11.195  16.967  10.079  0.0222 -0.0746  0.1079
  570loPI   GL1 9109  11.015  17.260   9.746 -0.2164 -0.2651  0.0311
  570loPI   GL2 9110  11.206  17.408   9.603  0.1154 -0.0168 -0.1354
  570loPI   C1A 9111  10.741  17.515   9.425  0.2233 -0.2730 -0.1231
  570loPI   C2A 9112  10.888  17.608   9.067  0.1866 -0.3238 -0.1558
  570loPI   C3A 9113  10.717  17.754   8.713 -0.2134 -0.0301  0.2196
  570loPI   C4A 9114  10.754  17.723   8.229  0.2201 -0.2504 -0.0632
  570loPI   C5A 9115  10.487  17.627   7.874  0.3951 -0.1025  0.0743
  570loPI   C6A 9116  10.657  17.514   7.525  0.2472  0.1701  0.0681
  570loPI   C1B 9117  11.235  17.272   9.095 -0.2170  0.0467 -0.1240
  570loPI   C2B 9118  11.270  17.526   8.728  0.1573  0.1395 -0.1107
  570loPI   C3B 9119  11.256  17.542   8.258 -0.0295  0.2560 -0.2402
  570loPI   C4B 9120  11.456  17.388   7.964 -0.1761 -0.3079  0.0209
  571loPI    C1 9121   3.225   3.977  10.598  0.0442  0.0427  0.0429
  571loPI    C2 9122   3.056   4.113  10.934 -0.3485 -0.2417 -0.0327
  571loPI    C3 9123   3.352   3.844  10.953 -0.0184  0.1203  0.0948
  571loPI   PO4 9124   3.277   4.159  10.402 -0.1201 -0.0595 -0.0181
  571loPI   GL1 9125   3.462   4.092   9.970 -0.1136  0.1962 -0.3577
  571loPI   GL2 9126   3.195   4.241   9.942  0.0941 -0.0262  0.1444
  571loPI   C1A 9127   3.554   3.855   9.681  0.0813  0.2083  0.0431
  571loPI   C2A 9128   3.606   3.826   9.231  0.0568 -0.0623  0.0763
  571loPI   C3A 9129   3.548   3.746   8.900 -0.0362  0.1348  0.3224
  571loPI   C4A 9130   3.525   3.800   8.504  0.0162  0.1711  0.3394
  571loPI   C5A 9131   3.561   3.755   8.077  0.1379  0.1312 -0.0573
  571loPI   C6A 9132   3.427   3.932   7.647 -0.1962  0.0449  0.0644
  571loPI   C1B 9133   3.221   4.231   9.484 -0.0428 -0.2205 -0.1365
  571loPI   C2B 9134   3.148   4.066   9.057  0.0548  0.0717  0.0261
  571loPI   C3B 9135   3.152   4.124   8.671 -0.0415  0.1408  0.0770
  571loPI   C4B 9136   3.124   4.083   8.192 -0.1168  0.1588 -0.0560
  572loPI    C1 9137  16.020   5.807  10.920  0.1534 -0.1941  0.1731
  572loPI    C2 9138  15.881   6.143  11.086 -0.0458 -0.1343 -0.1073
  572loPI    C3 9139  15.746   5.788  11.211  0.0657 -0.1064  0.0970
  572loPI   PO4 9140  16.142   5.909  10.682  0.1219 -0.0394  0.1437
  572loPI   GL1 9141  16.127   6.154  10.262 -0.0492  0.0703 -0.0626
  572loPI   GL2 9142  16.107   6.354  10.381 -0.1594  0.2254 -0.0421
  572loPI   C1A 9143  16.121   6.291   9.819 -0.2664 -0.1732  0.0003
  572loPI   C2A 9144  16.152   6.201   9.364 -0.1176 -0.2506  0.2214
  572loPI   C3A 9145  16.177   6.195   8.912  0.1108  0.1114  0.0487
  572loPI   C4A 9146  16.018   6.066   8.485  0.3720  0.2134 -0.0713
  572loPI   C5A 9147  15.741   6.100   8.067  0.2005  0.0060 -0.0838
  572loPI   C6A 9148  15.639   6.377   7.751  0.0236 -0.1299  0.0484
  572loPI   C1B 9149  15.650   6.292  10.152 -0.3958 -0.0824 -0.1051
  572loPI   C2B 9150  15.587   6.323   9.736  0.0121  0.1681 -0.0772
  572loPI   C3B 9151  15.668   6.356   9.399 -0.1708 -0.0031  0.2939
  572loPI   C4B 9152  15.657   6.249   8.932 -0.0196  0.0072  0.0348
  573loPI    C1 9153   5.604   9.405  10.447  0.1579 -0.2771 -0.0337
  573loPI    C2 9154   5.944   9.509  10.262 -0.1352  0.2600 -0.2948
  573loPI    C3 9155   5.848   9.676  10.613 -0.0816  0.0264 -0.1668
  573loPI   PO4 9156   5.469   9.420  10.217 -0.0846 -0.1184  0.1939
  573loPI   GL1 9157   5.691   9.517   9.817 -0.4251 -0.0676 -0.1173
  573loPI   GL2 9158   5.340   9.290   9.773  0.2049 -0.0957 -0.0012
  573loPI   C1A 9159   5.562   9.673   9.476  0.1585 -0.3288  0.0996
  573loPI   C2A 9160   5.442  10.125   9.347  0.0551 -0.1378  0.0772
  573loPI   C3A 9161   5.455  10.294   8.935  0.1725 -0.0729  0.1262
  573loPI   C4A 9162   5.341  10.456   8.558  0.1261 -0.2108  0.2607
  573loPI   C5A 9163   5.509  10.712   8.224  0.2813  0.0445  0.0200
  573loPI   C6A 9164   5.423  10.693   7.748 -0.3730 -0.2004  0.2049
  573loPI   C1B 9165   5.272   9.189   9.405  0.0096  0.0803 -0.0080
  573loPI   C2B 9166   5.450   8.955   9.102 -0.0629  0.0422 -0.1061
  573loPI   C3B 9167   5.621   8.761   8.637 -0.1647 -0.0647  0.2409
  573loPI   C4B 9168   5.782   8.785   8.223 -0.0057  0.0487 -0.2201
  574loPI    C1 9169  13.564   6.959  10.913 -0.1727 -0.1513  0.1860
  574loPI    C2 9170  13.791   7.246  11.074 -0.2246 -0.0091  0.0081
  574loPI    C3 9171  13.757   6.892  11.257  0.0656 -0.0006  0.0837
  574loPI   PO4 9172  13.599   6.995  10.654 -0.1020 -0.1586  0.1738
  574loPI   GL1 9173  13.396   6.913  10.382  0.0784 -0.0605  0.1601
  574loPI   GL2 9174  13.736   6.715  10.261  0.3142 -0.0145  0.3377
  574loPI   C1A 9175  13.328   6.879   9.932 -0.1769  0.0571  0.1277
  574loPI   C2A 9176  13.418   6.891   9.510  0.0922 -0.0159 -0.3359
  574loPI   C3A 9177  13.333   6.851   9.174 -0.0640  0.2166  0.1447
  574loPI   C4A 9178  13.347   6.814   8.665 -0.4920 -0.3463  0.0925
  574loPI   C5A 9179  13.228   6.830   8.274  0.0742  0.0150  0.2750
  574loPI   C6A 9180  12.964   7.103   8.104 -0.1221  0.1542  0.1377
  574loPI   C1B 9181  13.817   6.904   9.870  0.1840  0.0819  0.1422
  574loPI   C2B 9182  13.896   6.835   9.489 -0.2632  0.4888  0.1368
  574loPI   C3B 9183  13.881   6.791   9.029 -0.1373 -0.0784 -0.0120
  574loPI   C4B 9184  13.959   6.840   8.584 -0.1315  0.0269 -0.3571
  575loPI    C1 9185   8.882  14.867   9.976 -0.1655  0.1036  0.0808
  575loPI    C2 9186   9.070  14.995  10.305  0.0663  0.0903 -0.0440
  575loPI    C3 9187   8.709  14.826  10.334  0.1190  0.0166  0.2118
  575loPI   PO4 9188   9.039  14.770   9.881  0.0561  0.0171  0.1690
  575loPI   GL1 9189   9.337  14.851   9.522  0.4105  0.1344  0.1457
  575loPI   GL2 9190   9.300  14.599   9.391  0.1112  0.0389  0.2606
  575loPI   C1A 9191   9.493  15.034   9.127  0.0365 -0.0762 -0.1222
  575loPI   C2A 9192   9.576  15.018   8.706 -0.1542  0.1607  0.3372
  575loPI   C3A 9193   9.836  14.981   8.347  0.1220 -0.1182 -0.1556
  575loPI   C4A 9194   9.715  15.074   7.982 -0.2380  0.0741 -0.0196
  575loPI   C5A 9195   9.591  15.454   7.654 -0.1673 -0.0291 -0.1173
  575loPI   C6A 9196   9.867  15.760   7.451 -0.0982 -0.0047 -0.0375
  575loPI   C1B 9197   9.311  14.559   8.898  0.1814 -0.2918 -0.0979
  575loPI   C2B 9198   9.543  14.521   8.492 -0.0534 -0.4434  0.0736
  575loPI   C3B 9199   9.664  14.643   8.119 -0.0510  0.1718 -0.1541
  575loPI   C4B 9200   9.451  14.558   7.705 -0.1854  0.1772 -0.1641
  576loPI    C1 9201   4.753   5.519  10.614 -0.0784  0.1326  0.3142
  576loPI    C2 9202   4.710   5.267  10.922 -0.0048 -0.2153  0.0460
  576loPI    C3 9203   5.053   5.276  10.717 -0.0111  0.0986  0.0444
  576loPI   PO4 9204   4.597   5.479  10.476  0.0693  0.3611 -0.1634
  576loPI   GL1 9205   4.483   5.459  10.079  0.1208 -0.0824  0.0541
  576loPI   GL2 9206   4.751   5.707   9.821 -0.1311 -0.2396  0.1498
  576loPI   C1A 9207   4.606   5.227   9.710  0.0691  0.0710 -0.1094
  576loPI   C2A 9208   4.666   5.103   9.325 -0.2197 -0.0208 -0.6366
  576loPI   C3A 9209   4.666   5.186   8.846  0.0400 -0.0980 -0.0673
  576loPI   C4A 9210   4.679   5.173   8.446  0.0326  0.2881  0.2783
  576loPI   C5A 9211   4.699   5.220   7.892  0.2632 -0.3122 -0.0779
  576loPI   C6A 9212   4.375   5.322   7.611 -0.2640 -0.1475 -0.0648
  576loPI   C1B 9213   4.353   5.648   9.468  0.1060 -0.0986  0.4475
  576loPI   C2B 9214   4.256   5.459   9.104 -0.1373  0.4036 -0.0870
  576loPI   C3B 9215   4.217   5.509   8.663 -0.0537 -0.0903  0.4540
  576loPI   C4B 9216   4.300   5.456   8.159  0.2449 -0.1225 -0.0636
  577loPI    C1 9217  11.547  18.334  10.238  0.0598  0.0206 -0.1020
  577loPI    C2 9218  11.506  17.950  10.342 -0.0955  0.0458 -0.0670
  577loPI    C3 9219  11.610  18.221  10.617 -0.1464  0.0543 -0.0558
  577loPI   PO4 9220  11.648  18.316   9.943 -0.0449 -0.4247 -0.0552
  577loPI   GL1 9221  11.866  18.297   9.641  0.1342 -0.0259  0.2079
  577loPI   GL2 9222  12.108  18.457   9.597 -0.1146  0.0828  0.0152
  577loPI   C1A 9223  12.054  18.049   9.333 -0.0273  0.1194  0.1630
  577loPI   C2A 9224  12.113  18.111   8.973  0.1489 -0.0424 -0.0803
  577loPI   C3A 9225  12.146  18.098   8.467 -0.1081  0.0137 -0.1925
  577loPI   C4A 9226  12.129  18.377   8.181  0.0706 -0.0141  0.1125
  577loPI   C5A 9227  12.262  18.621   7.811 -0.0016  0.3000 -0.0278
  577loPI   C6A 9228  12.028  18.845   7.573 -0.1789  0.1359 -0.3873
  577loPI   C1B 9229  12.196  18.549   9.167  0.0702  0.1553  0.0950
  577loPI   C2B 9230  11.987  18.568   8.736  0.0869 -0.1496  0.0552
  577loPI   C3B 9231  11.626  18.298   8.608 -0.0769  0.2295  0.0350
  577loPI   C4B 9232  11.607  17.860   8.452  0.0767 -0.0799 -0.0504
  578loPI    C1 9233  13.988   1.696  10.574 -0.0292 -0.2928 -0.3172
  578loPI    C2 9234  13.613   1.815  10.501  0.0370 -0.1191 -0.3817
  578loPI    C3 9235  13.698   1.611  10.835 -0.0454  0.1877 -0.1697
  578loPI   PO4 9236  14.045   1.659  10.340 -0.1400 -0.1226  0.0252
  578loPI   GL1 9237  14.214   1.262  10.032  0.2316 -0.0641 -0.4336
  578loPI   GL2 9238  14.486   1.556  10.007 -0.1822 -0.0279 -0.2954
  578loPI   C1A 9239  14.144   1.334   9.623 -0.0385 -0.1761 -0.2783
  578loPI   C2A 9240  13.913   1.392   9.185  0.2825 -0.1985  0.1809
  578loPI   C3A 9241  13.689   1.228   8.812 -0.0014  0.1801 -0.0261
  578loPI   C4A 9242  13.322   1.187   8.567  0.1377  0.0736 -0.0154
  578loPI   C5A 9243  13.086   1.459   8.193  0.3213 -0.0018  0.1083
  578loPI   C6A 9244  12.771   1.641   8.079  0.3184 -0.2438  0.1195
  578loPI   C1B 9245  14.630   1.458   9.658  0.3836  0.0194  0.0704
  578loPI   C2B 9246  14.404   1.366   9.231 -0.2056  0.0050  0.3771
  578loPI   C3B 9247  14.657   1.233   8.906  0.0647  0.1343  0.2563
  578loPI   C4B 9248  14.825   1.121   8.501  0.2631 -0.0593  0.2347
  579loPI    C1 9249   7.266  11.212  10.694  0.0432 -0.1189  0.3531
  579loPI    C2 9250   7.654  11.293  10.643 -0.0194 -0.1176 -0.1782
  579loPI    C3 9251   7.542  10.936  10.784  0.1748 -0.0772  0.0874
  579loPI   PO4 9252   7.150  11.311  10.518  0.1633 -0.0269  0.0656
  579loPI   GL1 9253   6.967  11.416  10.088 -0.1004 -0.0450 -0.0160
  579loPI   GL2 9254   7.080  11.140  10.028  0.0381  0.0054  0.2398
  579loPI   C1A 9255   7.329  11.487   9.764 -0.1047  0.1262 -0.4024
  579loPI   C2A 9256   7.438  11.677   9.435 -0.1729  0.0112 -0.1235
  579loPI   C3A 9257   7.767  11.765   9.203 -0.3879 -0.1507  0.2508
  579loPI   C4A 9258   7.710  11.869   8.765  0.1310 -0.2886  0.0473
  579loPI   C5A 9259   7.630  12.059   8.367  0.2812  0.2597 -0.3395
  579loPI   C6A 9260   7.396  12.046   7.998  0.2627 -0.0361  0.0747
  579loPI   C1B 9261   6.989  10.798   9.617 -0.0303 -0.2392  0.1046
  579loPI   C2B 9262   6.669  10.723   9.301  0.1635  0.1066  0.1714
  579loPI   C3B 9263   6.601  10.599   8.920 -0.0176 -0.2046 -0.0080
  579loPI   C4B 9264   6.661  10.560   8.399 -0.1025 -0.1828  0.3526
  580loPI    C1 9265   1.684   2.729  10.320  0.0719 -0.0919 -0.0561
  580loPI    C2 9266   1.569   2.354  10.400 -0.1462 -0.0583 -0.2020
  580loPI    C3 9267   1.448   2.655  10.635  0.0654 -0.0828 -0.0589
  580loPI   PO4 9268   1.772   2.697  10.085  0.0032  0.0227  0.0848
  580loPI   GL1 9269   1.999   2.674   9.841  0.0289  0.0391  0.2123
  580loPI   GL2 9270   1.962   3.100   9.836  0.0341 -0.0400  0.2469
  580loPI   C1A 9271   2.078   2.792   9.395 -0.1862  0.0185 -0.1209
  580loPI   C2A 9272   2.006   2.825   8.956  0.2809  0.6887 -0.1329
  580loPI   C3A 9273   1.956   2.732   8.500 -0.0921 -0.0109  0.3491
  580loPI   C4A 9274   2.054   2.679   8.098  0.1565  0.1942  0.0647
  580loPI   C5A 9275   2.280   2.648   7.631  0.2154 -0.2646  0.3437
  580loPI   C6A 9276   2.458   2.984   7.459 -0.0416  0.2905  0.0634
  580loPI   C1B 9277   2.157   3.243   9.541  0.1271  0.3786  0.0141
  580loPI   C2B 9278   2.137   3.253   9.163  0.0814 -0.0700 -0.3602
  580loPI   C3B 9279   2.052   3.211   8.651  0.1065  0.2283  0.1816
  580loPI   C4B 9280   2.126   3.208   8.106 -0.2920  0.0722  0.0335
  581loPI    C1 9281  -0.133   8.060  10.606 -0.0362 -0.1179  0.1352
  581loPI    C2 9282   0.243   8.160  10.514 -0.0474 -0.0650  0.1469
  581loPI    C3 9283   0.108   8.212  10.887 -0.1911  0.3010  0.0491
  581loPI   PO4 9284  -0.143   7.850  10.574  0.0778  0.0614 -0.0833
  581loPI   GL1 9285  -0.376   7.681  10.250  0.2369 -0.0064 -0.0583
  581loPI   GL2 9286  -0.608   7.838  10.304  0.2004  0.4019 -0.0565
  581loPI   C1A 9287  -0.464   7.744   9.829 -0.0592 -0.3523  0.2356
  581loPI   C2A 9288  -0.305   7.783   9.315  0.2422 -0.0280  0.0692
  581loPI   C3A 9289  -0.296   7.932   8.875  0.3514  0.3973 -0.1072
  581loPI   C4A 9290  -0.564   8.120   8.508 -0.1025  0.4142  0.0620
  581loPI   C5A 9291  -0.651   8.460   8.212  0.0027  0.1074  0.3908
  581loPI   C6A 9292  -0.916   8.443   7.842  0.0792 -0.1090  0.2444
  581loPI   C1B 9293  -0.948   7.837   9.858 -0.1209 -0.2648 -0.1440
  581loPI   C2B 9294  -0.828   7.801   9.410 -0.2179 -0.1144  0.0557
  581loPI   C3B 9295  -0.952   7.875   8.964 -0.3850 -0.0070  0.0462
  581loPI   C4B 9296  -0.903   7.784   8.551  0.0104  0.2246 -0.1187
  582loPI    C1 9297  11.024   7.874  10.964 -0.0738  0.2483  0.0012
  582loPI    C2 9298  11.082   8.205  11.182 -0.1650  0.1597  0.1616
  582loPI    C3 9299  11.202   7.850  11.322 -0.1213  0.1169  0.0165
  582loPI   PO4 9300  11.095   7.948  10.679 -0.0555  0.0936  0.0276
  582loPI   GL1 9301  10.822   8.210  10.453  0.1614 -0.1129  0.1419
  582loPI   GL2 9302  10.469   8.102  10.342 -0.0285 -0.0046 -0.0882
  582loPI   C1A 9303  11.010   8.263  10.048  0.0126 -0.2666 -0.0033
  582loPI   C2A 9304  11.151   8.304   9.573 -0.0159  0.1161 -0.2439
  582loPI   C3A 9305  11.144   8.314   9.150 -0.0127 -0.0012 -0.0340
  582loPI   C4A 9306  11.218   8.171   8.739  0.0286 -0.1380 -0.0154
  582loPI   C5A 9307  11.205   7.954   8.372  0.1613  0.0022  0.2136
  582loPI   C6A 9308  11.224   7.853   7.925 -0.2852 -0.1485 -0.1043
  582loPI   C1B 9309  10.305   7.951   9.988  0.2431  0.2490  0.0141
  582loPI   C2B 9310  10.349   7.932   9.512  0.0211  0.0253 -0.2070
  582loPI   C3B 9311  10.336   7.958   9.044 -0.1049  0.0108  0.1522
  582loPI   C4B 9312  10.339   7.924   8.664  0.1199  0.1180 -0.0667
  583loPI    C1 9313  11.089   0.050  10.188  0.0948 -0.1623  0.1145
  583loPI    C2 9314  11.335  -0.033  10.492  0.0808  0.0790  0.1938
  583loPI    C3 9315  10.940  -0.011  10.554  0.0807  0.1613  0.1652
  583loPI   PO4 9316  11.142  -0.146  10.016  0.1794  0.3260  0.2315
  583loPI   GL1 9317  11.310  -0.187   9.552 -0.1113 -0.2428 -0.2370
  583loPI   GL2 9318  11.351  -0.429   9.541 -0.0931 -0.1403 -0.2393
  583loPI   C1A 9319  11.273  -0.124   9.097 -0.0354 -0.0183 -0.3767
  583loPI   C2A 9320  11.181  -0.184   8.734 -0.0489  0.2596 -0.1085
  583loPI   C3A 9321  11.220  -0.224   8.235  0.2217 -0.0006  0.2411
  583loPI   C4A 9322  11.289  -0.115   7.731 -0.2007 -0.1640 -0.1576
  583loPI   C5A 9323  11.292  -0.293   7.292 -0.0113  0.5005 -0.1185
  583loPI   C6A 9324  11.668  -0.254   7.034 -0.2510  0.1766  0.0001
  583loPI   C1B 9325  11.211  -0.609   9.074  0.0280 -0.0901 -0.2181
  583loPI   C2B 9326  11.157  -0.760   8.657 -0.2668 -0.1948  0.0378
  583loPI   C3B 9327  11.221  -0.721   8.210 -0.0902 -0.1178 -0.4416
  583loPI   C4B 9328  11.556  -0.867   7.946 -0.2658 -0.1982  0.0344
  584loPI    C1 9329  17.912   7.445  10.697  0.1637 -0.2860 -0.0748
  584loPI    C2 9330  18.082   7.265  11.012  0.1800  0.2822  0.2554
  584loPI    C3 9331  18.300   7.503  10.777  0.1684 -0.1409 -0.2010
  584loPI   PO4 9332  17.726   7.282  10.595  0.1518 -0.0524 -0.0236
  584loPI   GL1 9333  17.511   7.249  10.289  0.1172 -0.1463  0.0630
  584loPI   GL2 9334  17.347   7.521  10.152  0.0149  0.0395  0.2444
  584loPI   C1A 9335  17.709   6.962   9.979  0.2202 -0.0792  0.0600
  584loPI   C2A 9336  17.744   7.013   9.439 -0.1578 -0.1828 -0.1096
  584loPI   C3A 9337  17.721   7.009   9.028  0.2108 -0.1774 -0.2874
  584loPI   C4A 9338  17.873   6.903   8.678 -0.2476  0.1088  0.1511
  584loPI   C5A 9339  17.967   7.014   8.311  0.1650  0.0370  0.3967
  584loPI   C6A 9340  17.908   6.786   7.918 -0.0078  0.0746 -0.1316
  584loPI   C1B 9341  17.095   7.582   9.869  0.0601  0.1400  0.1845
  584loPI   C2B 9342  17.088   7.581   9.424 -0.3253  0.0688  0.0057
  584loPI   C3B 9343  17.024   7.560   9.031 -0.1384 -0.0393 -0.1177
  584loPI   C4B 9344  17.073   7.551   8.561 -0.0084  0.3195  0.2039
  585loPI    C1 9345  11.759   2.549  10.631  0.1860 -0.1010 -0.0906
  585loPI    C2 9346  11.425   2.711  10.779  0.1535 -0.0647 -0.2027
  585loPI    C3 9347  11.558   2.363  10.923  0.2738  0.1036  0.1033
  585loPI   PO4 9348  11.751   2.614  10.349  0.0923 -0.0876  0.3148
  585loPI   GL1 9349  11.930   2.465  10.008  0.2942  0.1574 -0.1059
  585loPI   GL2 9350  11.580   2.346   9.981 -0.0239  0.3594 -0.0777
  585loPI   C1A 9351  12.119   2.800   9.762 -0.0158  0.0233 -0.0642
  585loPI   C2A 9352  12.255   2.936   9.317 -0.4244  0.0940  0.1560
  585loPI   C3A 9353  12.270   2.913   8.799  0.1217 -0.0152 -0.1110
  585loPI   C4A 9354  12.239   2.956   8.382  0.1346 -0.2318  0.1246
  585loPI   C5A 9355  12.137   2.765   7.984  0.2865 -0.1316  0.0608
  585loPI   C6A 9356  11.778   2.461   8.082  0.4416  0.0691 -0.1268
  585loPI   C1B 9357  11.513   2.553   9.647 -0.0455  0.0102  0.0919
  585loPI   C2B 9358  11.487   2.564   9.248 -0.0188 -0.0601 -0.2881
  585loPI   C3B 9359  11.468   2.538   8.805 -0.1916 -0.1191  0.1192
  585loPI   C4B 9360  11.517   2.592   8.498  0.0691  0.1379 -0.0940
  586loPI    C1 9361  14.481   1.752  10.502 -0.0284 -0.2798  0.0172
  586loPI    C2 9362  14.352   1.986  10.799 -0.2061 -0.2849 -0.0544
  586loPI    C3 9363  14.597   1.680  10.878  0.0635 -0.0513  0.0340
  586loPI   PO4 9364  14.518   1.963  10.288  0.3294 -0.3589 -0.1366
  586loPI   GL1 9365  14.241   1.972   9.932  0.0940  0.1957 -0.0387
  586loPI   GL2 9366  14.001   2.289   9.873 -0.1827 -0.3976  0.1718
  586loPI   C1A 9367  14.236   1.886   9.474 -0.1056  0.0925  0.1920
  586loPI   C2A 9368  14.174   1.824   9.012  0.2609  0.2030 -0.0788
  586loPI   C3A 9369  14.183   1.641   8.609  0.0704  0.1170 -0.0083
  586loPI   C4A 9370  13.927   1.412   8.392  0.2024 -0.2938  0.0358
  586loPI   C5A 9371  13.965   1.268   7.957 -0.0590  0.2723  0.2702
  586loPI   C6A 9372  13.707   1.057   7.623  0.0894  0.2482  0.0129
  586loPI   C1B 9373  14.100   2.342   9.414 -0.2522  0.0249 -0.3292
  586loPI   C2B 9374  14.007   2.342   9.121  0.2516 -0.3146  0.1278
  586loPI   C3B 9375  13.940   2.153   8.705 -0.2090 -0.0104  0.1843
  586loPI   C4B 9376  14.010   2.044   8.262  0.0680  0.1535 -0.1460
  587loPI    C1 9377  13.583  18.491  10.146  0.0474  0.1140  0.2218
  587loPI    C2 9378  13.462  18.255  10.446 -0.2240  0.0590  0.0728
  587loPI    C3 9379  13.724  18.549  10.516 -0.2606  0.0273  0.3563
  587loPI   PO4 9380  13.605  18.332   9.957  0.2072  0.0384  0.3945
  587loPI   GL1 9381  13.874  18.419   9.657 -0.0515 -0.2333 -0.0980
  587loPI   GL2 9382  13.634  18.809   9.631  0.0769 -0.0397  0.1759
  587loPI   C1A 9383  14.019  18.565   9.296 -0.0877  0.0182  0.1341
  587loPI   C2A 9384  13.883  18.803   8.994 -0.0960  0.2186  0.1245
  587loPI   C3A 9385  13.780  18.943   8.551 -0.1408 -0.3212  0.0184
  587loPI   C4A 9386  13.658  19.196   8.186  0.2826  0.1323  0.2090
  587loPI   C5A 9387  13.902  19.448   7.954  0.0406 -0.2119  0.0891
  587loPI   C6A 9388  14.257  19.602   7.927  0.1019 -0.2022  0.0523
  587loPI   C1B 9389  13.505  18.917   9.257 -0.1249 -0.1563 -0.2528
  587loPI   C2B 9390  13.429  19.099   8.867  0.0081 -0.0273  0.0377
  587loPI   C3B 9391  13.329  18.934   8.466 -0.1522 -0.3250  0.0273
  587loPI   C4B 9392  13.173  18.850   7.951  0.1968  0.0060 -0.1457
  588loPI    C1 9393   5.845   5.230  10.725 -0.1673 -0.1580 -0.2444
  588loPI    C2 9394   5.614   5.512  10.891  0.0219 -0.1362 -0.0120
  588loPI    C3 9395   5.493   5.130  10.888 -0.0138 -0.1264  0.1162
  588loPI   PO4 9396   5.961   5.313  10.518 -0.0997 -0.0905  0.0948
  588loPI   GL1 9397   6.382   5.276  10.234  0.0445  0.0080 -0.0903
  588loPI   GL2 9398   6.617   4.964  10.152  0.2223 -0.2736  0.1051
  588loPI   C1A 9399   6.419   5.518   9.914 -0.0020  0.3585  0.0719
  588loPI   C2A 9400   6.479   5.559   9.478 -0.0876 -0.0234 -0.0969
  588loPI   C3A 9401   6.576   5.593   9.135  0.0967 -0.2697 -0.2118
  588loPI   C4A 9402   6.470   5.474   8.772 -0.1926  0.2451  0.0984
  588loPI   C5A 9403   6.487   5.607   8.432  0.1787  0.1912 -0.2249
  588loPI   C6A 9404   6.622   5.826   8.125  0.0688 -0.0579  0.0899
  588loPI   C1B 9405   6.723   5.045   9.796  0.0838  0.2241  0.1355
  588loPI   C2B 9406   6.801   5.196   9.346 -0.0177 -0.0356 -0.2809
  588loPI   C3B 9407   6.797   5.101   8.893 -0.0365  0.0049 -0.1157
  588loPI   C4B 9408   6.897   5.176   8.440 -0.1103 -0.1948  0.0550
  589loPI    C1 9409   1.734  14.175  10.567 -0.1954  0.1604  0.0879
  589loPI    C2 9410   2.118  14.245  10.656 -0.1582  0.0955 -0.0194
  589loPI    C3 9411   1.908  13.981  10.871 -0.1453  0.1366  0.0441
  589loPI   PO4 9412   1.731  14.152  10.268  0.4000 -0.2434  0.1665
  589loPI   GL1 9413   1.468  13.938   9.918 -0.1214  0.0546  0.0952
  589loPI   GL2 9414   1.774  13.905   9.855 -0.3046  0.0674  0.0493
  589loPI   C1A 9415   1.215  14.002   9.628  0.1947 -0.1727  0.4767
  589loPI   C2A 9416   1.160  14.017   9.106  0.0196  0.1275  0.2138
  589loPI   C3A 9417   1.146  13.978   8.636  0.0804 -0.0111 -0.0364
  589loPI   C4A 9418   1.171  13.814   8.182 -0.0696 -0.0167 -0.3446
  589loPI   C5A 9419   1.086  13.852   7.806  0.1687  0.1025 -0.2179
  589loPI   C6A 9420   1.276  13.757   7.382  0.0023 -0.2836  0.1268
  589loPI   C1B 9421   2.060  13.670   9.600 -0.2171  0.2075  0.0016
  589loPI   C2B 9422   2.113  13.637   9.128  0.2815  0.2526 -0.0891
  589loPI   C3B 9423   2.134  13.708   8.730 -0.2320 -0.0029  0.1281
  589loPI   C4B 9424   2.070  13.576   8.271 -0.0025  0.0051  0.2106
  590loPI    C1 9425  16.076  14.568  10.869  0.1481  0.0612  0.2123
  590loPI    C2 9426  16.221  14.910  11.017  0.1548  0.1221  0.0669
  590loPI    C3 9427  16.288  14.566  11.208 -0.0212  0.2257  0.3211
  590loPI   PO4 9428  16.136  14.711  10.536 -0.1529  0.4408 -0.1555
  590loPI   GL1 9429  16.233  14.703  10.033 -0.4665 -0.0704  0.0269
  590loPI   GL2 9430  16.406  15.012  10.093 -0.1728 -0.1739  0.0487
  590loPI   C1A 9431  16.243  14.631   9.659 -0.1130  0.1646 -0.1040
  590loPI   C2A 9432  16.122  14.719   9.170  0.0230  0.2008  0.3444
  590loPI   C3A 9433  16.136  14.476   8.709  0.1523 -0.0030 -0.0881
  590loPI   C4A 9434  16.207  14.280   8.399 -0.2051 -0.2500  0.1564
  590loPI   C5A 9435  15.917  13.971   8.128  0.0707 -0.2739 -0.1548
  590loPI   C6A 9436  15.502  13.743   8.010  0.0392  0.3629 -0.0063
  590loPI   C1B 9437  16.536  15.040   9.671  0.3186  0.0986 -0.1551
  590loPI   C2B 9438  16.555  14.934   9.221  0.3428 -0.0721  0.0329
  590loPI   C3B 9439  16.503  14.793   8.858 -0.1435 -0.0684 -0.0731
  590loPI   C4B 9440  16.465  14.677   8.415 -0.1128  0.1064  0.0908
  591loPI    C1 9441  12.679   4.671  10.900  0.0622  0.0074 -0.0075
  591loPI    C2 9442  12.863   4.463  11.188 -0.0024 -0.1588 -0.0854
  591loPI    C3 9443  12.679   4.806  11.277  0.3587  0.0203 -0.0094
  591loPI   PO4 9444  12.712   4.441  10.666  0.0440 -0.1269 -0.5411
  591loPI   GL1 9445  12.909   4.540  10.191 -0.0084 -0.1352 -0.2041
  591loPI   GL2 9446  12.512   4.544  10.217 -0.2936 -0.0287 -0.4179
  591loPI   C1A 9447  12.932   4.651   9.791  0.0023  0.4897 -0.1036
  591loPI   C2A 9448  12.893   4.674   9.379  0.0521 -0.1995 -0.1791
  591loPI   C3A 9449  12.863   4.669   8.905 -0.2523 -0.0380 -0.1719
  591loPI   C4A 9450  13.005   4.683   8.416 -0.0392  0.0659  0.3323
  591loPI   C5A 9451  12.933   4.655   7.986  0.1108  0.1573  0.1284
  591loPI   C6A 9452  12.539   4.744   7.770 -0.0371  0.0057 -0.3191
  591loPI   C1B 9453  12.397   4.644   9.781  0.2776  0.1212  0.0067
  591loPI   C2B 9454  12.378   4.661   9.337  0.0040 -0.0455 -0.2056
  591loPI   C3B 9455  12.345   4.699   8.905  0.2727  0.1830  0.3116
  591loPI   C4B 9456  12.404   4.678   8.523  0.2921 -0.1489 -0.4085
  592loPI    C1 9457  15.226  15.060  10.738 -0.2021 -0.1005 -0.0380
  592loPI    C2 9458  15.187  14.664  10.778  0.0576 -0.1218  0.0177
  592loPI    C3 9459  15.178  14.900  11.101 -0.1911 -0.0721 -0.0240
  592loPI   PO4 9460  15.406  15.040  10.478  0.0934 -0.1389 -0.0242
  592loPI   GL1 9461  15.505  14.977  10.073  0.1521  0.1952  0.1399
  592loPI   GL2 9462  15.650  14.672  10.114 -0.1335  0.0975  0.0698
  592loPI   C1A 9463  15.212  15.012   9.776  0.0926  0.1151  0.1969
  592loPI   C2A 9464  15.183  15.088   9.343 -0.0614  0.0254  0.0274
  592loPI   C3A 9465  15.180  15.170   8.837 -0.3398  0.2939  0.1441
  592loPI   C4A 9466  15.082  15.096   8.356 -0.0639 -0.0710 -0.3298
  592loPI   C5A 9467  14.741  15.277   8.257 -0.0311  0.0910 -0.2138
  592loPI   C6A 9468  14.459  15.122   7.993  0.0262  0.1683 -0.1095
  592loPI   C1B 9469  15.785  14.403   9.818  0.1011 -0.0351  0.1056
  592loPI   C2B 9470  15.672  14.036   9.620  0.2505  0.3067 -0.2689
  592loPI   C3B 9471  15.804  13.826   9.272  0.0544 -0.3221 -0.0161
  592loPI   C4B 9472  15.584  13.719   8.906 -0.4588 -0.1055  0.1928
  593loPI    C1 9473   8.581  13.701   9.997 -0.0778  0.1311  0.0025
  593loPI    C2 9474   8.347  13.989  10.147 -0.1213  0.1348 -0.0718
  593loPI    C3 9475   8.492  13.703  10.387 -0.1663  0.1572 -0.0178
  593loPI   PO4 9476   8.809  13.816   9.908  0.0560 -0.2973  0.3162
  593loPI   GL1 9477   9.184  13.952   9.534  0.2074  0.0477  0.0085
  593loPI   GL2 9478   9.017  13.712   9.497 -0.4119  0.1730 -0.3700
  593loPI   C1A 9479   9.277  14.107   9.126  0.0541  0.0301 -0.0647
  593loPI   C2A 9480   9.443  14.049   8.660 -0.0686 -0.0616  0.0309
  593loPI   C3A 9481   9.739  13.990   8.257  0.0929  0.0241  0.0406
  593loPI   C4A 9482   9.997  14.176   7.906  0.4139  0.0490 -0.0206
  593loPI   C5A 9483  10.446  14.393   7.939 -0.0814  0.0342  0.1004
  593loPI   C6A 9484  10.732  14.304   7.944 -0.1624 -0.2173  0.2793
  593loPI   C1B 9485   9.108  13.652   9.021 -0.2616 -0.1460 -0.1136
  593loPI   C2B 9486   9.090  13.697   8.568 -0.1992  0.0904 -0.1721
  593loPI   C3B 9487   8.948  13.782   8.244 -0.1922  0.0947 -0.0304
  593loPI   C4B 9488   8.988  13.789   7.762 -0.0160 -0.0325 -0.0819
  594loPI    C1 9489   5.907   4.474  10.419 -0.1229  0.2802 -0.0763
  594loPI    C2 9490   6.187   4.374  10.686  0.0634  0.0056 -0.3671
  594loPI    C3 9491   5.811   4.247  10.734  0.0443  0.1484 -0.1191
  594loPI   PO4 9492   6.047   4.368  10.158 -0.0000 -0.2668  0.0903
  594loPI   GL1 9493   6.023   4.252   9.770  0.0565 -0.0282  0.1143
  594loPI   GL2 9494   5.824   4.151   9.625  0.0611 -0.0107 -0.0747
  594loPI   C1A 9495   6.094   4.301   9.302  0.1612  0.1546 -0.0853
  594loPI   C2A 9496   5.938   4.285   8.841  0.0314 -0.1233  0.2411
  594loPI   C3A 9497   5.868   4.298   8.342  0.1888  0.0143  0.2405
  594loPI   C4A 9498   5.474   4.168   8.093 -0.0333  0.0114  0.0851
  594loPI   C5A 9499   5.253   4.452   7.780 -0.1109 -0.0326  0.2298
  594loPI   C6A 9500   5.175   4.458   7.318  0.0239 -0.0472 -0.3831
  594loPI   C1B 9501   5.794   3.849   9.247  0.0386  0.0786 -0.0309
  594loPI   C2B 9502   5.701   3.660   8.930  0.0231  0.2770 -0.0525
  594loPI   C3B 9503   5.678   3.238   8.802  0.2021 -0.1171  0.2150
  594loPI   C4B 9504   5.763   3.045   8.421  0.1178 -0.1583  0.0002
  595loPI    C1 9505   9.148  15.955  10.572 -0.0023 -0.2067 -0.1614
  595loPI    C2 9506   9.392  16.206  10.767 -0.1820 -0.0682 -0.1120
  595loPI    C3 9507   9.238  15.889  10.956 -0.1570 -0.0736 -0.1008
  595loPI   PO4 9508   9.027  16.067  10.404 -0.2050 -0.1329 -0.3767
  595loPI   GL1 9509   9.027  16.186  10.057 -0.1218  0.1871  0.4634
  595loPI   GL2 9510   9.263  16.350   9.891 -0.0504 -0.1796  0.0506
  595loPI   C1A 9511   8.883  16.116   9.613 -0.1071 -0.1042 -0.1159
  595loPI   C2A 9512   8.839  16.158   9.215 -0.2255  0.1724  0.1242
  595loPI   C3A 9513   8.907  16.224   8.767  0.3448  0.1824  0.0928
  595loPI   C4A 9514   9.015  16.234   8.392 -0.0506  0.1094  0.3328
  595loPI   C5A 9515   9.179  16.281   8.057  0.0315  0.0768  0.0988
  595loPI   C6A 9516   9.458  16.479   7.763 -0.0616 -0.1512 -0.1520
  595loPI   C1B 9517   9.365  16.305   9.563 -0.1621 -0.0324  0.0218
  595loPI   C2B 9518   9.318  16.311   9.040  0.0349 -0.1158 -0.0750
  595loPI   C3B 9519   9.426  16.355   8.631 -0.1478 -0.0070  0.0502
  595loPI   C4B 9520   9.543  16.566   8.257  0.2293  0.0913  0.1273
  596loPI    C1 9521  12.116   9.607  10.988  0.1213 -0.1524 -0.0896
  596loPI    C2 9522  12.247   9.869  11.261  0.0723 -0.1552 -0.0634
  596loPI    C3 9523  12.432   9.517  11.217  0.0345 -0.1854  0.0181
  596loPI   PO4 9524  12.004   9.719  10.831  0.1771 -0.0475 -0.0509
  596loPI   GL1 9525  12.035   9.597  10.416  0.1210  0.0167  0.0108
  596loPI   GL2 9526  12.241   9.451  10.452 -0.2042  0.0010 -0.1450
  596loPI   C1A 9527  12.022   9.677   9.968  0.0708  0.1388 -0.0761
  596loPI   C2A 9528  12.066   9.577   9.497 -0.1586 -0.0450 -0.1311
  596loPI   C3A 9529  12.005   9.621   9.076 -0.1067  0.1048  0.0824
  596loPI   C4A 9530  12.069   9.643   8.637 -0.2938 -0.1357  0.0053
  596loPI   C5A 9531  11.936  10.052   8.301  0.2898  0.3774 -0.0881
  596loPI   C6A 9532  11.639  10.095   7.882 -0.0707 -0.4029  0.1396
  596loPI   C1B 9533  12.319   9.295   9.972 -0.0277 -0.1221  0.0485
  596loPI   C2B 9534  12.199   9.100   9.592  0.0005  0.1667  0.0184
  596loPI   C3B 9535  12.169   9.086   9.151  0.0564 -0.0383  0.0438
  596loPI   C4B 9536  12.229   9.041   8.711  0.0030  0.0017  0.1138
  597loPI    C1 9537   4.246  12.576  10.402  0.1081 -0.0428 -0.2088
  597loPI    C2 9538   4.086  12.229  10.519  0.0918  0.0085 -0.0765
  597loPI    C3 9539   4.175  12.508  10.790  0.1656  0.0820 -0.1760
  597loPI   PO4 9540   4.464  12.514  10.248 -0.0105 -0.1178  0.1621
  597loPI   GL1 9541   4.439  12.383   9.864 -0.1780 -0.1670 -0.0110
  597loPI   GL2 9542   4.197  12.308   9.767  0.2942 -0.0351 -0.0546
  597loPI   C1A 9543   4.531  12.662   9.497 -0.2360  0.2567 -0.1073
  597loPI   C2A 9544   4.507  12.746   9.184  0.0514 -0.2341  0.2541
  597loPI   C3A 9545   4.455  12.747   8.665  0.0468  0.1539  0.0921
  597loPI   C4A 9546   4.490  12.808   8.227  0.2930 -0.0287  0.2567
  597loPI   C5A 9547   4.493  12.615   7.846 -0.2250 -0.0907  0.2765
  597loPI   C6A 9548   4.790  12.331   7.607 -0.0522 -0.0215  0.0710
  597loPI   C1B 9549   4.132  12.309   9.333  0.2281 -0.2331 -0.1148
  597loPI   C2B 9550   4.181  12.477   9.001  0.0478  0.1538 -0.2640
  597loPI   C3B 9551   4.099  12.379   8.550 -0.0138 -0.0119 -0.0951
  597loPI   C4B 9552   4.088  12.477   8.204  0.3048 -0.0500  0.0096
  598loPI    C1 9553   7.482  14.081  10.704  0.0711  0.2647 -0.2730
  598loPI    C2 9554   7.844  14.213  10.811  0.0018  0.2131  0.0355
  598loPI    C3 9555   7.531  14.269  11.054 -0.1049 -0.1668 -0.0081
  598loPI   PO4 9556   7.558  13.988  10.357  0.3725 -0.0411  0.1237
  598loPI   GL1 9557   7.433  13.768   9.889 -0.2085  0.2978  0.1092
  598loPI   GL2 9558   7.557  13.580   9.679 -0.1558  0.0982 -0.4059
  598loPI   C1A 9559   7.492  14.001   9.433  0.2097 -0.2055 -0.0328
  598loPI   C2A 9560   7.576  13.865   8.976 -0.2085 -0.0287  0.1098
  598loPI   C3A 9561   7.517  13.968   8.536  0.2674  0.2111  0.0719
  598loPI   C4A 9562   7.563  14.070   8.097  0.0932 -0.1542  0.1973
  598loPI   C5A 9563   7.355  14.386   7.849  0.0108 -0.4100  0.3495
  598loPI   C6A 9564   7.127  14.522   7.438 -0.0187 -0.0125  0.0893
  598loPI   C1B 9565   7.889  13.621   9.412 -0.0296  0.3589  0.1187
  598loPI   C2B 9566   8.064  13.342   9.047 -0.1941  0.1768  0.1715
  598loPI   C3B 9567   8.164  13.316   8.602  0.0258  0.1912 -0.0793
  598loPI   C4B 9568   8.166  13.322   8.169 -0.4336 -0.1151 -0.2467
  599loPI    C1 9569   1.305  17.571  10.314 -0.0663  0.0294  0.0857
  599loPI    C2 9570   1.036  17.808  10.139 -0.1514 -0.0773  0.0708
  599loPI    C3 9571   1.119  17.853  10.527 -0.1335  0.0071  0.0573
  599loPI   PO4 9572   1.209  17.318  10.230  0.0506 -0.3343 -0.0843
  599loPI   GL1 9573   0.942  17.287   9.816 -0.0461  0.2223 -0.1084
  599loPI   GL2 9574   0.584  17.221   9.865  0.0410 -0.2244 -0.1160
  599loPI   C1A 9575   0.787  17.131   9.397  0.1034 -0.0066  0.0899
  599loPI   C2A 9576   0.535  17.189   9.019  0.0089 -0.1150  0.2070
  599loPI   C3A 9577   0.567  17.056   8.631  0.0826 -0.0634  0.2146
  599loPI   C4A 9578   0.587  17.135   8.185  0.0693 -0.0396 -0.0118
  599loPI   C5A 9579   0.303  16.996   7.884 -0.2161 -0.0986  0.1192
  599loPI   C6A 9580   0.017  16.659   7.797 -0.2095 -0.0254 -0.0511
  599loPI   C1B 9581   0.365  17.313   9.550 -0.1581 -0.1741 -0.1123
  599loPI   C2B 9582   0.088  17.253   9.181  0.1399 -0.3337  0.2215
  599loPI   C3B 9583   0.142  17.256   8.740 -0.3464 -0.0982 -0.2329
  599loPI   C4B 9584   0.045  17.276   8.330  0.0245 -0.2076 -0.1449
  600loPI    C1 9585  12.908   5.227  11.104  0.1097 -0.1111  0.0038
  600loPI    C2 9586  13.133   4.898  11.132 -0.1341 -0.2750  0.0703
  600loPI    C3 9587  13.271   5.247  11.271  0.0654 -0.3791  0.1377
  600loPI   PO4 9588  12.877   5.311  10.832  0.1129 -0.0140  0.1236
  600loPI   GL1 9589  12.714   5.404  10.469 -0.1133  0.1700  0.1513
  600loPI   GL2 9590  12.425   5.419  10.630 -0.3216  0.2422 -0.0820
  600loPI   C1A 9591  12.865   5.469  10.106 -0.2813  0.1984  0.1240
  600loPI   C2A 9592  12.944   5.547   9.615 -0.3525 -0.4071 -0.0079
  600loPI   C3A 9593  13.031   5.548   9.267  0.2159  0.1516  0.1340
  600loPI   C4A 9594  12.987   5.557   8.904  0.1861  0.0235 -0.2950
  600loPI   C5A 9595  12.950   5.499   8.479  0.2421  0.1897  0.3798
  600loPI   C6A 9596  12.880   5.458   8.171 -0.0893 -0.0451 -0.0721
  600loPI   C1B 9597  12.350   5.527  10.224 -0.1937 -0.3021  0.1057
  600loPI   C2B 9598  12.432   5.590   9.807 -0.0606 -0.2677 -0.0394
  600loPI   C3B 9599  12.495   5.559   9.370  0.0576 -0.2320 -0.2577
  600loPI   C4B 9600  12.494   5.596   8.904  0.1105 -0.2645  0.1156
  601loPI    C1 9601  11.497  15.694  10.625 -0.0291  0.0877 -0.0037
  601loPI    C2 9602  11.606  15.933  10.926 -0.1138  0.2611 -0.1095
  601loPI    C3 9603  11.285  15.698  10.964  0.0625  0.0427  0.0546
  601loPI   PO4 9604  11.699  15.720  10.440 -0.2484  0.0005 -0.2643
  601loPI   GL1 9605  11.964  15.848  10.099 -0.1209 -0.0316 -0.2832
  601loPI   GL2 9606  12.040  15.622  10.121 -0.2886  0.0052 -0.1593
  601loPI   C1A 9607  11.893  15.970   9.664  0.0719  0.2042  0.0312
  601loPI   C2A 9608  11.804  16.143   9.157 -0.0730  0.1172 -0.0310
  601loPI   C3A 9609  11.789  16.158   8.714 -0.0392 -0.1048  0.3244
  601loPI   C4A 9610  11.716  16.060   8.347 -0.1898  0.0747  0.1425
  601loPI   C5A 9611  11.481  16.153   8.004  0.1040  0.0436  0.2457
  601loPI   C6A 9612  11.479  16.275   7.532 -0.3724  0.0916  0.0019
  601loPI   C1B 9613  12.122  15.449   9.734 -0.1056  0.1214 -0.2356
  601loPI   C2B 9614  12.115  15.178   9.579 -0.1149  0.0773 -0.2109
  601loPI   C3B 9615  12.235  14.770   9.704 -0.0937 -0.4143 -0.1632
  601loPI   C4B 9616  11.978  14.503   9.647  0.1475 -0.2838  0.2059
  602loPI    C1 9617  10.069  11.717  10.240  0.1874  0.1720 -0.1095
  602loPI    C2 9618  10.359  11.446  10.189  0.1006  0.0663 -0.0444
  602loPI    C3 9619  10.440  11.795  10.367  0.1636 -0.0099  0.0777
  602loPI   PO4 9620  10.005  11.655   9.964  0.2459  0.2458  0.3220
  602loPI   GL1 9621   9.882  11.929   9.663  0.2095 -0.1836  0.2089
  602loPI   GL2 9622  10.222  11.976   9.534 -0.1368  0.3705  0.0858
  602loPI   C1A 9623   9.768  11.711   9.288 -0.0350  0.1432 -0.2581
  602loPI   C2A 9624   9.703  11.656   8.875  0.0546  0.2233  0.0248
  602loPI   C3A 9625   9.673  11.736   8.508 -0.1004 -0.0359 -0.1406
  602loPI   C4A 9626   9.674  11.608   8.027 -0.0919  0.1031  0.1302
  602loPI   C5A 9627   9.884  11.504   7.718  0.0786 -0.0332 -0.0921
  602loPI   C6A 9628   9.765  11.034   7.675 -0.2518 -0.2867  0.5113
  602loPI   C1B 9629  10.151  12.080   9.191 -0.1418 -0.0539 -0.1251
  602loPI   C2B 9630  10.068  12.023   8.781 -0.0346 -0.0120  0.2315
  602loPI   C3B 9631   9.951  12.067   8.308 -0.2086 -0.2735 -0.0835
  602loPI   C4B 9632   9.843  12.023   7.876  0.1561 -0.0827 -0.2206
  603loPI    C1 9633  17.696   8.127  11.060  0.1092  0.0959  0.2462
  603loPI    C2 9634  17.543   8.495  11.098  0.0349  0.1010 -0.0749
  603loPI    C3 9635  17.935   8.446  11.034  0.1079  0.1049  0.3439
  603loPI   PO4 9636  17.589   7.996  10.846 -0.1954  0.1239 -0.0594
  603loPI   GL1 9637  17.445   8.163  10.568 -0.1131  0.3375 -0.1629
  603loPI   GL2 9638  17.708   8.431  10.589 -0.0536  0.1601 -0.1898
  603loPI   C1A 9639  17.350   8.013  10.063 -0.2763 -0.1789 -0.2195
  603loPI   C2A 9640  17.390   7.997   9.604 -0.0219  0.2780  0.0665
  603loPI   C3A 9641  17.361   7.955   9.175  0.0143 -0.3860 -0.1067
  603loPI   C4A 9642  17.336   7.944   8.764  0.1873 -0.1309 -0.1414
  603loPI   C5A 9643  17.370   7.859   8.355  0.0384 -0.1144  0.0098
  603loPI   C6A 9644  17.238   7.549   8.068  0.1931 -0.0098 -0.1042
  603loPI   C1B 9645  17.511   8.475  10.185  0.1507 -0.0741 -0.0552
  603loPI   C2B 9646  17.542   8.429   9.822  0.2684  0.0358  0.2470
  603loPI   C3B 9647  17.624   8.390   9.429  0.2148  0.0544  0.1428
  603loPI   C4B 9648  17.554   8.517   9.034  0.1752 -0.1587 -0.0815
  604loPI    C1 9649  13.105  11.043  11.047 -0.2040  0.0095  0.0396
  604loPI    C2 9650  13.410  10.832  11.198 -0.0915  0.0335 -0.1506
  604loPI    C3 9651  13.352  11.211  11.314  0.1344  0.1276 -0.3381
  604loPI   PO4 9652  13.085  10.988  10.783  0.1478  0.3604 -0.0687
  604loPI   GL1 9653  13.009  10.707  10.384  0.2919 -0.0538 -0.0743
  604loPI   GL2 9654  13.187  10.977  10.302 -0.0324  0.0294 -0.0331
  604loPI   C1A 9655  13.020  10.501   9.949 -0.2817 -0.3535 -0.1991
  604loPI   C2A 9656  13.158  10.554   9.533  0.5037  0.0082 -0.1246
  604loPI   C3A 9657  13.159  10.514   9.079 -0.2491 -0.0798 -0.2556
  604loPI   C4A 9658  13.421  10.481   8.654  0.2431 -0.0162 -0.1584
  604loPI   C5A 9659  13.192  10.594   8.282  0.1397  0.1081 -0.0753
  604loPI   C6A 9660  13.084  10.951   8.015  0.3242  0.0167  0.2202
  604loPI   C1B 9661  13.354  10.953   9.816 -0.3278 -0.0208  0.1507
  604loPI   C2B 9662  13.389  10.911   9.367  0.0934  0.0417  0.1078
  604loPI   C3B 9663  13.628  10.898   8.971 -0.0047  0.1886  0.3128
  604loPI   C4B 9664  13.877  10.646   8.670  0.1866  0.2167  0.0449
  605loPI    C1 9665  17.102  11.072  10.805 -0.0121 -0.2367  0.1082
  605loPI    C2 9666  16.854  11.348  10.954  0.0436 -0.2164  0.1637
  605loPI    C3 9667  17.240  11.348  11.060  0.1138 -0.1191 -0.0837
  605loPI   PO4 9668  16.958  10.882  10.746  0.0923  0.0320 -0.1872
  605loPI   GL1 9669  16.701  10.752  10.392 -0.2030  0.1859 -0.0585
  605loPI   GL2 9670  16.668  11.054  10.340 -0.2232 -0.1806 -0.2438
  605loPI   C1A 9671  17.017  10.754  10.065 -0.1176  0.2860 -0.4160
  605loPI   C2A 9672  17.070  10.805   9.639  0.0846  0.0195 -0.0871
  605loPI   C3A 9673  17.030  10.896   9.178 -0.2574  0.2448 -0.2194
  605loPI   C4A 9674  16.966  10.690   8.812  0.0330  0.0916 -0.4403
  605loPI   C5A 9675  17.036  10.788   8.272  0.2212 -0.0618 -0.1420
  605loPI   C6A 9676  17.237  10.977   7.974  0.2286  0.0380  0.3172
  605loPI   C1B 9677  16.736  11.172   9.935 -0.0153  0.1202  0.3351
  605loPI   C2B 9678  16.908  11.382   9.617 -0.0261  0.0658  0.0583
  605loPI   C3B 9679  17.158  11.522   9.283  0.0376 -0.1156 -0.1017
  605loPI   C4B 9680  17.455  11.680   9.046 -0.1991 -0.2130 -0.2051
  606loPI    C1 9681   8.717   0.863  10.327  0.1701 -0.1997  0.0429
  606loPI    C2 9682   8.622   1.012  10.685  0.0840  0.2199 -0.1490
  606loPI    C3 9683   8.451   0.674  10.558  0.0603  0.1073  0.1723
  606loPI   PO4 9684   8.626   0.981  10.068  0.2227 -0.2523  0.2786
  606loPI   GL1 9685   8.573   0.919   9.659 -0.2084 -0.0165 -0.2128
  606loPI   GL2 9686   8.389   0.736   9.574 -0.0601 -0.1818 -0.0734
  606loPI   C1A 9687   8.799   1.075   9.326 -0.1212  0.1887 -0.0254
  606loPI   C2A 9688   8.793   1.285   8.978 -0.0878  0.2460 -0.1216
  606loPI   C3A 9689   8.976   1.321   8.608  0.1983 -0.0357  0.4919
  606loPI   C4A 9690   8.952   1.163   8.104 -0.1829  0.1259  0.0493
  606loPI   C5A 9691   8.889   1.336   7.747  0.2077  0.1388 -0.1705
  606loPI   C6A 9692   8.970   1.188   7.373  0.3690 -0.1978  0.0095
  606loPI   C1B 9693   8.538   0.737   9.109  0.0508  0.1145 -0.1568
  606loPI   C2B 9694   8.696   0.541   8.702 -0.1294 -0.0275  0.0598
  606loPI   C3B 9695   8.681   0.314   8.335  0.0938  0.0201  0.1143
  606loPI   C4B 9696   8.510   0.163   8.070  0.1408 -0.3773  0.3436
  607loPI    C1 9697   4.916   4.854  10.471  0.0936  0.1044  0.0318
  607loPI    C2 9698   4.721   5.035  10.172  0.2256  0.1359 -0.0358
  607loPI    C3 9699   4.528   4.942  10.509  0.0290 -0.0678 -0.2017
  607loPI   PO4 9700   5.180   4.927  10.378  0.4242 -0.3624  0.2794
  607loPI   GL1 9701   5.348   5.051   9.957 -0.2421 -0.3697  0.3097
  607loPI   GL2 9702   5.060   4.800   9.934  0.1652 -0.0461  0.0945
  607loPI   C1A 9703   5.598   5.129   9.601  0.1358 -0.0715 -0.2164
  607loPI   C2A 9704   5.631   5.208   9.163  0.2664  0.2196  0.0540
  607loPI   C3A 9705   5.521   5.103   8.722  0.2402 -0.0170  0.1538
  607loPI   C4A 9706   5.507   5.069   8.261 -0.1252 -0.2487 -0.1876
  607loPI   C5A 9707   5.380   4.936   7.725  0.0304 -0.0582  0.1580
  607loPI   C6A 9708   5.055   4.991   7.448  0.1383  0.0897  0.2502
  607loPI   C1B 9709   5.173   4.876   9.504  0.0764  0.1858 -0.1281
  607loPI   C2B 9710   5.060   4.946   9.040 -0.1185 -0.1708 -0.0266
  607loPI   C3B 9711   5.067   4.885   8.587 -0.0327  0.0696 -0.1389
  607loPI   C4B 9712   5.042   4.856   8.124 -0.1618 -0.1268 -0.0331
  608loPI    C1 9713   8.865  18.029  10.135  0.1323  0.0182  0.2804
  608loPI    C2 9714   9.024  18.052  10.502  0.2604  0.0245  0.2251
  608loPI    C3 9715   9.085  18.347  10.238  0.1367  0.0380  0.2105
  608loPI   PO4 9716   8.929  17.787  10.091  0.2196 -0.4007  0.2425
  608loPI   GL1 9717   9.115  17.683   9.778  0.2494  0.2667 -0.0307
  608loPI   GL2 9718   8.987  17.583   9.448 -0.0013 -0.4273 -0.5435
  608loPI   C1A 9719   9.389  17.356   9.574  0.0016  0.0936  0.2488
  608loPI   C2A 9720   9.529  17.298   9.204  0.0086 -0.0548  0.0845
  608loPI   C3A 9721   9.492  17.526   8.773  0.0519  0.2363 -0.2806
  608loPI   C4A 9722   9.280  17.528   8.371  0.1767 -0.0441 -0.1165
  608loPI   C5A 9723   8.939  17.303   8.310 -0.0809 -0.2086 -0.0012
  608loPI   C6A 9724   8.741  17.047   8.027  0.1171  0.0483  0.1185
  608loPI   C1B 9725   8.683  17.611   9.117 -0.1285  0.0346 -0.0966
  608loPI   C2B 9726   8.303  17.752   8.920  0.3016 -0.1601 -0.0674
  608loPI   C3B 9727   8.082  17.487   8.551 -0.1377  0.2363 -0.2498
  608loPI   C4B 9728   7.968  17.370   8.080 -0.0297  0.0427 -0.0251
  609loPI    C1 9729   7.256  13.134  10.601  0.1203  0.0193  0.0302
  609loPI    C2 9730   7.419  13.090  10.964  0.0465 -0.0650  0.0535
  609loPI    C3 9731   7.051  12.950  10.891 -0.0646  0.2291  0.0351
  609loPI   PO4 9732   7.446  13.039  10.437 -0.0607 -0.0454  0.3099
  609loPI   GL1 9733   7.727  12.841  10.083 -0.0837  0.2376 -0.2322
  609loPI   GL2 9734   7.455  12.641  10.074 -0.1401 -0.0195  0.1527
  609loPI   C1A 9735   7.839  12.656   9.621 -0.0568 -0.1296 -0.0099
  609loPI   C2A 9736   7.934  12.726   9.216  0.1002  0.3398  0.3436
  609loPI   C3A 9737   7.825  12.861   8.798 -0.0586 -0.0120 -0.1112
  609loPI   C4A 9738   7.819  13.005   8.364  0.2207  0.0485 -0.0773
  609loPI   C5A 9739   7.695  12.831   7.940 -0.0722 -0.0232 -0.1585
  609loPI   C6A 9740   7.375  12.751   7.740  0.1549 -0.1037 -0.1454
  609loPI   C1B 9741   7.331  12.751   9.607 -0.0910 -0.0437 -0.4351
  609loPI   C2B 9742   7.388  12.893   9.251 -0.1392  0.2496 -0.0805
  609loPI   C3B 9743   7.356  12.882   8.796  0.0275  0.0267 -0.1573
  609loPI   C4B 9744   7.311  13.115   8.493  0.1289 -0.0261 -0.3063
  610loPI    C1 9745   9.060   9.504  10.764 -0.2568  0.0780 -0.0264
  610loPI    C2 9746   9.071   9.902  10.800 -0.0607  0.0898 -0.1985
  610loPI    C3 9747   9.031   9.673  11.126  0.1334  0.2401 -0.0664
  610loPI   PO4 9748   9.058   9.414  10.441  0.2088 -0.0372 -0.3161
  610loPI   GL1 9749   9.412   9.322  10.172  0.0562  0.3286 -0.2509
  610loPI   GL2 9750   9.098   9.242   9.954  0.2349  0.0819 -0.1067
  610loPI   C1A 9751   9.779   9.280   9.832  0.0109 -0.0580 -0.2509
  610loPI   C2A 9752   9.741   9.273   9.429  0.2009  0.2431  0.1288
  610loPI   C3A 9753   9.607   9.439   9.015  0.1244  0.2070  0.2535
  610loPI   C4A 9754   9.510   9.466   8.554 -0.1853  0.1488  0.0776
  610loPI   C5A 9755   9.169   9.239   8.308  0.0414 -0.0943  0.3142
  610loPI   C6A 9756   8.767   8.950   8.154  0.0989 -0.0335 -0.0544
  610loPI   C1B 9757   9.295   9.375   9.574 -0.2449 -0.0082 -0.1891
  610loPI   C2B 9758   9.159   9.469   9.222 -0.1932 -0.0499 -0.1518
  610loPI   C3B 9759   9.093   9.580   8.742 -0.4980 -0.0325 -0.0438
  610loPI   C4B 9760   8.928   9.697   8.398  0.0869  0.2303  0.0192
  611loPI    C1 9761  10.887   1.098   9.998 -0.0389  0.0378 -0.6590
  611loPI    C2 9762  10.648   0.783  10.057 -0.0765  0.1879  0.0832
  611loPI    C3 9763  11.035   0.727   9.970 -0.0884 -0.0635  0.1828
  611loPI   PO4 9764  10.692   1.320   9.824 -0.4094  0.1465 -0.0286
  611loPI   GL1 9765  10.849   1.488   9.482  0.0688 -0.0834  0.0016
  611loPI   GL2 9766  10.994   1.167   9.475  0.0307  0.2356 -0.0714
  611loPI   C1A 9767  11.028   1.650   8.991  0.0298  0.0401  0.0987
  611loPI   C2A 9768  11.257   2.089   8.826  0.1037  0.0647 -0.0547
  611loPI   C3A 9769  11.318   2.015   8.378 -0.1717  0.0491  0.0052
  611loPI   C4A 9770  11.057   1.718   8.048 -0.2472  0.0618 -0.1608
  611loPI   C5A 9771  10.695   1.490   7.956 -0.1207  0.0071 -0.0042
  611loPI   C6A 9772  10.678   1.016   8.095 -0.1411  0.0590 -0.0669
  611loPI   C1B 9773  10.714   1.192   9.088 -0.0865  0.1012  0.1238
  611loPI   C2B 9774  10.665   1.228   8.679  0.2027  0.0876  0.1131
  611loPI   C3B 9775  10.352   1.308   8.411  0.2245  0.1675 -0.1953
  611loPI   C4B 9776  10.099   1.642   8.514  0.5227 -0.0804 -0.0850
  612loPI    C1 9777  16.069   4.602  10.997 -0.1543  0.1364 -0.1764
  612loPI    C2 9778  15.798   4.895  10.961 -0.0052  0.3022  0.0266
  612loPI    C3 9779  16.011   4.859  11.298 -0.0215 -0.0418  0.0039
  612loPI   PO4 9780  16.168   4.553  10.750 -0.1136  0.1659  0.2459
  612loPI   GL1 9781  16.407   4.870  10.474  0.2834 -0.1814 -0.3010
  612loPI   GL2 9782  16.431   5.191  10.369  0.1382 -0.0821 -0.1201
  612loPI   C1A 9783  16.255   4.875   9.985 -0.1010  0.3356 -0.1184
  612loPI   C2A 9784  16.230   4.913   9.605 -0.0077 -0.1412 -0.0564
  612loPI   C3A 9785  16.241   4.839   9.187  0.0688 -0.1878  0.0292
  612loPI   C4A 9786  16.324   4.708   8.770  0.0746  0.2804  0.0037
  612loPI   C5A 9787  16.544   4.417   8.449  0.1065 -0.0415 -0.2251
  612loPI   C6A 9788  16.734   4.251   8.095 -0.2825  0.0470 -0.2024
  612loPI   C1B 9789  16.445   5.311   9.967 -0.0543 -0.1784 -0.0710
  612loPI   C2B 9790  16.579   5.334   9.565 -0.2886  0.0747 -0.1988
  612loPI   C3B 9791  16.714   5.173   9.182 -0.0314  0.1843 -0.0043
  612loPI   C4B 9792  16.780   4.944   8.792 -0.1345  0.1055 -0.0753
  613loPI    C1 9793   0.386   8.589  10.727 -0.1135 -0.0125 -0.1859
  613loPI    C2 9794   0.736   8.706  10.883 -0.0813 -0.1617 -0.1448
  613loPI    C3 9795   0.490   8.473  11.096 -0.1702 -0.1228 -0.2042
  613loPI   PO4 9796   0.471   8.601  10.445 -0.1866 -0.0199 -0.0596
  613loPI   GL1 9797   0.349   8.562  10.136  0.0675 -0.0285  0.0938
  613loPI   GL2 9798   0.084   8.569   9.893  0.0317  0.1207 -0.2526
  613loPI   C1A 9799   0.510   8.824   9.730 -0.0537  0.0246 -0.0975
  613loPI   C2A 9800   0.608   8.875   9.320 -0.1914  0.0462  0.0966
  613loPI   C3A 9801   0.576   9.140   8.985 -0.2743  0.1602 -0.2480
  613loPI   C4A 9802   0.825   9.247   8.625 -0.2550  0.1942 -0.1954
  613loPI   C5A 9803   0.820   9.213   8.206 -0.1989 -0.1517 -0.1286
  613loPI   C6A 9804   0.754   9.236   7.687 -0.3818 -0.1670 -0.2566
  613loPI   C1B 9805   0.131   8.682   9.444 -0.1700 -0.0759 -0.0442
  613loPI   C2B 9806   0.155   8.834   9.000  0.2131  0.1017  0.2895
  613loPI   C3B 9807   0.361   9.008   8.540  0.0096  0.2014 -0.1011
  613loPI   C4B 9808   0.308   9.257   8.131 -0.2060 -0.1450 -0.4642
  614loPI    C1 9809  12.605  14.503  10.639  0.0037 -0.0690 -0.0490
  614loPI    C2 9810  12.722  14.453  11.019 -0.0056 -0.0171 -0.0394
  614loPI    C3 9811  12.741  14.815  10.849  0.0782 -0.0568 -0.1151
  614loPI   PO4 9812  12.690  14.315  10.547  0.1212 -0.2856  0.3131
  614loPI   GL1 9813  12.549  14.058  10.103  0.4238 -0.0432 -0.0569
  614loPI   GL2 9814  12.556  13.875   9.797  0.0187  0.0443  0.3042
  614loPI   C1A 9815  12.526  14.319   9.683 -0.3089 -0.1115 -0.0300
  614loPI   C2A 9816  12.427  14.315   9.323  0.0920  0.0974 -0.0412
  614loPI   C3A 9817  12.282  14.395   8.842  0.3088 -0.2265 -0.1417
  614loPI   C4A 9818  11.925  14.444   8.625 -0.0596  0.0744  0.2634
  614loPI   C5A 9819  11.757  14.415   8.196  0.2352 -0.1680 -0.0215
  614loPI   C6A 9820  12.151  14.325   7.969  0.2309 -0.1071  0.1443
  614loPI   C1B 9821  12.658  13.723   9.401 -0.2135 -0.4309  0.0538
  614loPI   C2B 9822  12.677  13.585   8.955 -0.2142 -0.3020 -0.4469
  614loPI   C3B 9823  12.638  13.563   8.449 -0.0140  0.0860  0.3265
  614loPI   C4B 9824  12.519  13.312   7.983 -0.5127  0.1583 -0.2687
  615loPI    C1 9825  10.178  16.764  10.821  0.1842  0.1589 -0.0494
  615loPI    C2 9826   9.825  16.941  10.883 -0.0373 -0.2359 -0.1516
  615loPI    C3 9827  10.160  17.159  10.884 -0.2408  0.0913  0.3040
  615loPI   PO4 9828  10.259  16.656  10.575  0.1752 -0.0356  0.0105
  615loPI   GL1 9829  10.206  16.531  10.223 -0.1525  0.1054 -0.0250
  615loPI   GL2 9830  10.144  16.752  10.017 -0.1258 -0.0354  0.0617
  615loPI   C1A 9831  10.096  16.248   9.892 -0.1482 -0.1817  0.2429
  615loPI   C2A 9832  10.228  16.191   9.408 -0.1928  0.2241 -0.2604
  615loPI   C3A 9833  10.265  16.203   8.990  0.0949 -0.1881  0.1240
  615loPI   C4A 9834  10.420  16.243   8.626  0.1444  0.2096 -0.2547
  615loPI   C5A 9835  10.413  16.206   8.169 -0.0445 -0.2572 -0.1320
  615loPI   C6A 9836  10.587  16.052   7.793 -0.0689 -0.0073  0.1627
  615loPI   C1B 9837  10.294  16.730   9.562  0.3135 -0.0615  0.0274
  615loPI   C2B 9838  10.280  16.685   9.125  0.2274  0.0939 -0.0251
  615loPI   C3B 9839  10.275  16.845   8.664  0.0388 -0.0218 -0.1089
  615loPI   C4B 9840  10.497  16.743   8.274  0.2047  0.0383  0.0052
  616loPI    C1 9841  18.174   5.687  10.458 -0.0729 -0.0925  0.2602
  616loPI    C2 9842  17.881   5.429  10.546 -0.0593 -0.0621  0.3971
  616loPI    C3 9843  18.189   5.475  10.797  0.0665 -0.0985  0.2507
  616loPI   PO4 9844  18.249   5.719  10.298 -0.5488 -0.0079  0.0882
  616loPI   GL1 9845  18.269   5.764   9.881 -0.0928 -0.3624  0.3019
  616loPI   GL2 9846  18.171   6.079   9.791 -0.1935 -0.1951 -0.1821
  616loPI   C1A 9847  18.432   5.620   9.550 -0.2578  0.0781 -0.1872
  616loPI   C2A 9848  18.256   5.573   9.160  0.1965 -0.0898 -0.1672
  616loPI   C3A 9849  18.068   5.717   8.699  0.0745 -0.4187 -0.2187
  616loPI   C4A 9850  17.940   6.002   8.314  0.3443  0.2318  0.0665
  616loPI   C5A 9851  17.695   6.145   7.938  0.3420  0.0523  0.3110
  616loPI   C6A 9852  17.813   6.188   7.558 -0.1292 -0.1410 -0.2341
  616loPI   C1B 9853  17.920   5.814   9.467 -0.2945 -0.2069 -0.0223
  616loPI   C2B 9854  17.853   5.983   9.099  0.0553 -0.1624  0.2609
  616loPI   C3B 9855  17.782   6.177   8.738 -0.5067 -0.0008  0.2019
  616loPI   C4B 9856  17.774   6.504   8.322  0.1928  0.3156  0.0167
  617loPI    C1 9857  10.370   6.282  10.627 -0.1505  0.1829  0.0640
  617loPI    C2 9858  10.211   6.018  10.881 -0.1526  0.3682  0.2585
  617loPI    C3 9859  10.586   6.147  10.935  0.0852 -0.0852 -0.2112
  617loPI   PO4 9860  10.240   6.199  10.410  0.0310 -0.1645 -0.1859
  617loPI   GL1 9861  10.354   6.204  10.021 -0.0765  0.1146  0.1471
  617loPI   GL2 9862  10.690   6.168   9.781  0.1935 -0.0636 -0.0689
  617loPI   C1A 9863  10.177   6.207   9.609  0.1546  0.2408  0.0089
  617loPI   C2A 9864  10.056   6.164   9.156  0.0552 -0.0840  0.0986
  617loPI   C3A 9865  10.223   6.191   8.705 -0.0866  0.4391 -0.0156
  617loPI   C4A 9866  10.233   6.157   8.316  0.1932 -0.0263 -0.0437
  617loPI   C5A 9867  10.057   6.404   7.979 -0.0706  0.1083  0.1229
  617loPI   C6A 9868   9.882   6.294   7.757  0.0058  0.0643  0.2672
  617loPI   C1B 9869  10.690   6.077   9.372  0.0427 -0.0363 -0.0277
  617loPI   C2B 9870  10.666   6.137   8.912 -0.0459  0.2077  0.0983
  617loPI   C3B 9871  10.732   6.179   8.472 -0.2074  0.0822 -0.1809
  617loPI   C4B 9872  10.604   6.325   7.958  0.0890 -0.0808  0.3214
  618loPI    C1 9873   2.409  12.241  10.286  0.1706 -0.2274  0.0206
  618loPI    C2 9874   2.513  12.415  10.631  0.1413 -0.0792 -0.0443
  618loPI    C3 9875   2.249  12.114  10.630 -0.1723  0.1896  0.0235
  618loPI   PO4 9876   2.270  12.348  10.163  0.3003 -0.0613  0.0456
  618loPI   GL1 9877   2.017  12.693   9.990  0.2212  0.0191 -0.0330
  618loPI   GL2 9878   2.247  12.684   9.693  0.0089  0.2401 -0.1661
  618loPI   C1A 9879   1.819  12.826   9.613  0.3103  0.4893 -0.1366
  618loPI   C2A 9880   1.710  12.891   9.231 -0.4339 -0.3503  0.0819
  618loPI   C3A 9881   1.666  12.852   8.770 -0.2205  0.1834 -0.2290
  618loPI   C4A 9882   1.796  12.729   8.401 -0.0794 -0.0264  0.4382
  618loPI   C5A 9883   1.702  12.755   8.011  0.0046 -0.0613 -0.1467
  618loPI   C6A 9884   1.739  12.631   7.514 -0.2800  0.0653  0.2162
  618loPI   C1B 9885   2.221  12.638   9.230  0.0345 -0.0974 -0.1317
  618loPI   C2B 9886   2.288  12.631   8.695 -0.0152 -0.2021  0.0566
  618loPI   C3B 9887   2.217  12.605   8.228 -0.2697  0.0240  0.0135
  618loPI   C4B 9888   2.272  12.758   7.797 -0.1885  0.0311  0.3035
  619loPI    C1 9889  14.572  17.157  10.842  0.0933  0.0584 -0.1135
  619loPI    C2 9890  14.445  16.849  11.063 -0.0936  0.0753 -0.1946
  619loPI    C3 9891  14.334  17.222  11.157  0.0271  0.1061 -0.1727
  619loPI   PO4 9892  14.497  17.090  10.575 -0.3289 -0.0264  0.0983
  619loPI   GL1 9893  14.340  17.328  10.220 -0.1164 -0.0883 -0.3302
  619loPI   GL2 9894  14.070  17.419   9.949 -0.1519  0.0949 -0.6229
  619loPI   C1A 9895  14.434  17.179   9.740  0.0774  0.1260 -0.1600
  619loPI   C2A 9896  14.151  17.131   9.426  0.1274 -0.2377 -0.1328
  619loPI   C3A 9897  14.158  17.148   8.997  0.1499  0.1395  0.0838
  619loPI   C4A 9898  14.261  17.371   8.579  0.3199  0.0851  0.1277
  619loPI   C5A 9899  14.344  17.425   8.110 -0.1167 -0.2750  0.4151
  619loPI   C6A 9900  14.359  17.052   7.921  0.1031 -0.1180  0.1828
  619loPI   C1B 9901  14.226  17.634   9.448  0.0274 -0.0436 -0.2089
  619loPI   C2B 9902  14.250  17.638   9.054 -0.1504  0.0591 -0.1707
  619loPI   C3B 9903  14.134  17.825   8.775  0.2041  0.0174 -0.0738
  619loPI   C4B 9904  14.157  17.823   8.350  0.2549 -0.3643  0.1235
  620loPI    C1 9905   0.491   3.141  10.493 -0.0481 -0.2313  0.1425
  620loPI    C2 9906   0.662   3.313  10.811  0.2508 -0.0915 -0.0887
  620loPI    C3 9907   0.465   3.537  10.544  0.0627 -0.1992 -0.0421
  620loPI   PO4 9908   0.720   2.991  10.408 -0.0718 -0.1084  0.1189
  620loPI   GL1 9909   0.896   3.092   9.989  0.1932 -0.0479  0.1612
  620loPI   GL2 9910   0.679   2.776   9.902  0.0137 -0.1545  0.3478
  620loPI   C1A 9911   0.936   3.168   9.627  0.1221  0.0703  0.1843
  620loPI   C2A 9912   1.066   2.911   9.255 -0.0544 -0.0466  0.2296
  620loPI   C3A 9913   1.027   2.652   8.862 -0.0848 -0.1651 -0.1214
  620loPI   C4A 9914   1.121   2.863   8.502  0.0839 -0.2033  0.0626
  620loPI   C5A 9915   1.213   2.910   8.078 -0.3375 -0.0876  0.1136
  620loPI   C6A 9916   1.191   2.727   7.691  0.2471 -0.1485 -0.1785
  620loPI   C1B 9917   0.652   2.737   9.469 -0.1360 -0.0323  0.4360
  620loPI   C2B 9918   0.542   2.594   9.018  0.2077 -0.0617  0.6076
  620loPI   C3B 9919   0.240   2.332   8.852 -0.1352  0.0711  0.0726
  620loPI   C4B 9920   0.260   2.244   8.357  0.2138 -0.2251  0.1572
  621loPI    C1 9921  13.696   0.305  10.506  0.1643 -0.1702  0.2019
  621loPI    C2 9922  13.588   0.521  10.825  0.1106 -0.0615  0.1109
  621loPI    C3 9923  13.959   0.374  10.800  0.2710  0.3498 -0.0043
  621loPI   PO4 9924  13.680   0.415  10.274  0.0469 -0.1275 -0.0772
  621loPI   GL1 9925  13.689   0.531   9.902 -0.1528  0.0709 -0.0331
  621loPI   GL2 9926  13.678   0.875   9.973 -0.1069 -0.0076  0.1765
  621loPI   C1A 9927  13.607   0.582   9.461 -0.1080  0.2301  0.3484
  621loPI   C2A 9928  13.750   0.635   9.090  0.0761  0.0750  0.1655
  621loPI   C3A 9929  13.730   0.735   8.618 -0.0901 -0.4079  0.1906
  621loPI   C4A 9930  13.647   0.938   8.289 -0.1550 -0.0904 -0.1454
  621loPI   C5A 9931  13.456   1.205   8.076 -0.1500 -0.0056 -0.1105
  621loPI   C6A 9932  13.521   1.460   7.835  0.2317  0.0207 -0.2889
  621loPI   C1B 9933  13.705   1.103   9.643 -0.5750  0.0626 -0.0751
  621loPI   C2B 9934  13.460   0.998   9.277 -0.1971  0.1329  0.0538
  621loPI   C3B 9935  13.272   0.865   8.921  0.0227  0.3652 -0.0683
  621loPI   C4B 9936  13.232   0.690   8.526 -0.0352  0.2595  0.1849
  622loPI    C1 9937   1.341   4.006  10.386 -0.2485  0.0398  0.0657
  622loPI    C2 9938   1.439   3.838  10.736 -0.2180 -0.0107  0.0331
  622loPI    C3 9939   1.368   4.232  10.715 -0.1276  0.0082  0.0779
  622loPI   PO4 9940   1.324   3.829  10.233 -0.2681 -0.0450 -0.0494
  622loPI   GL1 9941   1.464   3.966   9.857  0.0986  0.0263 -0.3119
  622loPI   GL2 9942   1.720   4.002   9.706 -0.0739  0.2121  0.3003
  622loPI   C1A 9943   1.438   4.398   9.497 -0.2605  0.0337 -0.1708
  622loPI   C2A 9944   1.420   4.447   9.093 -0.0470  0.0420 -0.1764
  622loPI   C3A 9945   1.437   4.507   8.681  0.0045 -0.0883 -0.0635
  622loPI   C4A 9946   1.249   4.386   8.331  0.1092 -0.1290 -0.3091
  622loPI   C5A 9947   1.066   4.266   7.915  0.1285  0.2930 -0.1567
  622loPI   C6A 9948   0.880   4.184   7.553  0.1949 -0.0915  0.4352
  622loPI   C1B 9949   1.788   4.104   9.240  0.0122  0.2764  0.0704
  622loPI   C2B 9950   1.773   4.014   8.893 -0.0815  0.0051  0.0890
  622loPI   C3B 9951   1.780   4.079   8.447 -0.4490 -0.0817  0.2653
  622loPI   C4B 9952   1.695   4.245   8.046 -0.1143 -0.0411  0.1464
  623loPI    C1 9953  16.461  13.635  10.999  0.2609 -0.1083  0.0072
  623loPI    C2 9954  16.358  13.249  11.029 -0.0417 -0.0163  0.1981
  623loPI    C3 9955  16.639  13.400  11.270  0.0901 -0.1200  0.1108
  623loPI   PO4 9956  16.442  13.609  10.676  0.5170  0.0021 -0.0215
  623loPI   GL1 9957  16.393  13.853  10.325  0.0673 -0.2441 -0.1776
  623loPI   GL2 9958  16.716  14.030  10.140 -0.1825 -0.2835  0.2149
  623loPI   C1A 9959  16.279  13.738   9.907  0.0941  0.0952  0.0952
  623loPI   C2A 9960  16.277  13.688   9.391  0.0350 -0.2054 -0.1042
  623loPI   C3A 9961  16.139  13.556   8.976 -0.0120  0.2096 -0.1512
  623loPI   C4A 9962  16.275  13.393   8.599 -0.2314  0.1921 -0.1600
  623loPI   C5A 9963  16.438  13.234   8.152  0.0458  0.1451  0.2635
  623loPI   C6A 9964  16.749  12.929   8.041  0.0644 -0.2380  0.1057
  623loPI   C1B 9965  16.660  13.965   9.667 -0.0356  0.1744 -0.3469
  623loPI   C2B 9966  16.791  13.933   9.254 -0.0343  0.1282  0.1801
  623loPI   C3B 9967  16.750  13.821   8.927 -0.0103  0.1777  0.0830
  623loPI   C4B 9968  16.677  13.715   8.483  0.0859 -0.6019  0.1347
  624loPI    C1 9969   2.618   8.063  10.087  0.0460  0.0392 -0.1182
  624loPI    C2 9970   2.812   7.843  10.358  0.0631 -0.0579 -0.2086
  624loPI    C3 9971   2.427   7.934  10.413  0.1030  0.0384 -0.0850
  624loPI   PO4 9972   2.640   7.984   9.888  0.4198 -0.5219  0.1092
  624loPI   GL1 9973   2.417   8.058   9.578 -0.0594  0.0884  0.0337
  624loPI   GL2 9974   2.400   8.405   9.639  0.2385 -0.1273  0.0997
  624loPI   C1A 9975   2.162   8.109   9.266 -0.2151  0.0516 -0.0587
  624loPI   C2A 9976   1.986   8.285   8.941 -0.2180  0.1098  0.0961
  624loPI   C3A 9977   1.720   8.600   8.549 -0.0209 -0.1656 -0.1581
  624loPI   C4A 9978   1.855   8.905   8.299 -0.0435 -0.0502  0.2245
  624loPI   C5A 9979   1.881   9.286   8.000  0.0747 -0.1038 -0.1289
  624loPI   C6A 9980   1.685   9.636   8.093 -0.1108  0.0203  0.1869
  624loPI   C1B 9981   2.155   8.576   9.369  0.0180  0.0016  0.0536
  624loPI   C2B 9982   1.838   8.831   9.106 -0.3543 -0.2615 -0.0294
  624loPI   C3B 9983   1.517   8.982   8.844 -0.1466  0.0047  0.3441
  624loPI   C4B 9984   1.218   8.905   8.533 -0.0370  0.4188  0.1320
  625loPI    C1 9985   3.229  15.690  10.414  0.1438  0.1084 -0.2360
  625loPI    C2 9986   3.565  15.739  10.626 -0.0172  0.0353  0.0407
  625loPI    C3 9987   3.504  15.400  10.423  0.0140 -0.0085  0.1043
  625loPI   PO4 9988   3.197  15.952  10.292  0.1721 -0.4766 -0.1255
  625loPI   GL1 9989   3.200  15.956   9.926 -0.1597 -0.2480  0.2607
  625loPI   GL2 9990   3.485  16.145   9.698 -0.0760  0.1114  0.4034
  625loPI   C1A 9991   3.115  15.892   9.532  0.2832  0.2663 -0.0808
  625loPI   C2A 9992   2.791  15.944   9.193 -0.0627  0.0159  0.0181
  625loPI   C3A 9993   2.659  15.876   8.767  0.1024 -0.4564  0.2632
  625loPI   C4A 9994   2.575  15.693   8.377  0.1642 -0.2661  0.0696
  625loPI   C5A 9995   2.279  15.326   8.204  0.0578  0.0685  0.0482
  625loPI   C6A 9996   2.018  15.121   7.807  0.0249 -0.0017 -0.2338
  625loPI   C1B 9997   3.578  15.732   9.531 -0.0188 -0.0642 -0.0337
  625loPI   C2B 9998   3.593  15.475   9.187 -0.0372 -0.1598 -0.0495
  625loPI   C3B 9999   3.636  15.402   8.786 -0.1787 -0.2319 -0.0499
  625loPI   C4B10000   3.589  15.486   8.296  0.0195  0.1655  0.1330
  626loPI    C110001  17.839  12.776  10.640  0.3852  0.2431 -0.0593
  626loPI    C210002  18.093  12.995  10.858  0.0569  0.5019  0.0714
  626loPI    C310003  17.700  13.011  10.932  0.0069  0.0249 -0.0574
  626loPI   PO410004  17.870  12.812  10.426  0.4413 -0.1034 -0.0084
  626loPI   GL110005  18.029  12.534  10.097 -0.0119  0.2363  0.2511
  626loPI   GL210006  17.740  12.560   9.987  0.0063  0.2596  0.0013
  626loPI   C1A10007  18.231  12.641   9.796  0.2105 -0.0690 -0.2353
  626loPI   C2A10008  18.267  12.739   9.287  0.0708  0.4172 -0.0054
  626loPI   C3A10009  18.235  12.688   8.889  0.0901 -0.0731 -0.5075
  626loPI   C4A10010  18.300  12.567   8.517 -0.0930 -0.3405  0.0815
  626loPI   C5A10011  18.149  12.416   8.107 -0.1180  0.2818  0.1013
  626loPI   C6A10012  17.898  12.174   7.860 -0.0233 -0.3130 -0.0071
  626loPI   C1B10013  17.837  12.445   9.503 -0.1333  0.0720  0.3549
  626loPI   C2B10014  17.834  12.419   9.038  0.1238 -0.1032  0.1216
  626loPI   C3B10015  17.853  12.450   8.613  0.0154 -0.2093  0.0986
  626loPI   C4B10016  17.642  12.413   8.227 -0.2229 -0.0920  0.3933
  627loPI    C110017  16.304  11.421  10.739  0.0761  0.0000  0.1053
  627loPI    C210018  16.582  11.590  10.507  0.1195 -0.1640  0.0366
  627loPI    C310019  16.520  11.728  10.878  0.0706  0.0794 -0.0602
  627loPI   PO410020  16.266  11.224  10.526 -0.1708  0.0246  0.0655
  627loPI   GL110021  16.237  11.233  10.101 -0.3535  0.0038  0.1897
  627loPI   GL210022  16.032  11.416  10.000  0.1716  0.1954  0.0175
  627loPI   C1A10023  16.364  10.886   9.840  0.1865 -0.1110  0.1197
  627loPI   C2A10024  16.434  10.792   9.385 -0.0749 -0.3311  0.0759
  627loPI   C3A10025  16.506  10.845   8.948  0.2451  0.2546  0.1082
  627loPI   C4A10026  16.615  10.959   8.620 -0.1953 -0.1811 -0.1979
  627loPI   C5A10027  16.515  10.907   8.227 -0.0950  0.0569 -0.1709
  627loPI   C6A10028  16.276  11.128   7.878  0.2562 -0.2566  0.0375
  627loPI   C1B10029  16.008  11.231   9.595 -0.4950 -0.1860  0.0303
  627loPI   C2B10030  15.871  10.883   9.371 -0.0113 -0.0588 -0.1046
  627loPI   C3B10031  16.052  10.679   8.931  0.1056  0.2949  0.1495
  627loPI   C4B10032  16.200  10.657   8.600 -0.2030  0.0811  0.1228
  628loPI    C110033   5.926   8.259  10.788  0.1681  0.1704 -0.4389
  628loPI    C210034   5.780   8.632  10.801  0.1845  0.1668  0.1829
  628loPI    C310035   5.595   8.338  11.000  0.3102 -0.1117 -0.1021
  628loPI   PO410036   6.001   8.203  10.508  0.1691 -0.2769  0.0868
  628loPI   GL110037   5.986   8.246  10.083  0.0348  0.0109 -0.0202
  628loPI   GL210038   5.996   7.952  10.005 -0.1859  0.0700 -0.0280
  628loPI   C1A10039   5.899   8.436   9.687 -0.3065  0.3706  0.0960
  628loPI   C2A10040   6.119   8.690   9.395 -0.3184  0.2973 -0.1035
  628loPI   C3A10041   6.077   8.934   8.932 -0.1105 -0.3683  0.1242
  628loPI   C4A10042   6.170   8.988   8.474  0.2422 -0.1478 -0.0210
  628loPI   C5A10043   6.183   8.982   8.001  0.1483  0.1307  0.0821
  628loPI   C6A10044   5.765   9.101   7.846 -0.1466 -0.2913  0.0785
  628loPI   C1B10045   6.011   7.969   9.613  0.0164  0.0328  0.0484
  628loPI   C2B10046   6.060   8.056   9.182  0.0048  0.0363  0.0983
  628loPI   C3B10047   6.202   8.424   8.956  0.0635  0.1839 -0.1902
  628loPI   C4B10048   6.083   8.507   8.589  0.1546  0.1578 -0.3036
  629loPI    C110049   1.791   9.657  10.658 -0.0416 -0.1533  0.0679
  629loPI    C210050   1.599   9.863  10.942 -0.3160 -0.0835 -0.1637
  629loPI    C310051   1.858   9.575  11.044 -0.1997  0.1298  0.1579
  629loPI   PO410052   1.594   9.625  10.454 -0.0219  0.0482 -0.1067
  629loPI   GL110053   1.396   9.782  10.012  0.0923  0.1235  0.3004
  629loPI   GL210054   1.533  10.087   9.918  0.3162 -0.0807 -0.3268
  629loPI   C1A10055   1.495   9.530   9.694  0.0147  0.0032  0.1761
  629loPI   C2A10056   1.267   9.286   9.421 -0.0059  0.0331 -0.4054
  629loPI   C3A10057   1.055   9.162   9.042 -0.2045 -0.0323 -0.0020
  629loPI   C4A10058   0.869   8.783   8.900 -0.1342  0.2681 -0.0262
  629loPI   C5A10059   0.769   8.709   8.521 -0.1110 -0.1370  0.2250
  629loPI   C6A10060   0.967   8.511   8.137 -0.4264  0.3032 -0.5361
  629loPI   C1B10061   1.435  10.102   9.564  0.0440  0.1141 -0.0460
  629loPI   C2B10062   1.300  10.193   9.202 -0.2688  0.4223  0.1297
  629loPI   C3B10063   1.283  10.067   8.725 -0.0517  0.2713  0.2154
  629loPI   C4B10064   1.416  10.049   8.230 -0.3157 -0.0071 -0.2327
  630loPI    C110065   7.102   0.835   9.916  0.0893 -0.0777  0.1895
  630loPI    C210066   7.435   0.998   9.765 -0.0612  0.1841  0.1340
  630loPI    C310067   7.358   0.610   9.706  0.1491  0.1606  0.0024
  630loPI   PO410068   6.908   1.095   9.877  0.0566  0.3629 -0.0412
  630loPI   GL110069   6.961   1.367   9.593  0.0075 -0.0530 -0.2013
  630loPI   GL210070   7.290   1.521   9.723  0.1964  0.2317 -0.0208
  630loPI   C1A10071   6.821   1.526   9.224  0.0563  0.0678  0.0020
  630loPI   C2A10072   6.887   1.581   8.884 -0.0307  0.3528  0.4344
  630loPI   C3A10073   6.830   1.821   8.512 -0.1267  0.1698  0.0963
  630loPI   C4A10074   6.837   1.654   8.077 -0.0216  0.1251 -0.0310
  630loPI   C5A10075   6.586   1.630   7.731  0.3447 -0.0691 -0.1776
  630loPI   C6A10076   6.240   1.986   7.612 -0.1049 -0.1695  0.1402
  630loPI   C1B10077   7.353   1.483   9.251 -0.0787  0.0145  0.0655
  630loPI   C2B10078   7.353   1.434   8.806  0.0431  0.0642 -0.3069
  630loPI   C3B10079   7.263   1.546   8.401  0.0374  0.1771 -0.0476
  630loPI   C4B10080   7.321   1.906   8.137  0.3757  0.3954  0.0005
  631loPI    C110081   8.395   8.917  10.669 -0.1448  0.2603  0.1758
  631loPI    C210082   8.222   8.579  10.794 -0.0243  0.0880 -0.1134
  631loPI    C310083   8.469   8.779  11.037 -0.0710 -0.0482  0.0480
  631loPI   PO410084   8.105   9.002  10.449 -0.1221 -0.1267  0.0094
  631loPI   GL110085   8.108   9.310  10.183 -0.2522 -0.4217  0.2755
  631loPI   GL210086   7.979   9.527  10.122 -0.1221 -0.0870  0.0481
  631loPI   C1A10087   7.938   9.124   9.791  0.5450  0.0594 -0.1804
  631loPI   C2A10088   7.835   9.265   9.333 -0.2650  0.1041  0.1529
  631loPI   C3A10089   7.708   9.197   8.925 -0.1169  0.0643 -0.1067
  631loPI   C4A10090   7.547   9.099   8.457 -0.0894  0.0241  0.0720
  631loPI   C5A10091   7.301   9.198   8.091  0.1007  0.2511  0.0392
  631loPI   C6A10092   7.037   9.531   8.071  0.3284 -0.1364 -0.3926
  631loPI   C1B10093   8.219   9.498   9.668 -0.2548  0.0080 -0.0858
  631loPI   C2B10094   8.107   9.841   9.382 -0.0384 -0.1282  0.2131
  631loPI   C3B10095   7.903  10.075   9.188  0.1046  0.1421  0.0408
  631loPI   C4B10096   7.743  10.185   8.817 -0.2710  0.1566 -0.1556
  632loPI    C110097   0.081  16.624  10.322 -0.1052  0.0470 -0.0578
  632loPI    C210098  -0.050  16.944  10.523  0.2829  0.1695  0.0076
  632loPI    C310099   0.028  16.971  10.131  0.1202  0.0975 -0.0307
  632loPI   PO410100  -0.120  16.423  10.388 -0.1363  0.1680 -0.1857
  632loPI   GL110101  -0.206  16.143  10.039  0.3643  0.0058 -0.2532
  632loPI   GL210102  -0.430  16.106  10.130 -0.1322 -0.0793 -0.2445
  632loPI   C1A10103  -0.052  16.058   9.610 -0.0682  0.1733 -0.0123
  632loPI   C2A10104  -0.096  15.939   9.217 -0.0005  0.1499  0.0070
  632loPI   C3A10105  -0.036  15.940   8.747  0.2059  0.1563  0.1088
  632loPI   C4A10106  -0.124  15.829   8.355  0.2150 -0.4137 -0.1961
  632loPI   C5A10107   0.020  15.752   7.862  0.1407  0.1162  0.0178
  632loPI   C6A10108   0.431  15.837   7.643  0.0608 -0.1413  0.1464
  632loPI   C1B10109  -0.529  16.220   9.733  0.1824 -0.0499  0.2997
  632loPI   C2B10110  -0.501  16.298   9.358 -0.1858  0.0879 -0.3995
  632loPI   C3B10111  -0.554  16.187   8.922  0.1408 -0.0991  0.0826
  632loPI   C4B10112  -0.607  16.144   8.543 -0.3308 -0.4201 -0.2379
  633loPI    C110113   5.395   8.954  10.593  0.0462  0.0176  0.1252
  633loPI    C210114   5.301   8.741  10.918 -0.1183  0.2069  0.2036
  633loPI    C310115   5.565   9.040  10.945 -0.0092  0.1180  0.1279
  633loPI   PO410116   5.526   8.830  10.353 -0.0304 -0.0386  0.4127
  633loPI   GL110117   5.533   8.687   9.969  0.5147 -0.0251  0.0285
  633loPI   GL210118   5.239   8.725   9.792  0.2914  0.0972  0.0091
  633loPI   C1A10119   5.620   8.810   9.520 -0.1622  0.3061 -0.2728
  633loPI   C2A10120   5.809   9.201   9.460 -0.0133 -0.0116  0.0043
  633loPI   C3A10121   5.718   9.427   9.077 -0.0196 -0.1178 -0.0882
  633loPI   C4A10122   5.512   9.759   8.838  0.0484  0.3858  0.1234
  633loPI   C5A10123   5.508   9.999   8.510  0.1641 -0.2246 -0.1382
  633loPI   C6A10124   5.422  10.167   8.180 -0.1116  0.1649 -0.2788
  633loPI   C1B10125   5.218   8.581   9.304  0.1071  0.1549  0.2432
  633loPI   C2B10126   5.131   8.583   8.844  0.0694 -0.2822  0.1315
  633loPI   C3B10127   5.170   8.794   8.501 -0.0763 -0.1881  0.4291
  633loPI   C4B10128   5.390   9.058   8.152  0.0551  0.0650  0.1782
  634loPI    C110129  16.719   4.463  10.596  0.0086 -0.2052 -0.1635
  634loPI    C210130  16.991   4.565  10.871 -0.0793  0.1250 -0.1952
  634loPI    C310131  16.603   4.548  10.969 -0.1094  0.2296 -0.2931
  634loPI   PO410132  16.932   4.349  10.385 -0.1567  0.0150 -0.0232
  634loPI   GL110133  17.076   4.494  10.013 -0.0063 -0.3907 -0.3465
  634loPI   GL210134  17.299   4.420   9.887  0.3383  0.0259  0.2907
  634loPI   C1A10135  16.847   4.736   9.615 -0.1273  0.1027  0.1397
  634loPI   C2A10136  17.060   4.782   9.221  0.1499  0.0675 -0.0917
  634loPI   C3A10137  17.304   4.757   8.812  0.1229 -0.1190  0.0786
  634loPI   C4A10138  17.432   4.789   8.326 -0.1237  0.2451 -0.1415
  634loPI   C5A10139  17.357   5.011   7.977  0.0360  0.1522  0.0536
  634loPI   C6A10140  17.378   5.226   7.642  0.0234  0.1870  0.3113
  634loPI   C1B10141  16.915   4.276   9.617  0.0022 -0.0490  0.0727
  634loPI   C2B10142  16.675   3.916   9.481 -0.3395 -0.0596 -0.1988
  634loPI   C3B10143  16.421   3.424   9.457 -0.0660 -0.3211 -0.2963
  634loPI   C4B10144  16.103   3.076   9.315  0.2662  0.0699  0.1343
  635loPI    C110145  15.817  13.372  10.781  0.1192 -0.1223  0.0198
  635loPI    C210146  15.987  13.642  11.022 -0.0050 -0.0500  0.0273
  635loPI    C310147  15.597  13.666  10.939  0.0717  0.0329 -0.3258
  635loPI   PO410148  16.007  13.327  10.658 -0.2467  0.0484 -0.0480
  635loPI   GL110149  16.257  13.306  10.201 -0.0995  0.2739 -0.4200
  635loPI   GL210150  15.901  13.455  10.140 -0.0921 -0.1125 -0.0396
  635loPI   C1A10151  16.272  13.082   9.761  0.1601 -0.1002  0.0702
  635loPI   C2A10152  16.341  13.196   9.300 -0.0720  0.1196  0.4331
  635loPI   C3A10153  16.390  13.143   8.991  0.0014  0.2135 -0.0958
  635loPI   C4A10154  16.308  12.887   8.618 -0.1037  0.0264  0.0952
  635loPI   C5A10155  16.533  12.580   8.386  0.3086  0.0022  0.1613
  635loPI   C6A10156  16.796  12.313   8.354  0.1656 -0.1712 -0.1074
  635loPI   C1B10157  15.878  13.485   9.688  0.2713 -0.3252 -0.0170
  635loPI   C2B10158  15.842  13.299   9.285  0.1020  0.6339 -0.4171
  635loPI   C3B10159  15.803  13.228   8.843  0.2859  0.2193 -0.3016
  635loPI   C4B10160  15.867  13.072   8.439  0.3350 -0.1752 -0.0779
  636loPI    C110161  18.764  10.444  10.766 -0.0455 -0.1286 -0.1626
  636loPI    C210162  18.516  10.433  11.080 -0.2328  0.0912 -0.2990
  636loPI    C310163  18.679  10.095  10.942  0.3370  0.0522  0.4085
  636loPI   PO410164  18.590  10.471  10.594 -0.1308 -0.1370 -0.1047
  636loPI   GL110165  18.573  10.501  10.131  0.0303  0.0210 -0.2792
  636loPI   GL210166  18.883  10.303  10.201  0.2317 -0.0511  0.0838
  636loPI   C1A10167  18.679  10.536   9.725  0.1389  0.1724 -0.0533
  636loPI   C2A10168  18.661  10.603   9.375  0.1662 -0.1276  0.1388
  636loPI   C3A10169  18.473  10.545   8.931  0.2829  0.1935 -0.1818
  636loPI   C4A10170  18.520  10.659   8.484 -0.0430 -0.4617 -0.1624
  636loPI   C5A10171  18.213  10.796   8.076 -0.0509  0.0807  0.0979
  636loPI   C6A10172  17.965  10.882   7.696  0.0546  0.0792 -0.0962
  636loPI   C1B10173  19.016  10.771  10.032 -0.0010 -0.0902 -0.0650
  636loPI   C2B10174  19.062  10.969   9.640 -0.0986  0.0053  0.0370
  636loPI   C3B10175  19.055  10.923   9.220 -0.5669 -0.0652 -0.4033
  636loPI   C4B10176  18.851  10.882   8.865 -0.0039  0.0756  0.1521
  637loPI    C110177   2.218  11.565  10.524 -0.4790 -0.2876  0.0474
  637loPI    C210178   2.138  11.280  10.793  0.0466 -0.2698  0.2357
  637loPI    C310179   2.268  11.638  10.914  0.0374 -0.1732 -0.0330
  637loPI   PO410180   2.360  11.436  10.322  0.2311  0.0114  0.1167
  637loPI   GL110181   2.364  11.497   9.914  0.1992 -0.2817 -0.1414
  637loPI   GL210182   2.614  11.471   9.800  0.2682  0.2208 -0.1680
  637loPI   C1A10183   2.024  11.336   9.604 -0.1125  0.4725 -0.0582
  637loPI   C2A10184   2.070  11.364   9.246  0.0439 -0.0778 -0.2602
  637loPI   C3A10185   2.020  11.341   8.822  0.0370  0.2530 -0.0149
  637loPI   C4A10186   1.994  11.283   8.366 -0.2650 -0.2660 -0.1341
  637loPI   C5A10187   2.042  11.442   8.068 -0.1886 -0.0715 -0.2830
  637loPI   C6A10188   1.965  11.359   7.756  0.1797  0.3141  0.1124
  637loPI   C1B10189   2.474  11.676   9.411  0.1046 -0.0799  0.1381
  637loPI   C2B10190   2.446  11.608   8.966  0.0121 -0.0747  0.0013
  637loPI   C3B10191   2.718  11.502   8.719 -0.1892 -0.0985 -0.2640
  637loPI   C4B10192   2.893  11.356   8.332  0.1385 -0.0593 -0.0603
  638loPI    C110193  11.181  14.455  10.442 -0.1472  0.0604 -0.3259
  638loPI    C210194  11.036  14.089  10.377 -0.1013  0.0052 -0.1259
  638loPI    C310195  11.075  14.224  10.751 -0.0085  0.1701 -0.1942
  638loPI   PO410196  11.401  14.450  10.267 -0.2591  0.0456 -0.0669
  638loPI   GL110197  11.583  14.749   9.921 -0.0143 -0.1723  0.3292
  638loPI   GL210198  11.390  15.025   9.750 -0.0483  0.0209 -0.1327
  638loPI   C1A10199  11.737  14.907   9.453  0.4007  0.0714  0.1703
  638loPI   C2A10200  11.777  15.177   9.163 -0.0596 -0.1006  0.0357
  638loPI   C3A10201  12.006  15.235   8.674 -0.1199  0.1903 -0.1623
  638loPI   C4A10202  11.971  15.399   8.240  0.1035  0.1737 -0.1650
  638loPI   C5A10203  12.051  15.434   7.842  0.1630  0.0141 -0.2809
  638loPI   C6A10204  12.306  15.502   7.524 -0.2918 -0.1482 -0.0127
  638loPI   C1B10205  11.159  14.994   9.289 -0.0084 -0.0359  0.1031
  638loPI   C2B10206  10.835  15.044   9.158  0.2700  0.0112 -0.1903
  638loPI   C3B10207  10.773  14.993   8.731  0.0315 -0.2050  0.0695
  638loPI   C4B10208  10.691  15.257   8.345 -0.0653 -0.4846  0.2192
  639loPI    C110209  12.804   1.563  10.541  0.1527 -0.2048  0.0536
  639loPI    C210210  13.125   1.801  10.552  0.0534 -0.0561 -0.1844
  639loPI    C310211  12.760   1.956  10.599  0.0198 -0.2404  0.2017
  639loPI   PO410212  12.840   1.376  10.370 -0.0755  0.0185 -0.4413
  639loPI   GL110213  12.706   1.261  10.024 -0.2278  0.1444  0.3789
  639loPI   GL210214  12.860   1.532   9.862  0.0313  0.1871 -0.1896
  639loPI   C1A10215  12.480   1.112   9.789  0.5342 -0.2403 -0.1039
  639loPI   C2A10216  12.364   1.198   9.413 -0.1376 -0.0298 -0.0598
  639loPI   C3A10217  12.301   1.153   8.938 -0.1036 -0.1921 -0.1568
  639loPI   C4A10218  12.315   1.215   8.590  0.1023  0.2637  0.2578
  639loPI   C5A10219  12.521   1.175   8.174  0.0104  0.0136  0.0328
  639loPI   C6A10220  12.522   1.339   7.728  0.1691 -0.2144  0.0121
  639loPI   C1B10221  12.810   1.447   9.414  0.3794  0.1093  0.1503
  639loPI   C2B10222  12.455   1.597   9.154 -0.3231 -0.0639  0.1670
  639loPI   C3B10223  12.269   1.990   9.110 -0.1619 -0.0798 -0.0706
  639loPI   C4B10224  12.260   2.089   8.699  0.3544 -0.1907 -0.0638
  640loPI    C110225  18.621  13.406  10.920 -0.0640  0.1557 -0.2629
  640loPI    C210226  18.442  13.761  10.961 -0.3645 -0.0382  0.1848
  640loPI    C310227  18.610  13.585  11.278  0.0856 -0.1442 -0.1049
  640loPI   PO410228  18.809  13.320  10.688  0.0180 -0.0295 -0.0748
  640loPI   GL110229  18.802  13.268  10.227 -0.4601  0.0507 -0.0577
  640loPI   GL210230  18.592  13.401  10.144  0.1215 -0.2489 -0.0850
  640loPI   C1A10231  18.731  12.974   9.904  0.1116  0.3268 -0.2526
  640loPI   C2A10232  18.700  13.026   9.481 -0.0243 -0.1963  0.2364
  640loPI   C3A10233  18.590  13.082   9.012 -0.1836 -0.0119  0.0559
  640loPI   C4A10234  18.613  13.002   8.525 -0.1852  0.1886  0.0876
  640loPI   C5A10235  18.708  12.896   8.146 -0.0008  0.2250  0.0978
  640loPI   C6A10236  18.846  12.932   7.742 -0.2152 -0.1125  0.0729
  640loPI   C1B10237  18.564  13.534   9.766  0.1187  0.2428 -0.0512
  640loPI   C2B10238  18.506  13.445   9.387 -0.0117  0.1132  0.2787
  640loPI   C3B10239  18.625  13.627   9.103  0.3627 -0.1241 -0.2199
  640loPI   C4B10240  18.543  13.586   8.720 -0.3128 -0.4138  0.0501
  641loPI    C110241  17.570  14.800  10.422  0.0817 -0.0603 -0.2022
  641loPI    C210242  17.495  14.493  10.666  0.1414 -0.0633 -0.1874
  641loPI    C310243  17.195  14.727  10.541  0.1107 -0.0617 -0.1114
  641loPI   PO410244  17.857  14.783  10.370 -0.0766 -0.1204  0.2670
  641loPI   GL110245  18.033  14.701   9.980  0.1902  0.0216 -0.1631
  641loPI   GL210246  18.318  14.938   9.992 -0.0456 -0.2426 -0.2351
  641loPI   C1A10247  17.869  14.801   9.575  0.3537 -0.0817  0.1937
  641loPI   C2A10248  17.912  14.854   9.162 -0.2636  0.1399  0.3259
  641loPI   C3A10249  17.920  14.808   8.657 -0.0744 -0.0475  0.3392
  641loPI   C4A10250  17.787  14.826   8.230  0.2152 -0.2426  0.0566
  641loPI   C5A10251  17.761  15.068   7.941 -0.3021  0.0408  0.2519
  641loPI   C6A10252  17.913  15.462   7.762 -0.1348 -0.1918 -0.1600
  641loPI   C1B10253  18.290  15.038   9.545 -0.1834 -0.0984 -0.1109
  641loPI   C2B10254  18.326  15.167   9.129  0.0097 -0.4048  0.1768
  641loPI   C3B10255  18.324  15.132   8.708  0.1660  0.1094 -0.0346
  641loPI   C4B10256  18.126  15.129   8.244  0.0601  0.2005 -0.0768
  642loPI    C110257  12.079   6.455  10.671 -0.0148 -0.1872  0.0634
  642loPI    C210258  11.705   6.337  10.594  0.0206 -0.2045 -0.0853
  642loPI    C310259  11.810   6.440  10.966 -0.1267 -0.2172 -0.0396
  642loPI   PO410260  12.181   6.617  10.525 -0.1530 -0.2656 -0.0310
  642loPI   GL110261  12.468   6.565  10.295  0.1191  0.1070 -0.0554
  642loPI   GL210262  12.404   6.878  10.073  0.0520 -0.0449  0.0030
  642loPI   C1A10263  12.493   6.466   9.825  0.1409 -0.1707 -0.0425
  642loPI   C2A10264  12.562   6.511   9.271  0.1374 -0.0128 -0.0739
  642loPI   C3A10265  12.595   6.422   8.794 -0.2094 -0.2979 -0.3969
  642loPI   C4A10266  12.640   6.485   8.298  0.0110 -0.0421 -0.1506
  642loPI   C5A10267  12.670   6.715   7.919 -0.3006 -0.1115 -0.0030
  642loPI   C6A10268  12.618   6.901   7.476  0.0918 -0.3265 -0.3188
  642loPI   C1B10269  12.655   6.900   9.801 -0.0117  0.0250  0.1128
  642loPI   C2B10270  12.828   6.891   9.392  0.1242  0.0706 -0.1933
  642loPI   C3B10271  12.878   6.819   8.991 -0.1555  0.1949  0.0932
  642loPI   C4B10272  12.826   6.964   8.613 -0.0961  0.0525  0.1021
  643loPI    C110273  16.012   2.786  10.439 -0.1021 -0.1810  0.0555
  643loPI    C210274  16.210   3.051  10.663 -0.0117  0.0517 -0.2912
  643loPI    C310275  15.888   2.865  10.811  0.2021 -0.0020  0.1224
  643loPI   PO410276  15.992   2.902  10.117  0.0375 -0.0963 -0.2079
  643loPI   GL110277  16.194   2.827   9.768  0.2340  0.1470 -0.0645
  643loPI   GL210278  16.539   2.844   9.684 -0.0331  0.1688  0.0324
  643loPI   C1A10279  15.878   2.633   9.475 -0.0183 -0.1887 -0.0506
  643loPI   C2A10280  15.630   2.302   9.275  0.0148  0.0908  0.3966
  643loPI   C3A10281  15.447   2.128   8.922 -0.0438 -0.1142 -0.1069
  643loPI   C4A10282  15.550   1.819   8.737 -0.1324 -0.0630  0.2804
  643loPI   C5A10283  15.712   1.440   8.842 -0.1278 -0.0346  0.1158
  643loPI   C6A10284  15.435   1.143   9.008  0.0468 -0.1290 -0.0177
  643loPI   C1B10285  16.815   3.011   9.428  0.0917 -0.2702  0.1126
  643loPI   C2B10286  17.026   3.174   9.028  0.0735 -0.2813  0.0700
  643loPI   C3B10287  17.231   2.997   8.681 -0.2342 -0.0293 -0.1040
  643loPI   C4B10288  17.062   2.786   8.367 -0.1837 -0.0816 -0.2850
  644loPI    C110289   0.679  13.849  10.715  0.2350 -0.1209 -0.0400
  644loPI    C210290   0.902  14.154  10.582 -0.0721  0.1983  0.1600
  644loPI    C310291   0.933  14.034  10.963  0.0048  0.0154  0.0976
  644loPI   PO410292   0.599  13.647  10.595  0.1311 -0.2099  0.1077
  644loPI   GL110293   0.436  13.579  10.199 -0.0488 -0.0872  0.1740
  644loPI   GL210294   0.206  13.788  10.033  0.0736 -0.0579  0.2319
  644loPI   C1A10295   0.370  13.403   9.736 -0.0991 -0.1451 -0.3778
  644loPI   C2A10296   0.319  13.435   9.368 -0.0636  0.0725 -0.0635
  644loPI   C3A10297   0.239  13.398   8.867 -0.2088  0.1380  0.0036
  644loPI   C4A10298   0.361  13.381   8.445  0.0922 -0.0176  0.0621
  644loPI   C5A10299   0.087  13.402   8.082 -0.2358 -0.1562 -0.2335
  644loPI   C6A10300   0.202  13.482   7.630  0.1343  0.0885  0.0750
  644loPI   C1B10301   0.268  13.982   9.656  0.0406  0.1168  0.0179
  644loPI   C2B10302   0.239  13.902   9.173  0.0206 -0.0549 -0.2028
  644loPI   C3B10303   0.120  14.008   8.773  0.0496  0.3322 -0.1194
  644loPI   C4B10304   0.145  13.874   8.295 -0.0948  0.0733 -0.2567
  645loPI    C110305   7.462   7.583  10.637  0.0239 -0.4806  0.0112
  645loPI    C210306   7.419   7.577  11.034 -0.3356 -0.0196 -0.0130
  645loPI    C310307   7.267   7.879  10.821  0.3360  0.0306 -0.4503
  645loPI   PO410308   7.667   7.510  10.584 -0.2519  0.0652  0.1373
  645loPI   GL110309   8.013   7.680  10.437  0.0767 -0.0688  0.0117
  645loPI   GL210310   8.087   7.968  10.285 -0.0144  0.4328  0.2106
  645loPI   C1A10311   8.136   7.400  10.065 -0.2550  0.2205 -0.3258
  645loPI   C2A10312   8.205   7.204   9.627 -0.1657  0.1287 -0.0818
  645loPI   C3A10313   8.406   7.300   9.194  0.1188  0.3571  0.0177
  645loPI   C4A10314   8.244   7.267   8.803  0.2234 -0.0599  0.2255
  645loPI   C5A10315   8.162   7.176   8.329 -0.1397  0.3090  0.1092
  645loPI   C6A10316   8.391   7.258   7.879  0.3435  0.3075  0.0173
  645loPI   C1B10317   8.249   8.088   9.884  0.0188 -0.0363 -0.0284
  645loPI   C2B10318   8.389   8.151   9.557  0.1717 -0.4604  0.3227
  645loPI   C3B10319   8.370   8.277   9.145 -0.2640 -0.0020 -0.0705
  645loPI   C4B10320   8.331   8.198   8.691  0.3165 -0.1817  0.3641
  646loPI    C110321   3.291  16.315  10.629  0.0302 -0.1200 -0.0653
  646loPI    C210322   3.318  16.390  11.021  0.0193 -0.0264 -0.0822
  646loPI    C310323   3.649  16.380  10.795 -0.0066  0.2959 -0.1386
  646loPI   PO410324   3.002  16.387  10.509 -0.0524 -0.3749 -0.0684
  646loPI   GL110325   2.781  16.354  10.115 -0.1290  0.2354  0.0301
  646loPI   GL210326   2.732  16.002  10.034  0.1826 -0.2961  0.2099
  646loPI   C1A10327   3.033  16.354   9.654 -0.3393 -0.1254 -0.2498
  646loPI   C2A10328   3.163  16.315   9.242 -0.1786  0.1980 -0.0846
  646loPI   C3A10329   3.109  16.265   8.873  0.0129  0.0246 -0.1878
  646loPI   C4A10330   3.091  16.025   8.451 -0.0362 -0.2046 -0.1271
  646loPI   C5A10331   3.403  15.890   8.095 -0.0007  0.1752 -0.0794
  646loPI   C6A10332   3.437  15.738   7.591 -0.1766 -0.3466 -0.0127
  646loPI   C1B10333   2.578  15.957   9.601  0.0251  0.2334 -0.2066
  646loPI   C2B10334   2.277  16.019   9.205  0.0371 -0.2531 -0.2204
  646loPI   C3B10335   2.199  16.019   8.762  0.0464 -0.2544  0.1428
  646loPI   C4B10336   2.115  15.883   8.319 -0.0343 -0.0046 -0.1530
  647loPI    C110337  17.741  11.740  10.830 -0.0815 -0.2088  0.1506
  647loPI    C210338  17.663  12.065  11.051  0.3588 -0.0059  0.0201
  647loPI    C310339  17.914  11.785  11.188 -0.0838 -0.3413  0.1685
  647loPI   PO410340  17.844  11.757  10.504  0.0007 -0.0415 -0.1637
  647loPI   GL110341  17.952  11.524  10.167 -0.1539  0.2066 -0.0227
  647loPI   GL210342  18.276  11.587  10.255 -0.0923  0.0408 -0.1577
  647loPI   C1A10343  17.823  11.567   9.786  0.1529 -0.0885  0.0453
  647loPI   C2A10344  17.895  11.763   9.410 -0.1633  0.0129  0.0180
  647loPI   C3A10345  17.903  11.883   9.036 -0.1876 -0.0174 -0.1651
  647loPI   C4A10346  17.902  11.913   8.627  0.0794 -0.1214  0.0009
  647loPI   C5A10347  17.897  11.844   8.225 -0.2741  0.1268 -0.0133
  647loPI   C6A10348  18.056  11.611   7.847 -0.1632 -0.3596  0.2854
  647loPI   C1B10349  18.349  11.529   9.807  0.1589 -0.1462 -0.0584
  647loPI   C2B10350  18.382  11.554   9.432 -0.1113  0.3752  0.0040
  647loPI   C3B10351  18.400  11.746   9.064 -0.1371  0.2739 -0.1797
  647loPI   C4B10352  18.271  11.578   8.632  0.3916  0.0650 -0.0116
  648loPI    C110353   3.991   4.301  10.817  0.0912 -0.1544  0.0334
  648loPI    C210354   3.596   4.240  10.838  0.1047 -0.3344 -0.1971
  648loPI    C310355   3.774   4.489  11.095 -0.1677 -0.2049 -0.1309
  648loPI   PO410356   4.023   4.410  10.547 -0.0089  0.2232 -0.1849
  648loPI   GL110357   4.100   4.525  10.131  0.1508  0.1220  0.2374
  648loPI   GL210358   4.285   4.874  10.038 -0.0387 -0.2501  0.0340
  648loPI   C1A10359   4.084   4.546   9.642  0.0523 -0.0028 -0.1750
  648loPI   C2A10360   4.071   4.534   9.189 -0.1233 -0.0810 -0.0712
  648loPI   C3A10361   4.092   4.443   8.860  0.0146 -0.2852  0.2357
  648loPI   C4A10362   4.136   4.443   8.473  0.1800  0.1398  0.0634
  648loPI   C5A10363   4.310   4.462   7.971  0.2195  0.0885 -0.0904
  648loPI   C6A10364   4.298   4.352   7.511  0.0712 -0.1241 -0.1167
  648loPI   C1B10365   4.524   4.671   9.737 -0.0519  0.1873  0.2873
  648loPI   C2B10366   4.531   4.649   9.283 -0.1461  0.2486  0.0328
  648loPI   C3B10367   4.603   4.710   8.789 -0.0329  0.0410 -0.3780
  648loPI   C4B10368   4.675   4.677   8.374 -0.1295 -0.1096 -0.0742
  649loPI    C110369  16.864   8.610  10.939 -0.2126  0.2873 -0.1549
  649loPI    C210370  16.692   8.423  11.248  0.2444 -0.0194 -0.0742
  649loPI    C310371  16.692   8.823  11.230 -0.1358 -0.0065  0.1116
  649loPI   PO410372  17.101   8.498  10.817 -0.0571  0.1051  0.0158
  649loPI   GL110373  17.095   8.538  10.434  0.2330 -0.1385  0.0079
  649loPI   GL210374  17.207   8.912  10.394 -0.1076  0.2639 -0.2722
  649loPI   C1A10375  17.035   8.490   9.914  0.3303  0.3493  0.1765
  649loPI   C2A10376  17.032   8.483   9.437 -0.1783  0.1622 -0.2007
  649loPI   C3A10377  17.083   8.396   9.015  0.0939 -0.3003 -0.3069
  649loPI   C4A10378  17.170   8.357   8.649 -0.0891 -0.0349 -0.0892
  649loPI   C5A10379  17.363   8.562   8.316 -0.3215 -0.0404  0.2109
  649loPI   C6A10380  17.283   8.614   7.898  0.0234  0.2720 -0.0424
  649loPI   C1B10381  17.329   8.904  10.045 -0.0828 -0.1008 -0.0047
  649loPI   C2B10382  17.312   8.875   9.631  0.0526  0.2869  0.0190
  649loPI   C3B10383  17.305   8.919   9.252 -0.0633 -0.0523 -0.0077
  649loPI   C4B10384  17.422   8.910   8.791  0.1130  0.0913  0.0417
  650loPI    C110385  10.879  13.569  10.458  0.0255 -0.2724  0.1863
  650loPI    C210386  11.186  13.572  10.714 -0.0014 -0.2894  0.2188
  650loPI    C310387  10.856  13.784  10.794  0.1986  0.1393 -0.0582
  650loPI   PO410388  11.042  13.568  10.191  0.0749 -0.0824  0.2241
  650loPI   GL110389  11.029  13.772   9.838  0.0594  0.1441 -0.0120
  650loPI   GL210390  10.813  14.003   9.595  0.4053 -0.0548 -0.0220
  650loPI   C1A10391  11.171  13.763   9.404  0.0977  0.2403  0.1737
  650loPI   C2A10392  11.101  13.740   8.939  0.0112  0.0019 -0.2494
  650loPI   C3A10393  11.004  13.573   8.593 -0.1599  0.0950 -0.1925
  650loPI   C4A10394  10.689  13.526   8.362  0.0507 -0.0406  0.0509
  650loPI   C5A10395  10.431  13.159   8.204 -0.0414 -0.0234  0.0211
  650loPI   C6A10396  10.055  12.972   8.098 -0.1835 -0.0543  0.0246
  650loPI   C1B10397  10.854  14.127   9.183 -0.0229  0.5453  0.1593
  650loPI   C2B10398  10.932  14.120   8.749 -0.0107 -0.1135 -0.0427
  650loPI   C3B10399  10.973  14.067   8.359  0.0073  0.1413 -0.1126
  650loPI   C4B10400  10.949  13.792   7.993 -0.1119  0.0591  0.2096
  651loPI    C110401   3.607  16.861  10.084 -0.1262  0.2982  0.0135
  651loPI    C210402   3.672  17.100  10.398  0.0839  0.0532  0.1612
  651loPI    C310403   3.777  16.715  10.416 -0.1608 -0.0295 -0.1093
  651loPI   PO410404   3.713  17.019   9.895  0.2924 -0.0970 -0.0885
  651loPI   GL110405   3.435  17.119   9.530 -0.1690 -0.2902  0.0741
  651loPI   GL210406   3.683  17.336   9.504 -0.0084  0.2790  0.0558
  651loPI   C1A10407   3.333  17.097   9.108  0.1132 -0.1400  0.0168
  651loPI   C2A10408   3.346  17.186   8.683 -0.0409 -0.0840 -0.2856
  651loPI   C3A10409   3.455  17.442   8.264 -0.1706 -0.0243 -0.1356
  651loPI   C4A10410   3.761  17.601   8.059  0.3275  0.1513 -0.1631
  651loPI   C5A10411   4.037  17.865   7.878  0.0514  0.2843 -0.3259
  651loPI   C6A10412   4.297  18.054   7.508  0.0923  0.3278  0.3789
  651loPI   C1B10413   3.876  17.087   9.083 -0.1863  0.0178  0.0306
  651loPI   C2B10414   3.825  17.097   8.631  0.1664 -0.3263 -0.0992
  651loPI   C3B10415   3.827  17.114   8.177 -0.1532 -0.0773  0.0459
  651loPI   C4B10416   3.618  17.212   7.792 -0.0157  0.0082 -0.2287
  652loPI    C110417  10.065  14.911  10.696 -0.0801  0.1904 -0.2425
  652loPI    C210418   9.795  14.933  10.991  0.2296  0.0490  0.0585
  652loPI    C310419   9.894  14.578  10.835  0.3420  0.0853  0.0459
  652loPI   PO410420  10.018  15.064  10.545  0.0856 -0.0641  0.1062
  652loPI   GL110421  10.205  15.338  10.204 -0.0805 -0.0639 -0.0756
  652loPI   GL210422   9.941  15.485  10.293  0.1744  0.1767 -0.3420
  652loPI   C1A10423  10.077  15.216   9.785  0.0734 -0.4316  0.3488
  652loPI   C2A10424   9.971  15.187   9.297  0.1583 -0.1981  0.2124
  652loPI   C3A10425  10.007  15.072   9.017  0.0165  0.3362 -0.2019
  652loPI   C4A10426  10.185  15.311   8.709  0.1151 -0.1059  0.0472
  652loPI   C5A10427  10.159  15.357   8.267  0.2704 -0.0144 -0.1195
  652loPI   C6A10428  10.022  15.506   7.968  0.2323 -0.0191  0.1416
  652loPI   C1B10429  10.082  15.756   9.855  0.1309 -0.0847  0.1664
  652loPI   C2B10430  10.122  15.633   9.392 -0.0151 -0.3022 -0.2954
  652loPI   C3B10431  10.222  15.733   9.018  0.0698  0.2276 -0.2583
  652loPI   C4B10432  10.440  15.771   8.633  0.2190  0.0917  0.1178
  653loPI    C110433   9.599  10.015  10.795 -0.0655 -0.0417 -0.0699
  653loPI    C210434   9.890   9.754  10.880 -0.0190  0.0177 -0.0464
  653loPI    C310435   9.563   9.770  11.109 -0.1469 -0.2103 -0.2085
  653loPI   PO410436   9.661   9.994  10.476 -0.0153 -0.2078 -0.2855
  653loPI   GL110437   9.674   9.772  10.073 -0.0419 -0.2454  0.1832
  653loPI   GL210438   9.431   9.824   9.807 -0.0404 -0.0975 -0.2008
  653loPI   C1A10439   9.912   9.737   9.667 -0.1151  0.1160 -0.0825
  653loPI   C2A10440   9.955   9.713   9.256  0.0679  0.0765 -0.0540
  653loPI   C3A10441   9.871   9.900   8.799 -0.0482  0.2995 -0.0925
  653loPI   C4A10442   9.860   9.809   8.365  0.1368 -0.2517 -0.1068
  653loPI   C5A10443   9.809   9.464   7.948  0.0822  0.0089 -0.0497
  653loPI   C6A10444  10.114   9.415   7.672 -0.0294 -0.0432 -0.1058
  653loPI   C1B10445   9.489   9.838   9.385 -0.3853  0.1009 -0.1062
  653loPI   C2B10446   9.401   9.905   8.923  0.0030  0.0868  0.0146
  653loPI   C3B10447   9.344  10.033   8.510 -0.2296 -0.3082 -0.4990
  653loPI   C4B10448   9.577  10.075   8.033 -0.1260 -0.0940  0.2067
  654loPI    C110449   9.772   8.228  11.030 -0.0406 -0.0853 -0.0601
  654loPI    C210450  10.110   8.044  11.138 -0.0603 -0.1507 -0.1091
  654loPI    C310451   9.934   8.302  11.388 -0.0739 -0.2565 -0.0087
  654loPI   PO410452   9.674   8.089  10.700 -0.0408 -0.1767 -0.2060
  654loPI   GL110453   9.372   8.100  10.306 -0.3323 -0.0451  0.0024
  654loPI   GL210454   9.536   8.341  10.168 -0.3835 -0.2566  0.0811
  654loPI   C1A10455   9.333   7.902   9.864 -0.0560 -0.3617 -0.2395
  654loPI   C2A10456   9.333   8.005   9.443  0.2992 -0.0460 -0.3524
  654loPI   C3A10457   9.323   8.087   9.063  0.0008  0.0601 -0.2143
  654loPI   C4A10458   9.319   8.084   8.618  0.2381 -0.1746  0.1759
  654loPI   C5A10459   9.384   8.103   8.172 -0.2257 -0.0022  0.2215
  654loPI   C6A10460   9.627   8.468   7.956  0.1275 -0.0616  0.0654
  654loPI   C1B10461   9.668   8.419   9.778 -0.0043  0.1260 -0.1155
  654loPI   C2B10462   9.610   8.387   9.347  0.2736 -0.0843  0.0790
  654loPI   C3B10463   9.581   8.496   8.855 -0.0739  0.0675  0.3125
  654loPI   C4B10464   9.612   8.523   8.440 -0.2612 -0.2298 -0.0596
  655loPI    C110465  10.110  10.868  10.740 -0.1063 -0.0491 -0.1079
  655loPI    C210466  10.490  10.797  10.842 -0.1288 -0.2004 -0.1262
  655loPI    C310467  10.240  10.963  11.106  0.0636  0.3238 -0.2597
  655loPI   PO410468  10.134  10.958  10.450 -0.0455  0.0596  0.1267
  655loPI   GL110469  10.033  10.792   9.981  0.3121 -0.0102 -0.0650
  655loPI   GL210470   9.904  11.007   9.874  0.0563 -0.1842 -0.0585
  655loPI   C1A10471  10.155  10.701   9.517 -0.1284 -0.0811  0.0774
  655loPI   C2A10472  10.177  10.630   9.113 -0.1509 -0.0647 -0.2270
  655loPI   C3A10473  10.063  10.781   8.779 -0.0960  0.0074  0.1242
  655loPI   C4A10474  10.117  10.678   8.359 -0.4960  0.2140  0.3057
  655loPI   C5A10475  10.431  10.731   7.998 -0.0124  0.0618  0.0273
  655loPI   C6A10476  10.600  10.706   7.572 -0.1196 -0.1057  0.3713
  655loPI   C1B10477   9.986  11.141   9.517 -0.3182 -0.1733 -0.1730
  655loPI   C2B10478   9.930  11.180   9.039  0.0520 -0.1448 -0.1893
  655loPI   C3B10479   9.880  11.259   8.604 -0.1404  0.0879  0.3027
  655loPI   C4B10480   9.919  11.195   8.190  0.1117  0.3152 -0.0542
  656loPI    C110481  12.002  13.471  10.604 -0.1201 -0.1269 -0.0502
  656loPI    C210482  11.824  13.184  10.391  0.0182 -0.2162 -0.0466
  656loPI    C310483  11.674  13.291  10.746  0.0189 -0.3491 -0.0055
  656loPI   PO410484  12.113  13.619  10.415 -0.0189 -0.0920 -0.0695
  656loPI   GL110485  12.077  13.635  10.091  0.2445  0.0395 -0.2937
  656loPI   GL210486  12.025  13.993   9.963  0.0040  0.0088 -0.0970
  656loPI   C1A10487  12.169  13.548   9.648 -0.1609  0.4770 -0.2424
  656loPI   C2A10488  12.211  13.581   9.233 -0.2414  0.0453 -0.0367
  656loPI   C3A10489  12.142  13.549   8.857  0.2316  0.4892  0.0869
  656loPI   C4A10490  12.030  13.529   8.437  0.4501 -0.2125  0.0454
  656loPI   C5A10491  11.857  13.513   8.017 -0.3124 -0.1256 -0.1877
  656loPI   C6A10492  11.717  13.849   7.729 -0.0146 -0.0769  0.1486
  656loPI   C1B10493  12.106  14.026   9.530  0.0515  0.0825 -0.0511
  656loPI   C2B10494  12.008  14.000   9.202 -0.0307  0.1242  0.0574
  656loPI   C3B10495  11.987  13.985   8.664  0.1205  0.1579  0.3020
  656loPI   C4B10496  11.806  13.943   8.239  0.0086 -0.0643 -0.2647
  657loPI    C110497  14.253  17.986  10.565 -0.0339 -0.0538  0.0018
  657loPI    C210498  13.862  17.983  10.650  0.0665  0.0610  0.5001
  657loPI    C310499  14.095  18.278  10.788  0.2636  0.2227 -0.1411
  657loPI   PO410500  14.210  17.783  10.267  0.0204 -0.3060  0.3722
  657loPI   GL110501  14.177  17.965   9.858  0.2333  0.1183 -0.1762
  657loPI   GL210502  13.862  17.880   9.666  0.1162  0.1886  0.0236
  657loPI   C1A10503  14.322  18.228   9.532 -0.1578 -0.0103 -0.2634
  657loPI   C2A10504  14.368  18.234   9.023  0.0553  0.1247 -0.1993
  657loPI   C3A10505  14.481  18.336   8.604 -0.4846 -0.2688 -0.2176
  657loPI   C4A10506  14.419  18.200   8.164  0.2102  0.1575  0.0927
  657loPI   C5A10507  14.329  17.943   7.761  0.4115 -0.3005 -0.0777
  657loPI   C6A10508  14.355  17.508   7.604 -0.2540 -0.2641 -0.1527
  657loPI   C1B10509  13.938  18.027   9.273  0.1966 -0.0984  0.3436
  657loPI   C2B10510  13.889  18.220   8.917 -0.1873  0.0693 -0.0222
  657loPI   C3B10511  13.993  18.307   8.457 -0.1561  0.1080 -0.0276
  657loPI   C4B10512  13.818  18.150   8.081 -0.1017  0.3236  0.1094
  658loPI    C110513  15.613  11.692  10.785  0.1581 -0.0016 -0.0836
  658loPI    C210514  15.382  11.585  11.093 -0.0558 -0.0206 -0.2480
  658loPI    C310515  15.565  11.940  11.094  0.1685 -0.1328  0.0245
  658loPI   PO410516  15.462  11.697  10.595  0.0643  0.0830  0.0522
  658loPI   GL110517  15.337  11.604  10.169  0.2333 -0.1950 -0.1700
  658loPI   GL210518  15.640  11.739  10.112 -0.0130 -0.0200  0.1026
  658loPI   C1A10519  15.144  11.517   9.788  0.1168  0.4370 -0.1676
  658loPI   C2A10520  15.142  11.445   9.423  0.0299  0.0454 -0.1499
  658loPI   C3A10521  15.172  11.205   9.159 -0.0727  0.1169  0.0461
  658loPI   C4A10522  15.121  10.956   8.727  0.0175 -0.0979  0.0688
  658loPI   C5A10523  15.152  10.982   8.310 -0.2109  0.0351 -0.0500
  658loPI   C6A10524  15.196  10.800   7.893  0.1855 -0.0660  0.0620
  658loPI   C1B10525  15.614  11.476   9.726  0.2963  0.2088  0.0082
  658loPI   C2B10526  15.634  11.397   9.272 -0.0704 -0.1895  0.0407
  658loPI   C3B10527  15.666  11.201   8.955  0.0862 -0.0245 -0.1228
  658loPI   C4B10528  15.580  10.790   8.758  0.0205 -0.5176  0.1759
  659loPI    C110529   8.620   0.459  10.058 -0.0065 -0.2156  0.0757
  659loPI    C210530   8.346   0.298   9.815 -0.0638  0.3771 -0.2703
  659loPI    C310531   8.234   0.555  10.101  0.0641  0.0960  0.0380
  659loPI   PO410532   8.802   0.512   9.914 -0.0510 -0.2056  0.1493
  659loPI   GL110533   8.854   0.416   9.525 -0.2498  0.0257 -0.1204
  659loPI   GL210534   8.834   0.171   9.578 -0.1368 -0.0297  0.0598
  659loPI   C1A10535   9.092   0.095   9.200 -0.2451  0.2026  0.0616
  659loPI   C2A10536   9.136   0.097   8.745 -0.0968  0.0538  0.0173
  659loPI   C3A10537   9.273   0.223   8.429  0.2163 -0.0237 -0.1805
  659loPI   C4A10538   9.064   0.710   8.231 -0.1363  0.2178  0.0955
  659loPI   C5A10539   8.629   0.911   8.381 -0.0864  0.2886  0.1019
  659loPI   C6A10540   8.435   1.030   8.772 -0.0159 -0.0672 -0.1169
  659loPI   C1B10541   8.660   0.236   9.117 -0.1590  0.0165 -0.1884
  659loPI   C2B10542   8.496   0.023   8.730 -0.1604 -0.0209 -0.0228
  659loPI   C3B10543   8.255  -0.231   8.370  0.1529  0.0243 -0.3464
  659loPI   C4B10544   8.154  -0.408   7.945  0.2481 -0.0610 -0.0640
  660loPI    C110545  14.363  15.142  10.575  0.0766 -0.0360 -0.2061
  660loPI    C210546  14.364  15.542  10.583 -0.1553 -0.0380  0.1640
  660loPI    C310547  14.676  15.338  10.728 -0.0584  0.0061  0.0202
  660loPI   PO410548  14.318  15.056  10.374  0.0209 -0.2983  0.3472
  660loPI   GL110549  14.225  14.875   9.847  0.0453  0.1363 -0.0676
  660loPI   GL210550  14.552  15.028   9.897 -0.0936  0.2489  0.0058
  660loPI   C1A10551  14.313  14.666   9.566  0.1558  0.0440  0.1042
  660loPI   C2A10552  14.469  14.404   9.239 -0.1134  0.0018 -0.1897
  660loPI   C3A10553  14.410  14.378   8.822  0.1163  0.3879  0.0628
  660loPI   C4A10554  14.324  14.299   8.416 -0.0079 -0.1883  0.0504
  660loPI   C5A10555  14.133  14.023   8.022 -0.0589  0.0063 -0.1877
  660loPI   C6A10556  13.814  13.958   7.744 -0.2615 -0.2869 -0.1134
  660loPI   C1B10557  14.423  15.155   9.495 -0.1767  0.3251 -0.1091
  660loPI   C2B10558  14.152  15.222   9.200 -0.2256  0.1689 -0.2828
  660loPI   C3B10559  13.867  15.156   8.915  0.0292  0.1092 -0.0013
  660loPI   C4B10560  13.784  14.934   8.497 -0.0763 -0.2227 -0.0390
  661loPI    C110561   4.587   7.246  10.303  0.0824 -0.0346 -0.3259
  661loPI    C210562   4.813   7.383  10.603 -0.1898  0.0034 -0.1353
  661loPI    C310563   4.652   7.639  10.341 -0.1700 -0.0070 -0.1577
  661loPI   PO410564   4.626   7.054  10.272  0.0642  0.2845 -0.3379
  661loPI   GL110565   4.394   6.854  10.010  0.2228 -0.3578 -0.0913
  661loPI   GL210566   4.300   7.089   9.847 -0.1583  0.2115  0.3336
  661loPI   C1A10567   4.667   6.700   9.577  0.2591  0.1929  0.1496
  661loPI   C2A10568   4.748   6.487   9.245 -0.5770  0.3190  0.1214
  661loPI   C3A10569   4.844   6.280   8.910 -0.2241  0.0988  0.2153
  661loPI   C4A10570   4.752   6.193   8.655  0.0082  0.1013  0.1924
  661loPI   C5A10571   4.751   6.252   8.192 -0.1371 -0.0415  0.1861
  661loPI   C6A10572   4.774   6.247   7.717 -0.1918 -0.0507  0.0757
  661loPI   C1B10573   4.242   7.023   9.476  0.3359 -0.2105 -0.2144
  661loPI   C2B10574   4.035   7.029   9.162  0.0179  0.1812 -0.2783
  661loPI   C3B10575   3.909   6.949   8.712  0.0733 -0.2708  0.3109
  661loPI   C4B10576   3.942   7.186   8.391 -0.3188  0.0844 -0.2026
  662loPI    C110577  10.486   7.665  11.331  0.0931  0.1644  0.0548
  662loPI    C210578  10.740   7.755  11.627 -0.0138  0.1237  0.1593
  662loPI    C310579  10.418   7.529  11.701 -0.0136  0.0705  0.0010
  662loPI   PO410580  10.608   7.608  11.157  0.0015 -0.1806 -0.1849
  662loPI   GL110581  10.807   7.530  10.684  0.1307 -0.3742 -0.0672
  662loPI   GL210582  10.964   7.525  10.485 -0.0690  0.4647  0.0688
  662loPI   C1A10583  10.490   7.544  10.375  0.0723 -0.0283  0.1518
  662loPI   C2A10584  10.517   7.465   9.972  0.0938  0.1029  0.2212
  662loPI   C3A10585  10.577   7.470   9.485  0.0075  0.1742  0.0986
  662loPI   C4A10586  10.556   7.457   9.108  0.1535  0.0120 -0.0390
  662loPI   C5A10587  10.547   7.480   8.661  0.1294  0.1455 -0.0924
  662loPI   C6A10588  10.750   7.791   8.363  0.0045  0.0084  0.0053
  662loPI   C1B10589  10.859   7.835  10.164  0.2698  0.0628 -0.0740
  662loPI   C2B10590  10.833   7.872   9.716  0.2673 -0.0569  0.0320
  662loPI   C3B10591  10.818   7.940   9.337 -0.0982  0.0750 -0.0413
  662loPI   C4B10592  10.797   7.859   8.871 -0.0691  0.2042  0.3720
  663loPI    C110593  14.722   5.987  11.040  0.1272  0.0883  0.0022
  663loPI    C210594  14.478   5.804  11.298 -0.0978  0.0656 -0.2224
  663loPI    C310595  14.841   5.925  11.417 -0.2603  0.2045  0.1475
  663loPI   PO410596  14.571   5.906  10.800 -0.0591  0.0463  0.0608
  663loPI   GL110597  14.469   5.828  10.324 -0.2810  0.2786 -0.0785
  663loPI   GL210598  14.717   5.625  10.326 -0.2390 -0.1507  0.1304
  663loPI   C1A10599  14.136   6.046  10.197  0.0114  0.0048 -0.1512
  663loPI   C2A10600  14.231   5.966   9.843  0.3312  0.1854 -0.1149
  663loPI   C3A10601  14.246   5.883   9.439 -0.1593  0.1024  0.1012
  663loPI   C4A10602  14.340   5.803   8.975 -0.0742  0.1277 -0.1854
  663loPI   C5A10603  14.365   5.854   8.419  0.1088 -0.1326 -0.2660
  663loPI   C6A10604  14.099   6.100   8.266 -0.0032  0.0332  0.0651
  663loPI   C1B10605  14.951   5.502   9.942  0.0529  0.0787 -0.0820
  663loPI   C2B10606  15.045   5.353   9.497  0.4416  0.1356 -0.1305
  663loPI   C3B10607  15.032   5.232   9.051  0.0663  0.0481  0.0530
  663loPI   C4B10608  15.043   5.264   8.626 -0.0036 -0.1376  0.0468
  664loPI    C110609   2.978  16.932  10.526 -0.0295 -0.1310 -0.0426
  664loPI    C210610   3.332  16.807  10.663  0.0887  0.1953 -0.0439
  664loPI    C310611   3.094  17.028  10.897 -0.2336 -0.2414  0.0512
  664loPI   PO410612   3.048  16.820  10.222 -0.2792  0.1541  0.1055
  664loPI   GL110613   3.151  16.815   9.792 -0.4414 -0.2373 -0.0162
  664loPI   GL210614   3.420  16.600   9.640 -0.2212 -0.1996  0.0495
  664loPI   C1A10615   2.977  16.812   9.417  0.1787 -0.0224  0.0128
  664loPI   C2A10616   2.994  16.749   8.963 -0.0906  0.0381  0.4412
  664loPI   C3A10617   2.917  16.576   8.557 -0.0678  0.0418  0.2992
  664loPI   C4A10618   2.930  16.461   8.160  0.0294 -0.1758  0.0341
  664loPI   C5A10619   2.923  16.560   7.644 -0.0892  0.3858 -0.1727
  664loPI   C6A10620   2.704  16.243   7.367  0.3091  0.2869  0.0523
  664loPI   C1B10621   3.594  16.631   9.248 -0.2184 -0.2801  0.2145
  664loPI   C2B10622   3.641  16.677   8.853  0.1242 -0.4256 -0.2466
  664loPI   C3B10623   3.387  16.667   8.555 -0.0639  0.1276 -0.3973
  664loPI   C4B10624   3.339  16.955   8.189 -0.1924  0.0411  0.0779
  665loPI    C110625   2.610   7.067  10.274  0.0042  0.1916 -0.2064
  665loPI    C210626   3.006   7.021  10.310 -0.0264  0.0984  0.0326
  665loPI    C310627   2.790   6.750  10.111  0.0235  0.1262 -0.0600
  665loPI   PO410628   2.585   7.380  10.192 -0.5196 -0.0086  0.0156
  665loPI   GL110629   2.722   7.410   9.792  0.0344 -0.2679  0.1050
  665loPI   GL210630   2.914   7.671   9.613 -0.2529  0.0202 -0.1071
  665loPI   C1A10631   2.545   7.439   9.435  0.1161 -0.0901  0.2527
  665loPI   C2A10632   2.644   7.434   9.046  0.0497  0.3120  0.0819
  665loPI   C3A10633   2.578   7.659   8.619 -0.0969  0.1367 -0.1809
  665loPI   C4A10634   2.732   7.714   8.198  0.0258 -0.1032  0.1706
  665loPI   C5A10635   3.000   7.877   7.835 -0.1082 -0.4054 -0.5524
  665loPI   C6A10636   3.025   7.994   7.381  0.4040 -0.2776 -0.2295
  665loPI   C1B10637   2.859   7.813   9.291  0.2645  0.4987  0.3378
  665loPI   C2B10638   3.124   7.701   8.934 -0.0311  0.2062 -0.0995
  665loPI   C3B10639   3.128   7.589   8.593 -0.0050 -0.1420  0.1866
  665loPI   C4B10640   3.124   7.459   8.176  0.1608 -0.2351  0.2545
  666loPI    C110641  13.489  16.631  10.777  0.0793 -0.2294  0.2031
  666loPI    C210642  13.569  16.899  11.062  0.0425  0.0476 -0.0424
  666loPI    C310643  13.664  16.514  11.117  0.1305  0.1146  0.2981
  666loPI   PO410644  13.526  16.789  10.584 -0.2161 -0.1701  0.1813
  666loPI   GL110645  13.406  16.833  10.148  0.0264  0.1536  0.1904
  666loPI   GL210646  13.619  16.669  10.101  0.1136  0.0695 -0.1325
  666loPI   C1A10647  13.339  16.779   9.678 -0.0825  0.2280  0.4189
  666loPI   C2A10648  13.577  16.576   9.241 -0.0561 -0.0663  0.1970
  666loPI   C3A10649  13.468  16.545   8.818  0.1395 -0.0210  0.1910
  666loPI   C4A10650  13.523  16.636   8.423 -0.0982  0.0276 -0.1341
  666loPI   C5A10651  13.238  16.653   8.083 -0.1286 -0.2217 -0.0911
  666loPI   C6A10652  12.820  16.625   7.876 -0.3960 -0.3230  0.0163
  666loPI   C1B10653  13.677  16.402   9.736  0.1799  0.0743  0.2360
  666loPI   C2B10654  13.704  16.151   9.410 -0.0836  0.0272 -0.0294
  666loPI   C3B10655  13.703  16.036   9.073  0.0955 -0.2440  0.0491
  666loPI   C4B10656  13.657  16.104   8.663  0.1379  0.0413 -0.2773
  667loPI    C110657  14.808   0.507  10.436 -0.1639  0.0001 -0.1795
  667loPI    C210658  15.020   0.767  10.218  0.0377 -0.0958 -0.1010
  667loPI    C310659  15.017   0.796  10.617 -0.0925 -0.0996 -0.1011
  667loPI   PO410660  14.761   0.337  10.293 -0.1595 -0.4160  0.0307
  667loPI   GL110661  14.836   0.442   9.860 -0.0622 -0.0197 -0.1443
  667loPI   GL210662  14.998   0.215   9.688 -0.0608  0.0231  0.1046
  667loPI   C1A10663  14.559   0.539   9.536  0.1977  0.0961 -0.0159
  667loPI   C2A10664  14.632   0.733   9.113  0.1594 -0.0196 -0.1568
  667loPI   C3A10665  14.518   0.793   8.694  0.0867  0.1841 -0.0288
  667loPI   C4A10666  14.565   0.717   8.301  0.3734 -0.0584  0.0802
  667loPI   C5A10667  14.693   0.558   7.869 -0.1001  0.2405  0.1109
  667loPI   C6A10668  14.520   0.764   7.502 -0.3196 -0.0617 -0.0594
  667loPI   C1B10669  15.235  -0.116   9.486  0.0675  0.0148  0.2175
  667loPI   C2B10670  15.265  -0.372   9.263 -0.0017  0.1770 -0.0974
  667loPI   C3B10671  15.100  -0.565   8.809  0.1291 -0.0455 -0.0939
  667loPI   C4B10672  15.095  -0.737   8.299  0.0028 -0.1982  0.2329
  668loPI    C110673   0.501  11.629  10.621 -0.1020 -0.0031  0.0446
  668loPI    C210674   0.315  11.354  10.397 -0.3023  0.1519  0.0174
  668loPI    C310675   0.322  11.316  10.795 -0.0589 -0.0551 -0.0041
  668loPI   PO410676   0.453  11.867  10.399 -0.3902 -0.1147 -0.1586
  668loPI   GL110677   0.569  12.006  10.017 -0.0649 -0.0556  0.2703
  668loPI   GL210678   0.393  11.667   9.957  0.0637  0.0072 -0.0215
  668loPI   C1A10679   0.949  12.167   9.781 -0.0159  0.2292  0.0225
  668loPI   C2A10680   0.951  12.169   9.344  0.1983 -0.1408 -0.0164
  668loPI   C3A10681   0.961  12.211   8.877 -0.0456  0.1165 -0.0233
  668loPI   C4A10682   0.813  12.198   8.377 -0.1076 -0.1645  0.1754
  668loPI   C5A10683   0.779  12.088   7.914 -0.0867  0.1266  0.1210
  668loPI   C6A10684   1.105  11.930   7.661  0.0226 -0.2791  0.1507
  668loPI   C1B10685   0.546  11.838   9.494 -0.1648  0.3482  0.1817
  668loPI   C2B10686   0.575  11.872   9.103  0.0767 -0.0936  0.0467
  668loPI   C3B10687   0.529  11.844   8.636 -0.0133 -0.3528  0.0417
  668loPI   C4B10688   0.327  12.086   8.243  0.0332 -0.1017 -0.1212
  669loPI    C110689   5.684   0.284   9.816  0.1250 -0.0416  0.0665
  669loPI    C210690   5.800   0.310  10.197 -0.0396  0.1218  0.1071
  669loPI    C310691   5.421   0.216  10.110 -0.0047  0.0941 -0.0161
  669loPI   PO410692   5.813   0.539   9.687 -0.0623  0.1957  0.0846
  669loPI   GL110693   5.910   0.540   9.266  0.1455  0.0256  0.1554
  669loPI   GL210694   5.867   0.259   9.135 -0.0623 -0.1291  0.0124
  669loPI   C1A10695   6.180   0.647   8.855 -0.1251 -0.0130 -0.1706
  669loPI   C2A10696   6.360   0.465   8.515 -0.2060 -0.0082  0.1662
  669loPI   C3A10697   6.451   0.445   8.125  0.1581  0.0844 -0.2354
  669loPI   C4A10698   6.737   0.523   7.748  0.2182 -0.0668  0.0297
  669loPI   C5A10699   7.075   0.824   7.568  0.0163  0.0857 -0.1119
  669loPI   C6A10700   7.077   0.955   7.162  0.3464  0.1223  0.0495
  669loPI   C1B10701   5.809   0.168   8.705  0.1612  0.1825 -0.2906
  669loPI   C2B10702   5.896  -0.056   8.391 -0.0198 -0.0472 -0.0040
  669loPI   C3B10703   6.061  -0.319   8.070 -0.2740 -0.0109  0.5951
  669loPI   C4B10704   6.313  -0.592   7.769 -0.0255  0.0283  0.0518
  670loPI    C110705   4.714  16.490  10.201 -0.1370 -0.2789  0.0061
  670loPI    C210706   4.463  16.721  10.410  0.1372  0.1028 -0.0739
  670loPI    C310707   4.848  16.699  10.514  0.2205  0.0849 -0.3771
  670loPI   PO410708   4.627  16.546   9.953 -0.0377  0.0360  0.3743
  670loPI   GL110709   4.412  16.328   9.682  0.2858  0.1454 -0.0075
  670loPI   GL210710   4.542  16.391   9.394  0.0537 -0.3551  0.0473
  670loPI   C1A10711   4.355  15.940   9.456 -0.1604 -0.0470 -0.3165
  670loPI   C2A10712   4.058  15.810   9.142  0.0063 -0.0026 -0.1258
  670loPI   C3A10713   3.994  15.770   8.629  0.1060 -0.2023 -0.0894
  670loPI   C4A10714   3.895  15.988   8.162  0.0107 -0.0355 -0.1357
  670loPI   C5A10715   4.191  16.242   7.836 -0.1180  0.1358  0.0495
  670loPI   C6A10716   4.135  16.489   7.441  0.1649  0.0483  0.1812
  670loPI   C1B10717   4.656  16.571   8.925  0.4308 -0.0438 -0.0281
  670loPI   C2B10718   4.592  16.685   8.521  0.1233 -0.1684 -0.0183
  670loPI   C3B10719   4.674  16.503   8.076 -0.5626 -0.0012  0.0465
  670loPI   C4B10720   4.777  16.255   7.775 -0.0594  0.1000 -0.4067
  671loPI    C110721   0.366  16.301  10.741 -0.0258  0.2250  0.0300
  671loPI    C210722   0.072  16.559  10.826 -0.3469 -0.0779 -0.1372
  671loPI    C310723   0.025  16.169  10.903  0.0088 -0.1325 -0.1793
  671loPI   PO410724   0.449  16.323  10.461 -0.3678  0.1120  0.1061
  671loPI   GL110725   0.583  16.082  10.037  0.1094  0.1688 -0.3380
  671loPI   GL210726   0.309  16.245   9.984 -0.2064  0.0076 -0.2468
  671loPI   C1A10727   0.844  16.205   9.781  0.1060  0.0709  0.2902
  671loPI   C2A10728   0.834  16.020   9.323 -0.3568  0.3478  0.2263
  671loPI   C3A10729   0.813  16.126   8.963  0.0485  0.0750 -0.0287
  671loPI   C4A10730   0.754  16.093   8.541  0.1005 -0.3236 -0.0245
  671loPI   C5A10731   0.696  16.167   8.103 -0.2649  0.4311 -0.0770
  671loPI   C6A10732   0.931  16.018   7.793 -0.0759  0.1785 -0.1843
  671loPI   C1B10733   0.435  16.347   9.604 -0.2864 -0.1569  0.1448
  671loPI   C2B10734   0.340  16.267   9.102  0.3646  0.0412  0.1612
  671loPI   C3B10735   0.305  16.254   8.616  0.0025  0.0034  0.1696
  671loPI   C4B10736   0.264  16.315   8.205 -0.3682 -0.0480  0.0482
  672loPI    C110737   2.845   3.574  10.536  0.0455  0.2972 -0.1574
  672loPI    C210738   2.519   3.616  10.763 -0.0080 -0.1280 -0.1472
  672loPI    C310739   2.882   3.664  10.924 -0.0517 -0.2066 -0.0240
  672loPI   PO410740   2.820   3.378  10.351  0.1391  0.2497  0.0336
  672loPI   GL110741   2.848   3.380   9.986  0.0030 -0.2935  0.1341
  672loPI   GL210742   3.062   3.662   9.746  0.2451 -0.0567  0.0027
  672loPI   C1A10743   2.611   3.496   9.687 -0.1265  0.0275  0.0208
  672loPI   C2A10744   2.553   3.489   9.264 -0.0237  0.0170  0.0357
  672loPI   C3A10745   2.571   3.440   8.749 -0.0617  0.0041  0.0492
  672loPI   C4A10746   2.575   3.393   8.282 -0.1155 -0.0989  0.0173
  672loPI   C5A10747   2.632   3.378   7.808 -0.2756 -0.3642 -0.0446
  672loPI   C6A10748   2.621   3.425   7.400 -0.1862  0.2555 -0.1668
  672loPI   C1B10749   3.062   3.583   9.381 -0.1800  0.1646  0.0826
  672loPI   C2B10750   3.099   3.610   8.932 -0.0595  0.0980  0.1447
  672loPI   C3B10751   3.061   3.576   8.522 -0.0248  0.0938 -0.0782
  672loPI   C4B10752   3.069   3.527   8.084 -0.3361 -0.1796 -0.1527
  673loPI    C110753   1.760  12.282  10.563 -0.2260 -0.0056  0.0715
  673loPI    C210754   2.049  12.552  10.624 -0.2756  0.1354 -0.2908
  673loPI    C310755   1.727  12.545  10.862 -0.0609  0.0933  0.0040
  673loPI   PO410756   1.752  12.270  10.276 -0.2007  0.1066  0.1186
  673loPI   GL110757   1.972  12.172   9.847 -0.0603  0.1525 -0.0666
  673loPI   GL210758   1.959  11.814   9.703 -0.1063 -0.1862  0.1363
  673loPI   C1A10759   1.798  12.356   9.407  0.0307  0.0580 -0.1039
  673loPI   C2A10760   1.810  12.316   8.985  0.0645  0.0832  0.0778
  673loPI   C3A10761   1.894  12.196   8.495  0.0013 -0.0977 -0.1726
  673loPI   C4A10762   1.889  12.276   8.106  0.2053 -0.4934  0.0475
  673loPI   C5A10763   2.047  12.369   7.780  0.0717  0.3432 -0.2098
  673loPI   C6A10764   2.473  12.288   7.626 -0.0374 -0.1835 -0.1358
  673loPI   C1B10765   1.866  11.904   9.296 -0.1975  0.1505  0.4489
  673loPI   C2B10766   1.973  11.801   8.829 -0.3393  0.0600  0.0406
  673loPI   C3B10767   2.091  11.750   8.434 -0.0181 -0.1238  0.0701
  673loPI   C4B10768   2.432  11.666   8.310  0.1533 -0.0061 -0.0032
  674loPI    C110769   6.716  15.207  10.630  0.0112  0.0371  0.2471
  674loPI    C210770   6.812  15.453  10.330  0.0086  0.1005  0.2979
  674loPI    C310771   7.100  15.269  10.538  0.0054 -0.1225  0.1102
  674loPI   PO410772   6.449  15.146  10.494  0.0967  0.1805  0.1531
  674loPI   GL110773   6.135  14.992  10.202  0.0689  0.0968  0.2550
  674loPI   GL210774   5.968  14.623  10.037 -0.1070 -0.1277 -0.3880
  674loPI   C1A10775   6.408  14.812   9.834  0.0377  0.1995 -0.0260
  674loPI   C2A10776   6.442  14.902   9.392 -0.2342 -0.0532 -0.4483
  674loPI   C3A10777   6.413  14.830   9.005 -0.2921  0.1343 -0.1260
  674loPI   C4A10778   6.450  14.818   8.543  0.3276  0.1699  0.0625
  674loPI   C5A10779   6.414  14.867   8.148 -0.0241  0.2354  0.1985
  674loPI   C6A10780   6.222  14.959   7.750 -0.3904  0.0549  0.2318
  674loPI   C1B10781   6.005  14.530   9.662 -0.0320 -0.0649  0.2556
  674loPI   C2B10782   6.083  14.535   9.231 -0.1474  0.0108  0.2905
  674loPI   C3B10783   6.030  14.648   8.780 -0.3308 -0.2257 -0.3262
  674loPI   C4B10784   6.139  14.503   8.315  0.1084  0.1465 -0.1704
  675loPI    C110785   2.110   5.565  10.465  0.1030 -0.1007  0.1034
  675loPI    C210786   1.852   5.508  10.765  0.2428  0.0717  0.2587
  675loPI    C310787   2.029   5.864  10.718  0.0053  0.1366 -0.2014
  675loPI   PO410788   2.010   5.544  10.199  0.0623  0.0785 -0.0468
  675loPI   GL110789   2.097   5.739   9.890 -0.2076 -0.1980 -0.2686
  675loPI   GL210790   1.923   5.974   9.752 -0.1936 -0.0559  0.0246
  675loPI   C1A10791   2.053   5.555   9.538  0.0817  0.2122 -0.0201
  675loPI   C2A10792   2.024   5.586   9.114 -0.0512 -0.0169 -0.2345
  675loPI   C3A10793   2.042   5.913   8.727 -0.2643  0.0905  0.0071
  675loPI   C4A10794   2.139   6.136   8.295  0.2890  0.2199 -0.0127
  675loPI   C5A10795   1.954   6.207   7.908 -0.0120  0.2004 -0.3087
  675loPI   C6A10796   1.526   6.086   7.722  0.0085  0.0114 -0.1124
  675loPI   C1B10797   2.041   6.067   9.334  0.0196 -0.2766 -0.4399
  675loPI   C2B10798   1.884   6.296   8.979  0.1789 -0.1613 -0.0230
  675loPI   C3B10799   2.169   6.498   8.713  0.0736  0.0856 -0.0085
  675loPI   C4B10800   2.419   6.681   8.515 -0.0396  0.0283 -0.2478
  676loPI    C110801  17.243  12.846  10.595 -0.1003 -0.2978  0.0000
  676loPI    C210802  17.409  13.011  10.271  0.1118 -0.2355  0.1386
  676loPI    C310803  17.397  12.613  10.309  0.0963 -0.2428  0.0598
  676loPI   PO410804  16.963  12.931  10.563  0.0334 -0.0364  0.2853
  676loPI   GL110805  16.928  13.241  10.158  0.0089 -0.0260  0.1726
  676loPI   GL210806  16.729  13.309  10.169 -0.0605  0.0435 -0.0153
  676loPI   C1A10807  17.195  13.292   9.801 -0.2185 -0.2718  0.0355
  676loPI   C2A10808  17.288  13.207   9.412 -0.0334 -0.1753  0.3861
  676loPI   C3A10809  17.288  13.153   8.940 -0.0885  0.0634  0.1129
  676loPI   C4A10810  17.337  13.119   8.405  0.3238 -0.0897  0.1059
  676loPI   C5A10811  17.594  13.298   8.135  0.0355  0.0697 -0.0762
  676loPI   C6A10812  17.882  13.367   7.805 -0.2790 -0.1184  0.1979
  676loPI   C1B10813  16.656  13.370   9.680 -0.1696  0.1697 -0.2926
  676loPI   C2B10814  16.831  13.380   9.260 -0.0867 -0.0912  0.1467
  676loPI   C3B10815  16.800  13.371   8.867  0.3249  0.2008  0.1766
  676loPI   C4B10816  16.842  13.232   8.488 -0.2324 -0.2433 -0.0524
  677loPI    C110817  15.974   0.332   5.149  0.2301  0.1116  0.1724
  677loPI    C210818  16.034   0.416   4.763 -0.0548 -0.0787  0.0833
  677loPI    C310819  16.317   0.227   4.973  0.1319  0.0926 -0.0104
  677loPI   PO410820  15.758   0.529   5.301 -0.0476  0.4946  0.1429
  677loPI   GL110821  15.808   0.536   5.681 -0.2595  0.1941  0.4276
  677loPI   GL210822  15.920   0.210   5.678 -0.1152 -0.1632  0.0503
  677loPI   C1A10823  15.839   0.770   6.121 -0.1144  0.3170 -0.0418
  677loPI   C2A10824  15.851   0.780   6.580  0.0062 -0.1729  0.3117
  677loPI   C3A10825  15.926   0.813   6.922 -0.1679  0.1725 -0.4487
  677loPI   C4A10826  16.033   0.805   7.365  0.0270  0.1222  0.0608
  677loPI   C5A10827  16.041   0.723   7.724 -0.0352  0.1484  0.3453
  677loPI   C6A10828  16.238   0.773   8.054 -0.1240 -0.0166 -0.0929
  677loPI   C1B10829  15.909   0.188   6.213 -0.1463 -0.1863 -0.1479
  677loPI   C2B10830  15.932   0.313   6.654 -0.0546  0.0218  0.2962
  677loPI   C3B10831  16.066   0.358   7.145  0.1699  0.3278  0.2455
  677loPI   C4B10832  16.042   0.207   7.592 -0.0029 -0.0855 -0.2739
  678loPI    C110833   2.276   2.363   4.779 -0.0849  0.0168 -0.1057
  678loPI    C210834   1.999   2.140   4.598 -0.1724  0.1247 -0.1062
  678loPI    C310835   2.323   2.260   4.396 -0.0618 -0.1069 -0.0698
  678loPI   PO410836   2.127   2.591   4.888  0.0336 -0.0323  0.0241
  678loPI   GL110837   2.026   2.638   5.339 -0.0970  0.1389 -0.0661
  678loPI   GL210838   1.741   2.419   5.502 -0.0158 -0.1888 -0.0902
  678loPI   C1A10839   2.184   2.372   5.740 -0.1219 -0.1061  0.2135
  678loPI   C2A10840   2.225   2.593   6.162  0.0118  0.3156  0.1510
  678loPI   C3A10841   2.264   2.674   6.577  0.0761 -0.3057 -0.2343
  678loPI   C4A10842   2.188   2.827   6.960  0.1140  0.0718 -0.2667
  678loPI   C5A10843   1.898   2.687   7.307  0.0282 -0.2089 -0.1363
  678loPI   C6A10844   1.704   2.657   7.645  0.1992  0.0203 -0.2819
  678loPI   C1B10845   1.342   2.623   5.657 -0.2104 -0.3988  0.0322
  678loPI   C2B10846   1.297   2.879   5.968 -0.3636 -0.1792  0.1619
  678loPI   C3B10847   1.410   3.252   6.201 -0.2479  0.3265  0.0429
  678loPI   C4B10848   1.814   3.369   6.459 -0.3252 -0.1385  0.1023
  679loPI    C110849   0.726   1.674   4.745 -0.1115  0.0813 -0.1117
  679loPI    C210850   0.519   1.477   4.465 -0.2222 -0.0135  0.0352
  679loPI    C310851   0.418   1.852   4.561 -0.3283 -0.0599  0.1075
  679loPI   PO410852   0.750   1.600   4.961 -0.0558  0.2303  0.1816
  679loPI   GL110853   0.689   1.453   5.356 -0.0678  0.1171 -0.0251
  679loPI   GL210854   0.489   1.659   5.483 -0.0722  0.0691 -0.2129
  679loPI   C1A10855   0.971   1.663   5.632 -0.1819  0.1864  0.0095
  679loPI   C2A10856   1.081   1.807   6.078  0.0910  0.1428  0.0079
  679loPI   C3A10857   0.946   1.836   6.511  0.0678  0.2233  0.0062
  679loPI   C4A10858   1.091   1.837   6.905 -0.1261 -0.2425 -0.2184
  679loPI   C5A10859   1.087   1.777   7.228  0.1781 -0.0859  0.0214
  679loPI   C6A10860   1.072   1.822   7.709  0.1166 -0.0343 -0.0227
  679loPI   C1B10861   0.578   1.454   5.890  0.0992  0.2119 -0.0512
  679loPI   C2B10862   0.584   1.474   6.335 -0.4660 -0.3269 -0.1513
  679loPI   C3B10863   0.719   1.470   6.838  0.0657 -0.2856  0.5297
  679loPI   C4B10864   0.672   1.422   7.287 -0.0752  0.3701  0.0100
  680loPI    C110865   6.111  12.067   4.845 -0.0138 -0.0271 -0.1684
  680loPI    C210866   6.310  12.365   4.667  0.0857 -0.0077 -0.0252
  680loPI    C310867   6.354  11.990   4.537  0.2072 -0.0019 -0.0028
  680loPI   PO410868   6.162  12.018   5.101 -0.2181  0.1330  0.1229
  680loPI   GL110869   6.183  12.215   5.432 -0.2287  0.0835  0.0553
  680loPI   GL210870   5.887  12.152   5.614 -0.1871 -0.2615 -0.0469
  680loPI   C1A10871   6.343  12.002   5.792 -0.0516  0.0619  0.2384
  680loPI   C2A10872   6.452  12.063   6.206 -0.1033 -0.2889 -0.3440
  680loPI   C3A10873   6.439  12.161   6.683  0.2534 -0.1244  0.0313
  680loPI   C4A10874   6.460  12.354   7.171  0.2793 -0.0902 -0.0263
  680loPI   C5A10875   6.559  12.281   7.616  0.4088  0.4426 -0.0753
  680loPI   C6A10876   6.621  12.588   7.969  0.2878  0.0604 -0.1028
  680loPI   C1B10877   5.922  12.141   6.056 -0.2479 -0.1620 -0.1127
  680loPI   C2B10878   5.998  12.324   6.490  0.0264  0.1641 -0.0057
  680loPI   C3B10879   6.042  12.383   6.940 -0.0217 -0.0926 -0.2952
  680loPI   C4B10880   6.008  12.767   7.147  0.0333  0.1065 -0.0731
  681loPI    C110881  13.976   8.675   5.658 -0.1070 -0.3952  0.1556
  681loPI    C210882  13.705   8.497   5.424 -0.0776 -0.1881 -0.0388
  681loPI    C310883  13.854   8.854   5.322  0.1238 -0.2112  0.1676
  681loPI   PO410884  14.123   8.416   5.727 -0.0856 -0.0156  0.1166
  681loPI   GL110885  14.312   8.262   6.090  0.4029 -0.1347 -0.0729
  681loPI   GL210886  14.037   8.373   6.227 -0.1842  0.2870 -0.3120
  681loPI   C1A10887  14.716   8.463   6.237  0.0216  0.0230 -0.0461
  681loPI   C2A10888  14.938   8.422   6.450 -0.1830 -0.0727  0.0710
  681loPI   C3A10889  14.774   8.531   6.786 -0.2642  0.1098  0.1251
  681loPI   C4A10890  14.711   8.431   7.175 -0.0774 -0.0804  0.3467
  681loPI   C5A10891  14.702   8.337   7.616 -0.1396  0.1963 -0.3356
  681loPI   C6A10892  15.039   8.480   7.839  0.1249  0.3059 -0.2297
  681loPI   C1B10893  13.963   8.314   6.625  0.0063  0.0148 -0.0102
  681loPI   C2B10894  13.873   8.411   6.924 -0.0305  0.1219  0.2388
  681loPI   C3B10895  13.658   8.566   7.326  0.0788 -0.0021  0.2671
  681loPI   C4B10896  13.412   8.635   7.710  0.1092 -0.0275  0.1798
  682loPI    C110897   0.841  13.856   5.006 -0.2139  0.1107 -0.0944
  682loPI    C210898   0.611  13.900   4.682 -0.2187 -0.1092 -0.1223
  682loPI    C310899   0.651  13.540   4.851  0.1215 -0.0782 -0.1301
  682loPI   PO410900   0.895  14.015   5.232 -0.0359 -0.0351  0.2063
  682loPI   GL110901   1.157  14.114   5.432  0.1361  0.0130  0.1282
  682loPI   GL210902   1.338  13.861   5.615  0.3180 -0.0425  0.2507
  682loPI   C1A10903   1.186  14.312   5.744 -0.3419  0.0466 -0.0065
  682loPI   C2A10904   1.351  14.334   6.175 -0.3754  0.0338 -0.1282
  682loPI   C3A10905   1.461  14.463   6.542 -0.0499  0.0066 -0.0291
  682loPI   C4A10906   1.121  14.645   7.010 -0.0032 -0.1058  0.2648
  682loPI   C5A10907   0.974  14.456   7.408  0.2008  0.1037 -0.0059
  682loPI   C6A10908   0.802  14.288   7.736  0.3291  0.0312  0.0611
  682loPI   C1B10909   1.183  13.685   5.995  0.1815 -0.2875 -0.1821
  682loPI   C2B10910   1.044  13.536   6.368  0.0292  0.0227  0.0980
  682loPI   C3B10911   1.156  13.437   6.722  0.0811 -0.4136 -0.1351
  682loPI   C4B10912   1.580  13.450   6.815 -0.2169  0.0090  0.0952
  683loPI    C110913   9.499   9.320   5.188 -0.0787 -0.0485  0.1284
  683loPI    C210914   9.217   9.269   4.909  0.0253  0.2211 -0.0303
  683loPI    C310915   9.604   9.246   4.809  0.0624  0.1607  0.1245
  683loPI   PO410916   9.424   9.504   5.303 -0.1765 -0.3875 -0.1766
  683loPI   GL110917   9.470   9.672   5.659  0.0771 -0.1804  0.0649
  683loPI   GL210918   9.282   9.332   5.808  0.2295  0.0951 -0.1213
  683loPI   C1A10919   9.586   9.593   6.173  0.1152 -0.1542  0.3487
  683loPI   C2A10920   9.454   9.472   6.624  0.0113  0.1843  0.0616
  683loPI   C3A10921   9.509   9.489   7.045  0.1742  0.1715  0.0409
  683loPI   C4A10922   9.848   9.606   7.256 -0.2763 -0.2501 -0.1918
  683loPI   C5A10923  10.016   9.853   7.488  0.1996  0.3266 -0.1778
  683loPI   C6A10924  10.135   9.911   7.950 -0.2065 -0.2644  0.1301
  683loPI   C1B10925   9.106   9.392   6.262 -0.1698 -0.2227  0.0393
  683loPI   C2B10926   8.990   9.701   6.581 -0.2332  0.1071  0.1593
  683loPI   C3B10927   8.884   9.860   6.937 -0.0689 -0.0932  0.2981
  683loPI   C4B10928   8.703   9.783   7.213 -0.0309 -0.2661  0.2081
  684loPI    C110929   0.011   8.533   5.301  0.0875 -0.0810  0.1032
  684loPI    C210930   0.257   8.604   5.609  0.0783  0.2504  0.0373
  684loPI    C310931   0.262   8.845   5.289 -0.2045  0.1533 -0.0432
  684loPI   PO410932  -0.218   8.509   5.420 -0.1152 -0.0996 -0.0449
  684loPI   GL110933  -0.346   8.550   5.821  0.0462  0.2578  0.0505
  684loPI   GL210934  -0.633   8.425   5.769 -0.1315 -0.1810  0.0425
  684loPI   C1A10935  -0.197   8.830   6.136  0.1639  0.3107 -0.3213
  684loPI   C2A10936  -0.180   8.707   6.578  0.2342  0.1950  0.1298
  684loPI   C3A10937  -0.342   8.802   6.979  0.0641 -0.0966 -0.3654
  684loPI   C4A10938  -0.528   8.761   7.396  0.3025  0.2198 -0.1679
  684loPI   C5A10939  -0.558   8.786   7.805  0.1186 -0.2695 -0.0699
  684loPI   C6A10940  -0.615   9.019   8.167 -0.1077 -0.0006  0.1629
  684loPI   C1B10941  -0.721   8.330   6.151  0.2271  0.0215 -0.1550
  684loPI   C2B10942  -0.629   8.390   6.560 -0.1099  0.1465 -0.0279
  684loPI   C3B10943  -0.735   8.372   6.954  0.0307 -0.0548 -0.0247
  684loPI   C4B10944  -0.856   8.173   7.346  0.0222  0.2107 -0.0495
  685loPI    C110945   8.474  16.308   4.449  0.0365  0.1575  0.0700
  685loPI    C210946   8.517  16.229   4.059  0.0946  0.3285  0.0412
  685loPI    C310947   8.160  16.338   4.203 -0.0029 -0.0455  0.0932
  685loPI   PO410948   8.587  16.178   4.574 -0.1354  0.0345 -0.2159
  685loPI   GL110949   8.509  16.269   4.959 -0.0537  0.0447  0.2122
  685loPI   GL210950   8.452  16.596   5.096  0.0123 -0.1116 -0.1458
  685loPI   C1A10951   8.263  15.993   5.280 -0.4658 -0.5062  0.0604
  685loPI   C2A10952   8.107  16.079   5.639 -0.0821  0.0209 -0.0180
  685loPI   C3A10953   8.171  16.074   6.116 -0.3357 -0.1207  0.0868
  685loPI   C4A10954   8.087  16.009   6.504 -0.0251  0.0426 -0.0139
  685loPI   C5A10955   8.096  16.160   6.912  0.1929  0.0105 -0.1268
  685loPI   C6A10956   7.923  15.870   7.300  0.0888 -0.0156 -0.0281
  685loPI   C1B10957   8.475  16.457   5.460  0.1838 -0.0424 -0.1178
  685loPI   C2B10958   8.425  16.441   5.843  0.1620  0.1612 -0.1081
  685loPI   C3B10959   8.487  16.511   6.146  0.1175 -0.2072  0.1392
  685loPI   C4B10960   8.447  16.520   6.518 -0.1800 -0.3047  0.1340
  686loPI    C110961  18.441   0.706   4.819  0.1670  0.1531 -0.1772
  686loPI    C210962  18.610   0.497   4.523  0.2169  0.2427 -0.2123
  686loPI    C310963  18.245   0.652   4.475  0.0772 -0.0425 -0.0971
  686loPI   PO410964  18.489   0.478   5.006 -0.0866 -0.0797  0.0655
  686loPI   GL110965  18.351   0.572   5.462  0.0088  0.0447 -0.1294
  686loPI   GL210966  18.059   0.498   5.369 -0.4101  0.0441 -0.2085
  686loPI   C1A10967  18.434   0.732   5.856 -0.0035 -0.1570 -0.0667
  686loPI   C2A10968  18.583   0.733   6.315  0.2070 -0.3075 -0.0018
  686loPI   C3A10969  18.675   0.742   6.780 -0.0339  0.2913 -0.1473
  686loPI   C4A10970  18.765   0.623   7.197  0.0223 -0.0758 -0.0709
  686loPI   C5A10971  18.940   0.788   7.573 -0.0659 -0.0523  0.0301
  686loPI   C6A10972  19.081   0.615   7.865 -0.3442 -0.3505  0.0094
  686loPI   C1B10973  18.066   0.385   5.838 -0.0028 -0.3945 -0.2158
  686loPI   C2B10974  18.153   0.409   6.191  0.0718  0.1593 -0.1180
  686loPI   C3B10975  18.204   0.406   6.578  0.1555  0.4476 -0.2518
  686loPI   C4B10976  18.331   0.439   7.025  0.1843 -0.3443 -0.0885
  687loPI    C110977  15.186   7.948   5.247  0.3547 -0.1077  0.1111
  687loPI    C210978  15.246   8.238   4.978 -0.0028 -0.1938 -0.0678
  687loPI    C310979  14.957   8.276   5.252  0.1669 -0.2372  0.1195
  687loPI   PO410980  15.403   7.850   5.374  0.1186 -0.1017  0.0824
  687loPI   GL110981  15.692   8.193   5.641  0.0670 -0.2256  0.0737
  687loPI   GL210982  15.385   8.348   5.611  0.0327  0.1360 -0.1245
  687loPI   C1A10983  15.997   8.196   5.951 -0.2721 -0.1945 -0.1606
  687loPI   C2A10984  15.924   8.141   6.379  0.4223  0.0171  0.2465
  687loPI   C3A10985  15.863   8.157   6.780 -0.0152 -0.1354  0.0960
  687loPI   C4A10986  15.755   8.006   7.223 -0.1908  0.0130 -0.0345
  687loPI   C5A10987  15.660   7.831   7.550 -0.0735 -0.1357 -0.0092
  687loPI   C6A10988  15.469   7.914   7.932 -0.1288 -0.1956 -0.0558
  687loPI   C1B10989  15.483   8.237   6.079 -0.0406 -0.2352 -0.1492
  687loPI   C2B10990  15.410   8.320   6.433 -0.1170 -0.0683  0.0473
  687loPI   C3B10991  15.299   8.342   6.829  0.0632  0.2736 -0.1812
  687loPI   C4B10992  15.163   8.456   7.249  0.1477 -0.1581  0.3752
  688loPI    C110993  12.824  18.450   4.737 -0.2294 -0.0155  0.1209
  688loPI    C210994  12.882  18.066   4.641  0.0998  0.0489  0.0500
  688loPI    C310995  13.021  18.355   4.402 -0.2027  0.2146  0.0696
  688loPI   PO410996  12.826  18.419   5.003 -0.0290 -0.1281  0.0736
  688loPI   GL110997  13.112  18.571   5.336 -0.3120 -0.1463  0.1713
  688loPI   GL210998  12.947  18.278   5.486 -0.2868  0.0159  0.0310
  688loPI   C1A10999  13.236  18.767   5.710  0.0254  0.1202 -0.0100
  688loPI   C2A11000  13.254  18.803   6.120 -0.2036  0.2139  0.2349
  688loPI   C3A11001  13.198  18.745   6.494  0.3060  0.1560  0.0655
  688loPI   C4A11002  13.189  18.628   6.778  0.1585 -0.2067  0.2869
  688loPI   C5A11003  13.311  18.697   7.208  0.1643 -0.0247  0.1952
  688loPI   C6A11004  13.288  18.999   7.451  0.1434  0.2507  0.2123
  688loPI   C1B11005  12.877  18.491   5.909  0.0852 -0.1204 -0.1802
  688loPI   C2B11006  12.816  18.408   6.284  0.0603 -0.2337 -0.0983
  688loPI   C3B11007  12.694  18.417   6.786  0.2382 -0.0846  0.0712
  688loPI   C4B11008  12.314  18.523   7.158 -0.2017 -0.1769 -0.0229
  689loPI    C111009  14.147  13.468   5.080 -0.0857  0.5360 -0.0985
  689loPI    C211010  14.541  13.520   5.120 -0.0141  0.0016 -0.0359
  689loPI    C311011  14.380  13.487   4.756 -0.0039  0.2214 -0.0616
  689loPI   PO411012  14.050  13.342   5.251 -0.2818 -0.3146  0.0879
  689loPI   GL111013  14.006  13.399   5.612 -0.0727 -0.1818  0.2656
  689loPI   GL211014  14.006  13.733   5.777  0.2222  0.0323 -0.2631
  689loPI   C1A11015  14.173  13.344   6.012 -0.0526 -0.0434  0.1534
  689loPI   C2A11016  14.549  13.225   6.274  0.0553 -0.0246 -0.0450
  689loPI   C3A11017  14.812  13.336   6.566 -0.0528 -0.0483 -0.3189
  689loPI   C4A11018  14.779  13.460   6.870 -0.1223 -0.0495  0.0745
  689loPI   C5A11019  14.667  13.514   7.268 -0.0200 -0.0704 -0.0006
  689loPI   C6A11020  14.625  13.723   7.688 -0.0347  0.2068  0.2247
  689loPI   C1B11021  13.746  13.586   6.167  0.1747  0.1403  0.0512
  689loPI   C2B11022  13.671  13.551   6.658 -0.2876  0.0752  0.4271
  689loPI   C3B11023  13.927  13.218   6.882  0.0202  0.0398  0.0348
  689loPI   C4B11024  13.731  13.208   7.345 -0.0840 -0.0116  0.0328
  690loPI    C111025   2.914   7.299   4.943  0.0949  0.0496 -0.0210
  690loPI    C211026   2.632   7.139   5.177  0.2829 -0.2981 -0.0264
  690loPI    C311027   2.584   7.143   4.780  0.1133 -0.0063 -0.0051
  690loPI   PO411028   3.125   7.219   5.155 -0.0433  0.1699  0.0891
  690loPI   GL111029   3.110   7.260   5.570 -0.3057 -0.2187  0.0332
  690loPI   GL211030   2.882   7.107   5.566  0.1429  0.0856 -0.0436
  690loPI   C1A11031   3.417   7.247   5.925  0.0725  0.1059 -0.0296
  690loPI   C2A11032   3.747   7.133   6.171 -0.0407 -0.0642 -0.0761
  690loPI   C3A11033   3.736   7.138   6.579 -0.0416  0.1993 -0.3436
  690loPI   C4A11034   3.758   7.237   7.087 -0.3829 -0.0570  0.1867
  690loPI   C5A11035   3.528   7.085   7.471 -0.0475 -0.0695 -0.1600
  690loPI   C6A11036   3.147   6.991   7.792  0.1398  0.1859 -0.1835
  690loPI   C1B11037   2.928   7.117   6.032  0.0566 -0.4387  0.0055
  690loPI   C2B11038   2.836   7.248   6.451 -0.0247 -0.1372  0.3093
  690loPI   C3B11039   2.824   7.205   6.836  0.0248 -0.2968  0.1111
  690loPI   C4B11040   2.777   7.284   7.322 -0.1264  0.2348  0.2013
  691loPI    C111041  10.611  15.887   4.630 -0.2957 -0.3319 -0.0211
  691loPI    C211042  11.006  15.833   4.612 -0.2222  0.1858 -0.1261
  691loPI    C311043  10.813  15.994   4.301 -0.4871  0.1113 -0.0023
  691loPI   PO411044  10.587  16.002   4.876 -0.0263 -0.1626 -0.0902
  691loPI   GL111045  10.502  15.889   5.301  0.0451  0.2629 -0.2217
  691loPI   GL211046  10.523  16.248   5.298 -0.2053  0.0174 -0.0711
  691loPI   C1A11047  10.163  15.781   5.604 -0.1916 -0.0022  0.2462
  691loPI   C2A11048  10.156  15.740   6.115  0.0606  0.0950 -0.2038
  691loPI   C3A11049  10.125  15.946   6.491  0.1762 -0.2136  0.0496
  691loPI   C4A11050  10.138  15.982   6.914 -0.1325  0.2737 -0.1701
  691loPI   C5A11051  10.348  15.736   7.252 -0.1009 -0.2505 -0.0262
  691loPI   C6A11052  10.324  15.592   7.613  0.1498 -0.1688  0.1340
  691loPI   C1B11053  10.508  16.246   5.712 -0.1653  0.3405 -0.0801
  691loPI   C2B11054  10.468  16.193   6.111  0.2136  0.0006  0.0901
  691loPI   C3B11055  10.390  16.367   6.408  0.0016 -0.2280  0.0326
  691loPI   C4B11056  10.422  16.458   6.830  0.1661 -0.0476 -0.0201
  692loPI    C111057  14.947   8.792   5.389  0.1546 -0.0759 -0.0003
  692loPI    C211058  14.961   8.906   5.006  0.0296 -0.2882 -0.0699
  692loPI    C311059  15.267   8.704   5.166  0.0881 -0.1870 -0.0527
  692loPI   PO411060  14.912   9.021   5.530  0.2062  0.0354 -0.1278
  692loPI   GL111061  15.091   9.115   5.846 -0.2522  0.0339 -0.0812
  692loPI   GL211062  15.384   8.971   5.802  0.2315  0.2469 -0.1945
  692loPI   C1A11063  15.101   9.335   6.222 -0.2931 -0.0230  0.1222
  692loPI   C2A11064  15.049   9.381   6.706 -0.3910 -0.3154  0.0093
  692loPI   C3A11065  15.014   9.491   7.072  0.1831 -0.1406  0.3617
  692loPI   C4A11066  14.967   9.437   7.486  0.0574  0.3434  0.1233
  692loPI   C5A11067  14.795   9.453   7.870  0.1893  0.1256 -0.0512
  692loPI   C6A11068  14.371   9.538   8.080 -0.1133  0.4171  0.2576
  692loPI   C1B11069  15.239   8.768   6.187  0.0733  0.1949  0.1543
  692loPI   C2B11070  15.108   8.852   6.578 -0.2272 -0.0367 -0.1592
  692loPI   C3B11071  15.248   8.880   6.998  0.1032 -0.0171  0.3577
  692loPI   C4B11072  15.406   8.841   7.435 -0.1596 -0.1739 -0.0809
  693loPI    C111073  17.300   2.628   4.941 -0.0689  0.2339  0.0464
  693loPI    C211074  16.962   2.524   5.129  0.0345 -0.0809  0.0622
  693loPI    C311075  17.045   2.375   4.767  0.0323  0.2035 -0.0581
  693loPI   PO411076  17.517   2.535   5.259  0.0086 -0.3317  0.0238
  693loPI   GL111077  17.541   2.369   5.671 -0.1701 -0.2203  0.0035
  693loPI   GL211078  17.287   2.301   5.640 -0.3164  0.1138  0.1344
  693loPI   C1A11079  17.757   2.450   6.046  0.1700  0.0803  0.2656
  693loPI   C2A11080  17.889   2.438   6.417 -0.0442  0.2824 -0.0754
  693loPI   C3A11081  17.894   2.388   6.892  0.0388  0.0923  0.1074
  693loPI   C4A11082  18.180   2.450   7.323  0.1044 -0.1287 -0.1344
  693loPI   C5A11083  18.359   2.670   7.753  0.0262  0.2804  0.1843
  693loPI   C6A11084  18.536   2.579   8.131  0.1750 -0.2022 -0.2100
  693loPI   C1B11085  17.336   2.118   6.037 -0.2004 -0.3461  0.1656
  693loPI   C2B11086  17.468   2.149   6.478  0.2617 -0.1628 -0.1977
  693loPI   C3B11087  17.496   2.077   6.844 -0.0698  0.1510  0.0217
  693loPI   C4B11088  17.622   1.974   7.298  0.1109 -0.0842 -0.0647
  694loPI    C111089  10.307  15.476   4.601  0.0971  0.0930  0.1522
  694loPI    C211090  10.694  15.444   4.505  0.0340  0.0871 -0.1086
  694loPI    C311091  10.428  15.557   4.228 -0.1969 -0.2153 -0.0156
  694loPI   PO411092  10.277  15.575   4.922 -0.3084  0.2062  0.2116
  694loPI   GL111093  10.329  15.375   5.312 -0.0186  0.3828  0.1308
  694loPI   GL211094  10.243  15.041   5.266  0.3028 -0.1104 -0.3596
  694loPI   C1A11095  10.382  15.297   5.687 -0.1273  0.1269  0.2060
  694loPI   C2A11096  10.396  15.288   6.051  0.2886 -0.5047  0.3372
  694loPI   C3A11097  10.388  15.398   6.542 -0.0374 -0.0847 -0.0760
  694loPI   C4A11098  10.488  15.300   7.020 -0.1968  0.0270  0.1648
  694loPI   C5A11099  10.516  15.167   7.421 -0.0201 -0.3971  0.2732
  694loPI   C6A11100  10.533  15.183   7.865 -0.0625 -0.1378  0.0826
  694loPI   C1B11101  10.491  14.799   5.686 -0.3549 -0.1554  0.0733
  694loPI   C2B11102  10.631  14.829   6.174  0.3237  0.2672 -0.0297
  694loPI   C3B11103  10.666  14.922   6.599  0.2795  0.2795  0.2476
  694loPI   C4B11104  10.705  14.782   7.062  0.1012  0.2750 -0.2145
  695loPI    C111105   6.311   6.063   4.555 -0.0026 -0.0221  0.1076
  695loPI    C211106   6.482   5.929   4.219  0.0149  0.1975  0.0273
  695loPI    C311107   6.587   6.285   4.368 -0.2186  0.2400  0.0941
  695loPI   PO411108   6.189   5.820   4.797 -0.3287  0.0889  0.0241
  695loPI   GL111109   6.201   5.669   5.217 -0.1735 -0.2390  0.1355
  695loPI   GL211110   5.915   5.432   5.276 -0.0771 -0.0295 -0.0283
  695loPI   C1A11111   5.978   5.761   5.663  0.1158  0.0172 -0.0571
  695loPI   C2A11112   5.994   5.704   6.145 -0.3182 -0.1566 -0.0886
  695loPI   C3A11113   5.959   5.667   6.496  0.1726 -0.0392 -0.0583
  695loPI   C4A11114   5.814   5.628   7.015  0.0209  0.1269 -0.0683
  695loPI   C5A11115   5.405   5.399   7.171  0.0500 -0.1021  0.1491
  695loPI   C6A11116   5.105   5.147   6.981 -0.0031 -0.0421  0.0446
  695loPI   C1B11117   5.944   5.225   5.718  0.3171 -0.1822 -0.2392
  695loPI   C2B11118   5.983   5.190   6.150 -0.1854 -0.3843  0.0320
  695loPI   C3B11119   5.915   5.136   6.552  0.2880  0.0410  0.1209
  695loPI   C4B11120   5.813   5.109   6.978 -0.4439 -0.1051  0.2147
  696loPI    C111121   8.978  17.001   4.766  0.0124 -0.1113 -0.2429
  696loPI    C211122   8.798  16.671   4.629  0.2533 -0.2044 -0.3422
  696loPI    C311123   8.948  16.938   4.372  0.4800 -0.2529 -0.2626
  696loPI   PO411124   9.157  16.951   4.918  0.1359 -0.1039 -0.2716
  696loPI   GL111125   9.222  16.724   5.198 -0.0234  0.0771 -0.1830
  696loPI   GL211126   8.892  16.511   5.289  0.0072 -0.0115  0.0064
  696loPI   C1A11127   9.230  16.821   5.639  0.1182  0.2654  0.1188
  696loPI   C2A11128   9.230  16.783   6.124  0.2917 -0.1949  0.0132
  696loPI   C3A11129   9.264  16.961   6.540  0.1185  0.0667 -0.0515
  696loPI   C4A11130   9.176  16.801   7.024 -0.0289  0.1166 -0.0893
  696loPI   C5A11131   8.865  16.828   7.258 -0.2257  0.1064  0.1292
  696loPI   C6A11132   8.477  16.858   7.593  0.2109  0.1770  0.0948
  696loPI   C1B11133   8.917  16.374   5.766 -0.0138  0.1256  0.2918
  696loPI   C2B11134   8.980  16.315   6.235 -0.0228 -0.1967  0.3789
  696loPI   C3B11135   8.936  16.501   6.708 -0.0153  0.0054  0.1086
  696loPI   C4B11136   8.607  16.422   6.983 -0.0697 -0.1355  0.2784
  697loPI    C111137  15.119   9.965   4.983 -0.0376  0.0562 -0.2054
  697loPI    C211138  15.149  10.354   4.898 -0.0764  0.0527 -0.2356
  697loPI    C311139  15.356  10.086   4.685  0.1570  0.0771 -0.0445
  697loPI   PO411140  15.096   9.970   5.273  0.0559 -0.0567  0.1220
  697loPI   GL111141  14.830   9.963   5.768 -0.1353  0.1125  0.0120
  697loPI   GL211142  15.036  10.211   5.768 -0.3449 -0.1674 -0.0716
  697loPI   C1A11143  14.998   9.838   6.129 -0.0194  0.1597  0.0988
  697loPI   C2A11144  15.002   9.884   6.517  0.1963 -0.1644 -0.2036
  697loPI   C3A11145  14.990   9.962   6.940  0.0926  0.0115  0.0135
  697loPI   C4A11146  14.847   9.946   7.355 -0.0077  0.0639 -0.1843
  697loPI   C5A11147  14.963   9.899   7.724  0.1302  0.1088 -0.0459
  697loPI   C6A11148  15.257   9.780   7.984 -0.2903  0.2046 -0.2443
  697loPI   C1B11149  15.281  10.596   5.939 -0.0483  0.0287  0.2135
  697loPI   C2B11150  15.234  10.793   6.403 -0.2443 -0.1777  0.0896
  697loPI   C3B11151  15.267  10.749   6.841 -0.0620 -0.1346 -0.1569
  697loPI   C4B11152  15.292  10.746   7.287  0.0552 -0.1435  0.1739
  698loPI    C111153   5.812   7.838   5.024  0.0778  0.1473 -0.1212
  698loPI    C211154   5.476   7.813   4.809  0.1644 -0.0223 -0.2385
  698loPI    C311155   5.832   7.800   4.626  0.2392 -0.1893 -0.0843
  698loPI   PO411156   5.781   7.654   5.190  0.3062 -0.1000  0.1632
  698loPI   GL111157   5.586   7.491   5.626 -0.2612  0.4742 -0.2423
  698loPI   GL211158   5.880   7.444   5.704  0.1557  0.1151 -0.2629
  698loPI   C1A11159   5.239   7.521   5.808  0.2151 -0.0094 -0.0050
  698loPI   C2A11160   5.147   7.380   6.251  0.0154  0.0597  0.1205
  698loPI   C3A11161   5.084   7.191   6.660 -0.1791 -0.3733  0.0228
  698loPI   C4A11162   5.123   7.241   7.104  0.1701 -0.0919  0.3638
  698loPI   C5A11163   4.974   7.589   7.447  0.0923  0.3449  0.0552
  698loPI   C6A11164   5.025   7.678   7.871  0.1114  0.0644 -0.1899
  698loPI   C1B11165   5.947   7.255   6.096  0.1394 -0.2318 -0.3006
  698loPI   C2B11166   6.045   7.215   6.513 -0.2408 -0.2965 -0.1989
  698loPI   C3B11167   5.941   7.134   6.947  0.1153 -0.2457 -0.1038
  698loPI   C4B11168   5.985   7.210   7.343 -0.1893 -0.4251 -0.4103
  699loPI    C111169  14.641  15.534   4.744 -0.1028  0.1592  0.0280
  699loPI    C211170  14.336  15.280   4.795  0.2500 -0.2787  0.0250
  699loPI    C311171  14.368  15.489   4.455 -0.2152  0.0194  0.1542
  699loPI   PO411172  14.733  15.667   5.004  0.2145  0.3539  0.5079
  699loPI   GL111173  14.857  15.584   5.441  0.1719  0.0138  0.0571
  699loPI   GL211174  14.647  15.813   5.470 -0.0198 -0.0127 -0.3211
  699loPI   C1A11175  14.951  15.709   5.849  0.1769  0.2033  0.3327
  699loPI   C2A11176  15.000  15.988   6.107 -0.3020  0.1646 -0.0029
  699loPI   C3A11177  15.009  15.982   6.524 -0.4032 -0.0648  0.2676
  699loPI   C4A11178  15.167  16.071   6.955 -0.1539  0.0183  0.0110
  699loPI   C5A11179  15.319  16.058   7.267 -0.3086  0.1746  0.4164
  699loPI   C6A11180  15.437  16.256   7.761  0.0886  0.2054  0.1794
  699loPI   C1B11181  14.490  15.913   5.811  0.1630  0.0997 -0.1650
  699loPI   C2B11182  14.387  16.074   6.248 -0.1983  0.0037  0.0167
  699loPI   C3B11183  14.289  16.194   6.676 -0.0444 -0.2593  0.0018
  699loPI   C4B11184  14.239  16.542   7.076  0.0902  0.0857  0.2393
  700loPI    C111185   8.415   6.811   5.369  0.0834  0.2878  0.0835
  700loPI    C211186   8.189   6.983   5.650 -0.1052 -0.2130  0.2496
  700loPI    C311187   8.022   6.854   5.310  0.0031 -0.2179  0.1979
  700loPI   PO411188   8.655   6.806   5.534 -0.0668 -0.2998  0.2970
  700loPI   GL111189   8.678   6.886   5.944 -0.1205  0.3299 -0.1398
  700loPI   GL211190   8.699   7.146   5.940  0.1487  0.2341  0.0490
  700loPI   C1A11191   8.707   6.592   6.260 -0.3353 -0.0838  0.3528
  700loPI   C2A11192   8.785   6.587   6.734  0.2204 -0.1687  0.0347
  700loPI   C3A11193   8.635   6.652   7.132  0.1961  0.0250 -0.1507
  700loPI   C4A11194   8.499   6.544   7.565  0.1737 -0.0398 -0.0473
  700loPI   C5A11195   8.352   6.667   7.975 -0.2954  0.0808 -0.0198
  700loPI   C6A11196   8.503   6.751   8.413  0.0416 -0.3860 -0.1484
  700loPI   C1B11197   8.346   6.940   6.255 -0.2163 -0.0812  0.0711
  700loPI   C2B11198   8.309   6.857   6.712  0.1783 -0.0279  0.1131
  700loPI   C3B11199   8.187   6.963   7.016 -0.0633 -0.0310  0.4831
  700loPI   C4B11200   8.068   7.306   7.245  0.2154  0.0573  0.0703
  701loPI    C111201   7.372   9.786   5.128 -0.1065  0.0735 -0.0475
  701loPI    C211202   7.448   9.917   4.758 -0.0522  0.0109 -0.0586
  701loPI    C311203   7.651   9.605   4.906 -0.1376 -0.0218 -0.0097
  701loPI   PO411204   7.380   9.984   5.259 -0.0134  0.2682  0.3485
  701loPI   GL111205   7.441  10.228   5.666  0.2892  0.0081 -0.2234
  701loPI   GL211206   7.358   9.980   5.863 -0.0632 -0.1477  0.0200
  701loPI   C1A11207   7.507  10.594   5.985 -0.0902  0.3224  0.1309
  701loPI   C2A11208   7.586  10.779   6.344  0.1906  0.1918 -0.0721
  701loPI   C3A11209   7.721  10.759   6.791 -0.0040 -0.1336  0.1174
  701loPI   C4A11210   7.765  10.688   7.229  0.1833 -0.2213 -0.0652
  701loPI   C5A11211   7.842  10.786   7.635  0.3405  0.1143 -0.0511
  701loPI   C6A11212   8.028  11.011   7.868 -0.2164 -0.0411 -0.0865
  701loPI   C1B11213   7.619  10.114   6.233 -0.2039 -0.1795  0.0576
  701loPI   C2B11214   7.567  10.253   6.634 -0.0170 -0.0428  0.1708
  701loPI   C3B11215   7.490  10.295   7.107  0.4207 -0.3390  0.1814
  701loPI   C4B11216   7.532  10.319   7.515 -0.0047  0.1474 -0.0178
  702loPI    C111217   0.952  15.039   5.126 -0.0687 -0.1952  0.0348
  702loPI    C211218   0.635  15.243   4.994 -0.0171 -0.2833 -0.2305
  702loPI    C311219   0.828  14.993   4.749  0.2575 -0.2313 -0.0713
  702loPI   PO411220   1.203  15.265   5.230  0.1067  0.0158 -0.1228
  702loPI   GL111221   1.368  15.350   5.541 -0.3262  0.0537 -0.0794
  702loPI   GL211222   1.083  15.560   5.649 -0.1606 -0.1432 -0.2879
  702loPI   C1A11223   1.110  15.113   5.863  0.0658  0.3231  0.0891
  702loPI   C2A11224   0.980  14.773   6.064 -0.0420 -0.1382 -0.4272
  702loPI   C3A11225   0.934  14.551   6.473 -0.5164 -0.1523  0.1938
  702loPI   C4A11226   0.716  14.427   6.789  0.1313  0.3070  0.0477
  702loPI   C5A11227   0.511  14.731   7.081  0.1883  0.3742 -0.3224
  702loPI   C6A11228   0.255  14.958   7.301 -0.0644 -0.2321 -0.3525
  702loPI   C1B11229   1.278  15.507   6.086  0.0020 -0.0900  0.2007
  702loPI   C2B11230   1.046  15.634   6.483  0.1073  0.0576  0.1052
  702loPI   C3B11231   0.887  15.578   6.939  0.2115  0.0412 -0.0569
  702loPI   C4B11232   0.790  15.773   7.259 -0.1396 -0.1621  0.1441
  703loPI    C111233   5.562   3.608   4.589 -0.1228 -0.1702 -0.2938
  703loPI    C211234   5.891   3.834   4.611 -0.2371 -0.0266 -0.0177
  703loPI    C311235   5.767   3.697   4.257  0.1645 -0.1522 -0.1149
  703loPI   PO411236   5.317   3.706   4.802 -0.2355  0.2763 -0.0951
  703loPI   GL111237   5.070   3.567   5.202  0.1957 -0.4641  0.1377
  703loPI   GL211238   4.803   3.381   5.223 -0.0725  0.5606  0.1888
  703loPI   C1A11239   4.987   3.736   5.684  0.2404  0.0424 -0.0815
  703loPI   C2A11240   4.943   3.722   6.145  0.2962 -0.1641  0.1301
  703loPI   C3A11241   5.012   3.624   6.535  0.1623  0.1561  0.1419
  703loPI   C4A11242   5.097   3.643   6.995  0.0693  0.0516 -0.1467
  703loPI   C5A11243   5.260   3.974   7.311  0.0193  0.1834 -0.0833
  703loPI   C6A11244   5.523   3.999   7.620 -0.0905 -0.0104  0.4501
  703loPI   C1B11245   4.966   3.129   5.661  0.0566  0.0052  0.0919
  703loPI   C2B11246   4.952   3.238   6.107 -0.0555  0.1462 -0.2618
  703loPI   C3B11247   4.991   3.040   6.569  0.1646  0.1296 -0.3117
  703loPI   C4B11248   4.931   2.972   7.031  0.0697  0.0979 -0.2842
  704loPI    C111249   6.957   4.294   4.887 -0.0878 -0.0426 -0.0534
  704loPI    C211250   6.820   4.494   4.568 -0.1028  0.0874  0.0336
  704loPI    C311251   7.124   4.642   4.781  0.0496 -0.1059 -0.0463
  704loPI   PO411252   6.776   4.049   4.912 -0.0040  0.0833 -0.1223
  704loPI   GL111253   6.549   3.951   5.304  0.0966  0.0859 -0.2432
  704loPI   GL211254   6.284   3.886   5.471 -0.2960  0.1212  0.1556
  704loPI   C1A11255   6.800   4.074   5.681  0.0427 -0.1440  0.1031
  704loPI   C2A11256   6.812   4.061   6.178  0.1945  0.0770 -0.2232
  704loPI   C3A11257   6.818   4.119   6.662  0.0021  0.0367  0.2069
  704loPI   C4A11258   6.892   4.088   7.084 -0.0071 -0.0005 -0.4335
  704loPI   C5A11259   6.853   3.820   7.499  0.0297 -0.0424 -0.2285
  704loPI   C6A11260   6.895   3.714   7.866 -0.0975  0.0854 -0.1789
  704loPI   C1B11261   6.311   3.906   5.884  0.1249  0.0301 -0.3299
  704loPI   C2B11262   6.394   3.862   6.338  0.1663  0.0486  0.0630
  704loPI   C3B11263   6.312   3.841   6.763  0.0482  0.3454  0.0373
  704loPI   C4B11264   6.384   3.820   7.185  0.0622  0.0206  0.3510
  705loPI    C111265  10.621   6.235   4.904  0.1098 -0.0869 -0.0428
  705loPI    C211266  10.990   6.228   5.059  0.1278 -0.0300 -0.0826
  705loPI    C311267  10.934   6.338   4.678  0.0913 -0.2393 -0.1392
  705loPI   PO411268  10.506   6.280   5.136  0.1074  0.4143 -0.1160
  705loPI   GL111269  10.729   6.210   5.479  0.1474  0.3490  0.1698
  705loPI   GL211270  10.869   6.324   5.768  0.0693 -0.1192  0.0713
  705loPI   C1A11271  10.410   6.104   5.860 -0.1776 -0.2924  0.2304
  705loPI   C2A11272  10.331   6.200   6.295 -0.2690 -0.0281 -0.1167
  705loPI   C3A11273   9.978   6.324   6.581  0.2967 -0.2410 -0.1351
  705loPI   C4A11274   9.899   6.235   7.093 -0.3469  0.0881  0.3780
  705loPI   C5A11275   9.534   6.430   7.277  0.1428 -0.1642 -0.0225
  705loPI   C6A11276   9.602   6.874   7.345  0.3058 -0.1088 -0.0608
  705loPI   C1B11277  10.838   6.253   6.210 -0.1980 -0.1813 -0.0046
  705loPI   C2B11278  10.856   6.320   6.632  0.4110  0.1116 -0.2099
  705loPI   C3B11279  10.821   6.337   7.147 -0.1153  0.1770  0.1786
  705loPI   C4B11280  10.413   6.255   7.467  0.2211  0.0544  0.0604
  706loPI    C111281   4.793   3.348   4.434  0.0117 -0.4698 -0.0653
  706loPI    C211282   5.038   3.329   4.749 -0.0715  0.0440  0.0399
  706loPI    C311283   5.189   3.349   4.379  0.0361 -0.0252  0.0794
  706loPI   PO411284   4.507   3.420   4.555 -0.2628 -0.1056 -0.0368
  706loPI   GL111285   4.377   3.568   4.950  0.0087 -0.1650  0.2531
  706loPI   GL211286   4.246   3.403   5.189 -0.1177  0.0267  0.1925
  706loPI   C1A11287   4.594   3.833   5.224  0.4374 -0.2025 -0.3881
  706loPI   C2A11288   4.595   4.006   5.663 -0.0838 -0.1544 -0.2218
  706loPI   C3A11289   4.537   4.041   6.022  0.0892 -0.2962  0.1383
  706loPI   C4A11290   4.513   3.886   6.465  0.1617 -0.1489 -0.1443
  706loPI   C5A11291   4.656   3.888   6.840 -0.1130 -0.0500  0.0488
  706loPI   C6A11292   4.704   4.149   7.211  0.0770  0.1290 -0.1023
  706loPI   C1B11293   4.470   3.465   5.608  0.0789 -0.0922 -0.3319
  706loPI   C2B11294   4.514   3.517   6.047  0.1365 -0.1455 -0.0870
  706loPI   C3B11295   4.563   3.397   6.453  0.0870  0.0979 -0.2311
  706loPI   C4B11296   4.569   3.317   6.840  0.0061 -0.1325 -0.4945
  707loPI    C111297   0.217   6.480   5.397  0.1567  0.0887  0.0344
  707loPI    C211298   0.085   6.306   5.062 -0.1428  0.1284  0.1292
  707loPI    C311299   0.174   6.696   5.063 -0.1506  0.1303  0.0978
  707loPI   PO411300   0.398   6.342   5.459  0.2089  0.1843 -0.0499
  707loPI   GL111301   0.668   6.391   5.742 -0.2936 -0.0055  0.0359
  707loPI   GL211302   0.892   6.608   5.868 -0.1764  0.0819  0.0850
  707loPI   C1A11303   0.430   6.440   6.142 -0.2237  0.0068 -0.0840
  707loPI   C2A11304   0.233   6.614   6.600  0.0682  0.0021  0.0096
  707loPI   C3A11305   0.148   6.535   7.026 -0.2253 -0.3444 -0.0073
  707loPI   C4A11306   0.245   6.254   7.446  0.2157 -0.0615 -0.0746
  707loPI   C5A11307   0.122   6.003   7.707 -0.1740 -0.1072  0.2596
  707loPI   C6A11308  -0.053   5.627   7.687 -0.2667  0.1635  0.0318
  707loPI   C1B11309   1.187   6.651   6.154 -0.2420 -0.1763 -0.1207
  707loPI   C2B11310   1.257   6.468   6.523  0.0525  0.1220  0.0160
  707loPI   C3B11311   1.095   6.342   6.898 -0.0763  0.1704  0.0635
  707loPI   C4B11312   0.951   6.475   7.286 -0.0050  0.0350 -0.1993
  708loPI    C111313   1.407  16.123   5.073 -0.0216  0.0279  0.0554
  708loPI    C211314   1.275  15.760   5.176  0.0200  0.0038  0.0244
  708loPI    C311315   1.132  15.939   4.849 -0.0912  0.0683  0.1076
  708loPI   PO411316   1.514  16.268   5.322  0.0077  0.0798 -0.1903
  708loPI   GL111317   1.597  16.254   5.657  0.3426 -0.0872  0.2272
  708loPI   GL211318   1.833  16.533   5.622 -0.1345  0.3724  0.0881
  708loPI   C1A11319   1.404  16.281   5.976 -0.2874  0.0950  0.0685
  708loPI   C2A11320   1.098  15.955   6.095  0.2318  0.2548  0.2740
  708loPI   C3A11321   0.691  15.981   6.238  0.1480 -0.1228 -0.2730
  708loPI   C4A11322   0.452  15.643   6.462 -0.1675 -0.1043  0.4202
  708loPI   C5A11323   0.367  15.571   6.796 -0.0716 -0.0017 -0.2073
  708loPI   C6A11324   0.373  15.438   7.165 -0.0975  0.0847  0.2433
  708loPI   C1B11325   1.852  16.585   6.069 -0.3279 -0.3275  0.3199
  708loPI   C2B11326   1.941  16.457   6.524  0.2273  0.0596 -0.1532
  708loPI   C3B11327   1.940  16.576   6.975 -0.0166 -0.1945 -0.0605
  708loPI   C4B11328   2.080  16.447   7.339  0.2328  0.2637 -0.1142
  709loPI    C111329  10.128  11.272   4.819  0.0609 -0.0185 -0.0650
  709loPI    C211330  10.014  10.929   4.649  0.2619 -0.0510 -0.1375
  709loPI    C311331   9.912  11.278   4.483  0.2539 -0.0791 -0.1918
  709loPI   PO411332  10.097  11.307   5.035  0.1610 -0.1160  0.0189
  709loPI   GL111333  10.257  11.464   5.393 -0.0043  0.0140 -0.1264
  709loPI   GL211334  10.053  11.660   5.563  0.0620 -0.1735  0.0465
  709loPI   C1A11335  10.449  11.241   5.751  0.0190 -0.3440 -0.2111
  709loPI   C2A11336  10.296  11.150   6.147 -0.1029 -0.1222 -0.0314
  709loPI   C3A11337  10.314  11.317   6.461  0.2216  0.2316 -0.0390
  709loPI   C4A11338  10.118  11.314   6.919  0.0311  0.2585  0.0455
  709loPI   C5A11339  10.294  11.223   7.316 -0.0142 -0.2197 -0.2656
  709loPI   C6A11340  10.209  11.204   7.823 -0.1507 -0.0902  0.1649
  709loPI   C1B11341  10.155  11.593   5.974  0.0638  0.0289  0.0652
  709loPI   C2B11342  10.176  11.773   6.321  0.3172 -0.0540  0.2834
  709loPI   C3B11343  10.153  11.833   6.732  0.3019  0.1657 -0.0559
  709loPI   C4B11344  10.107  11.684   7.221 -0.1691  0.1567 -0.0218
  710loPI    C111345  10.356  12.155   5.051 -0.0497 -0.0569 -0.0202
  710loPI    C211346  10.142  12.428   5.251  0.2445  0.2029 -0.0523
  710loPI    C311347  10.135  12.422   4.851  0.0187 -0.0204 -0.0475
  710loPI   PO411348  10.439  11.976   5.232 -0.1121 -0.1234 -0.1372
  710loPI   GL111349  10.386  12.055   5.620 -0.2438  0.1413 -0.1501
  710loPI   GL211350  10.590  11.824   5.672  0.0333  0.0644 -0.0638
  710loPI   C1A11351  10.469  12.149   6.092  0.2544  0.0938  0.0073
  710loPI   C2A11352  10.409  12.217   6.590  0.0633  0.0976  0.0296
  710loPI   C3A11353  10.256  12.156   7.117 -0.0471  0.1052 -0.1774
  710loPI   C4A11354  10.209  12.124   7.461  0.2910  0.0310  0.0479
  710loPI   C5A11355  10.383  11.719   7.672  0.1886  0.0818  0.0508
  710loPI   C6A11356  10.840  11.843   7.817 -0.1243 -0.2143 -0.0953
  710loPI   C1B11357  10.652  11.647   6.078 -0.0222  0.0060 -0.2405
  710loPI   C2B11358  10.688  11.796   6.485  0.0746 -0.2623 -0.1938
  710loPI   C3B11359  10.602  11.522   6.919 -0.1713  0.1630  0.0712
  710loPI   C4B11360  10.711  11.555   7.325 -0.0370  0.0755  0.2957
  711loPI    C111361   1.192   6.015   5.067  0.0268  0.0924  0.0087
  711loPI    C211362   1.106   6.370   4.903  0.0152  0.1861  0.2143
  711loPI    C311363   0.975   6.033   4.731  0.2143  0.2675 -0.1051
  711loPI   PO411364   1.244   6.128   5.363 -0.1005 -0.0796 -0.1724
  711loPI   GL111365   1.119   6.180   5.768  0.0918 -0.0292 -0.1790
  711loPI   GL211366   1.076   5.875   5.798  0.0828 -0.0016 -0.1089
  711loPI   C1A11367   0.945   6.213   6.179  0.0058 -0.2392  0.0340
  711loPI   C2A11368   0.998   5.950   6.497  0.0778  0.3043  0.0223
  711loPI   C3A11369   1.105   5.759   6.955 -0.4230 -0.2843  0.0345
  711loPI   C4A11370   1.113   5.517   7.399  0.0995 -0.0285 -0.2279
  711loPI   C5A11371   1.062   5.346   7.765  0.2331 -0.0362 -0.0237
  711loPI   C6A11372   1.293   5.131   8.142  0.4144 -0.3421 -0.0785
  711loPI   C1B11373   1.041   5.545   6.121 -0.2377 -0.0673 -0.0024
  711loPI   C2B11374   1.048   5.393   6.552  0.0567  0.3522 -0.0820
  711loPI   C3B11375   1.253   5.110   6.882 -0.1664  0.1130  0.0884
  711loPI   C4B11376   1.470   4.912   7.158  0.5174 -0.3446 -0.1067
  712loPI    C111377  10.222   7.561   5.426  0.2708 -0.2600  0.0352
  712loPI    C211378   9.968   7.311   5.608 -0.0220 -0.0261 -0.0437
  712loPI    C311379   9.877   7.463   5.250  0.2333  0.0589 -0.0750
  712loPI   PO411380  10.438   7.520   5.493 -0.0260  0.1963  0.2467
  712loPI   GL111381  10.515   7.395   5.878  0.1941  0.1255 -0.1659
  712loPI   GL211382  10.400   7.109   5.858 -0.2783 -0.0006  0.0068
  712loPI   C1A11383  10.434   7.551   6.298 -0.0315  0.1769 -0.0860
  712loPI   C2A11384  10.286   7.646   6.682  0.0423 -0.0683 -0.2069
  712loPI   C3A11385  10.271   7.565   7.096 -0.3182  0.0329  0.1532
  712loPI   C4A11386  10.577   7.646   7.394 -0.1545  0.0678 -0.0333
  712loPI   C5A11387  10.956   7.518   7.615 -0.0364  0.0796 -0.2767
  712loPI   C6A11388  11.338   7.355   7.493 -0.2014 -0.3140 -0.0242
  712loPI   C1B11389  10.301   7.041   6.310  0.2694  0.1294 -0.0842
  712loPI   C2B11390  10.290   7.063   6.781  0.2284  0.0586  0.1850
  712loPI   C3B11391  10.081   6.740   7.055  0.2442 -0.0707  0.0434
  712loPI   C4B11392  10.045   6.654   7.509 -0.0603  0.1376 -0.0306
  713loPI    C111393  14.639  10.733   5.069 -0.1903  0.0406  0.0764
  713loPI    C211394  14.591  11.019   4.794 -0.0498 -0.0968 -0.0933
  713loPI    C311395  14.915  10.785   4.785 -0.0453 -0.1049  0.1887
  713loPI   PO411396  14.540  10.855   5.285 -0.3062 -0.1509 -0.0793
  713loPI   GL111397  14.708  11.161   5.617  0.0843 -0.1314  0.0559
  713loPI   GL211398  14.484  10.990   5.764 -0.0884 -0.1493  0.0454
  713loPI   C1A11399  15.022  11.071   5.796  0.0719  0.4222 -0.0934
  713loPI   C2A11400  15.442  11.094   5.930 -0.1755 -0.2191  0.1788
  713loPI   C3A11401  15.667  11.114   6.324 -0.1879 -0.1979  0.1259
  713loPI   C4A11402  15.628  11.091   6.678  0.1232 -0.3515 -0.0745
  713loPI   C5A11403  15.614  11.147   7.155  0.3228  0.2852  0.0280
  713loPI   C6A11404  15.458  11.137   7.624  0.0963  0.0353  0.1146
  713loPI   C1B11405  14.701  11.032   6.213 -0.0169  0.0055 -0.0190
  713loPI   C2B11406  14.827  10.997   6.719 -0.2290  0.1746  0.0843
  713loPI   C3B11407  14.671  10.984   7.102 -0.2588  0.2551 -0.0120
  713loPI   C4B11408  14.693  10.838   7.574  0.1158 -0.0674 -0.0069
  714loPI    C111409   1.951  17.023   4.803  0.0475 -0.0020 -0.1349
  714loPI    C211410   2.205  17.306   4.676  0.0868  0.0077 -0.0352
  714loPI    C311411   2.200  16.948   4.498  0.1063  0.0381 -0.0971
  714loPI   PO411412   2.020  17.051   5.084 -0.1253 -0.1036  0.1796
  714loPI   GL111413   1.850  17.113   5.509  0.2282 -0.0121 -0.3831
  714loPI   GL211414   2.089  17.344   5.593 -0.2210  0.2251 -0.0715
  714loPI   C1A11415   1.700  17.074   5.883  0.2398  0.2828 -0.3299
  714loPI   C2A11416   1.812  16.998   6.319  0.3116  0.0113  0.1138
  714loPI   C3A11417   1.779  17.003   6.759 -0.3830 -0.1197  0.1744
  714loPI   C4A11418   1.748  16.974   7.122 -0.2287  0.1365 -0.0374
  714loPI   C5A11419   1.951  16.966   7.522 -0.3889  0.0196  0.2098
  714loPI   C6A11420   1.990  16.660   7.760 -0.1289  0.4626 -0.0250
  714loPI   C1B11421   2.103  17.379   5.968  0.0758 -0.0458  0.2796
  714loPI   C2B11422   2.192  17.367   6.393 -0.1570  0.2282 -0.1247
  714loPI   C3B11423   2.203  17.285   6.814 -0.1287 -0.0518  0.0326
  714loPI   C4B11424   2.074  17.329   7.182  0.2229 -0.1885  0.0702
  715loPI    C111425   8.754  18.320   4.636  0.1680  0.1212  0.1145
  715loPI    C211426   8.510  18.235   4.330  0.1126  0.1190  0.1589
  715loPI    C311427   8.907  18.231   4.278  0.1023  0.1688  0.0744
  715loPI   PO411428   8.545  18.484   4.843  0.0780  0.1274  0.3150
  715loPI   GL111429   8.476  18.563   5.206 -0.1641 -0.0327 -0.2179
  715loPI   GL211430   8.221  18.461   5.290  0.1445  0.1939  0.1125
  715loPI   C1A11431   8.604  18.383   5.665 -0.1594 -0.1463 -0.2930
  715loPI   C2A11432   8.583  18.287   6.073  0.0501  0.1269 -0.0717
  715loPI   C3A11433   8.596  18.246   6.493 -0.1172  0.0405  0.2479
  715loPI   C4A11434   8.581  18.302   6.913  0.1127  0.2305  0.0641
  715loPI   C5A11435   8.500  18.599   7.236  0.1989  0.2356  0.0002
  715loPI   C6A11436   8.228  18.791   7.628 -0.1253 -0.1421  0.0339
  715loPI   C1B11437   8.088  18.226   5.735 -0.3359 -0.0916  0.4137
  715loPI   C2B11438   8.100  18.301   6.219  0.0310 -0.1672  0.1047
  715loPI   C3B11439   8.039  18.292   6.639  0.2003 -0.3165  0.2021
  715loPI   C4B11440   8.056  18.395   6.981 -0.0522 -0.1660  0.1490
  716loPI    C111441  16.860  11.771   4.919 -0.3570 -0.0484 -0.2126
  716loPI    C211442  17.128  11.924   4.664  0.2418 -0.2296  0.2824
  716loPI    C311443  16.829  11.696   4.527 -0.0082  0.4330 -0.3412
  716loPI   PO411444  16.944  11.832   5.179 -0.0313  0.0401  0.2846
  716loPI   GL111445  16.708  11.647   5.472 -0.0561  0.1721  0.0773
  716loPI   GL211446  16.623  11.984   5.612 -0.0562  0.0163 -0.0743
  716loPI   C1A11447  16.917  11.566   5.853 -0.1421 -0.0584  0.0352
  716loPI   C2A11448  16.921  11.552   6.287 -0.1392 -0.0582  0.3288
  716loPI   C3A11449  16.959  11.658   6.698  0.1795 -0.2087  0.0942
  716loPI   C4A11450  16.931  11.614   7.105  0.1200  0.3939 -0.0027
  716loPI   C5A11451  16.824  11.723   7.554 -0.0560  0.0108 -0.0085
  716loPI   C6A11452  16.812  11.813   7.901 -0.3281  0.0839  0.0086
  716loPI   C1B11453  16.857  12.079   5.953  0.0435  0.4071 -0.0437
  716loPI   C2B11454  16.956  12.125   6.332  0.2405 -0.0143 -0.1923
  716loPI   C3B11455  16.783  12.229   6.706  0.2429 -0.4883 -0.0083
  716loPI   C4B11456  16.731  12.106   7.125 -0.1614  0.1135 -0.0243
  717loPI    C111457  14.728  17.622   5.163  0.0265 -0.2762  0.0317
  717loPI    C211458  14.945  17.811   4.884 -0.1304  0.0734  0.1410
  717loPI    C311459  14.606  17.624   4.782  0.0243 -0.1516  0.0325
  717loPI   PO411460  14.879  17.512   5.270  0.0757 -0.0273  0.2113
  717loPI   GL111461  14.875  17.210   5.659 -0.0429 -0.0069  0.3343
  717loPI   GL211462  15.139  16.897   5.704  0.0060  0.0992 -0.3077
  717loPI   C1A11463  14.720  17.561   5.933  0.0125 -0.2750 -0.0263
  717loPI   C2A11464  14.618  17.702   6.273 -0.0202 -0.1636 -0.0828
  717loPI   C3A11465  14.530  17.960   6.708 -0.0135  0.1981  0.1621
  717loPI   C4A11466  14.815  18.146   7.045 -0.0935  0.4058 -0.4801
  717loPI   C5A11467  15.204  18.272   7.116  0.1410 -0.0730  0.2817
  717loPI   C6A11468  15.697  18.202   7.095  0.2369 -0.0226  0.1906
  717loPI   C1B11469  14.799  16.929   6.060 -0.0948  0.3440  0.2250
  717loPI   C2B11470  14.840  16.908   6.450 -0.2027 -0.3039 -0.0444
  717loPI   C3B11471  15.143  16.936   6.773  0.3060 -0.0760 -0.0339
  717loPI   C4B11472  15.067  17.321   7.086 -0.0015 -0.3660 -0.1460
  718loPI    C111473  13.732  15.129   5.098 -0.1676  0.0172  0.0638
  718loPI    C211474  13.606  15.122   5.478 -0.3977 -0.1085 -0.0127
  718loPI    C311475  13.385  14.952   5.191 -0.1882 -0.0810 -0.1927
  718loPI   PO411476  13.984  15.107   5.140 -0.0426  0.1005  0.1515
  718loPI   GL111477  14.308  14.978   5.323 -0.1435 -0.0647 -0.1660
  718loPI   GL211478  14.515  15.264   5.284  0.1529 -0.3732 -0.3502
  718loPI   C1A11479  14.252  14.914   5.799  0.0893 -0.2807 -0.2935
  718loPI   C2A11480  14.286  14.951   6.212 -0.1300 -0.0828  0.2874
  718loPI   C3A11481  14.219  14.706   6.603 -0.2068  0.1362  0.1168
  718loPI   C4A11482  14.032  14.654   6.962  0.0542 -0.1178  0.0340
  718loPI   C5A11483  13.985  14.808   7.297  0.2098  0.1655 -0.1481
  718loPI   C6A11484  14.110  14.924   7.703  0.1505 -0.0667  0.0470
  718loPI   C1B11485  14.476  15.370   5.669 -0.1270 -0.1883 -0.1646
  718loPI   C2B11486  14.382  15.522   6.138  0.3132  0.3517 -0.2710
  718loPI   C3B11487  14.591  15.667   6.521  0.0664  0.1965  0.1969
  718loPI   C4B11488  14.703  15.892   6.950  0.0754  0.0265 -0.2185
  719loPI    C111489   2.277   9.319   4.885 -0.1590  0.2312 -0.1350
  719loPI    C211490   2.292   9.175   4.512 -0.0641 -0.1943  0.0276
  719loPI    C311491   1.959   9.132   4.730 -0.0127 -0.2248  0.0999
  719loPI   PO411492   2.465   9.167   5.042  0.1291  0.0589 -0.3659
  719loPI   GL111493   2.526   9.289   5.358 -0.0561  0.0582  0.0357
  719loPI   GL211494   2.267   9.589   5.333  0.0834  0.1168  0.2088
  719loPI   C1A11495   2.601   9.283   5.830  0.0372 -0.0640 -0.1189
  719loPI   C2A11496   2.672   9.352   6.183  0.1485  0.0331 -0.1264
  719loPI   C3A11497   2.487   9.263   6.612 -0.3654 -0.1448  0.2143
  719loPI   C4A11498   2.338   9.336   7.082  0.2537  0.2480 -0.1685
  719loPI   C5A11499   2.470   9.535   7.387 -0.0306 -0.0301  0.1948
  719loPI   C6A11500   2.778   9.639   7.777 -0.1344  0.1852 -0.2269
  719loPI   C1B11501   2.113   9.299   5.678  0.2130  0.0194  0.2686
  719loPI   C2B11502   2.137   9.206   6.057 -0.0464 -0.3035 -0.3688
  719loPI   C3B11503   2.009   9.391   6.500 -0.1304 -0.1924  0.0913
  719loPI   C4B11504   1.849   9.528   6.862  0.0675 -0.1449  0.3555
  720loPI    C111505  11.064  12.759   4.864 -0.0438 -0.0819  0.0706
  720loPI    C211506  11.302  13.074   4.799 -0.0771 -0.0299  0.1976
  720loPI    C311507  11.428  12.706   4.708 -0.0826  0.0302 -0.0604
  720loPI   PO411508  11.065  12.792   5.161  0.2790 -0.0304  0.3819
  720loPI   GL111509  10.851  12.863   5.463 -0.0296  0.2624 -0.0305
  720loPI   GL211510  10.637  13.015   5.516 -0.0855  0.1632 -0.0553
  720loPI   C1A11511  11.023  13.046   5.831  0.2630  0.1624  0.4367
  720loPI   C2A11512  10.949  13.003   6.200 -0.0048 -0.1263  0.2972
  720loPI   C3A11513  10.943  13.081   6.624 -0.3438  0.2265 -0.0210
  720loPI   C4A11514  10.903  12.976   7.086 -0.0933 -0.0343  0.0356
  720loPI   C5A11515  10.812  12.961   7.476  0.2764 -0.0410 -0.0478
  720loPI   C6A11516  10.829  12.881   7.961 -0.0416  0.2609 -0.1122
  720loPI   C1B11517  10.492  13.068   5.949  0.1108 -0.0623 -0.0927
  720loPI   C2B11518  10.422  13.142   6.339  0.0799  0.5737 -0.0667
  720loPI   C3B11519  10.441  13.104   6.809 -0.2604 -0.2940  0.0068
  720loPI   C4B11520  10.431  13.052   7.160 -0.2493 -0.0835 -0.0963
  721loPI    C111521   1.149   1.917   4.684 -0.0352 -0.0407 -0.2655
  721loPI    C211522   0.848   2.134   4.535 -0.2351 -0.0780  0.0761
  721loPI    C311523   1.053   1.888   4.296 -0.2593  0.1920 -0.2300
  721loPI   PO411524   1.260   2.159   4.846  0.0886  0.0947 -0.1047
  721loPI   GL111525   1.320   2.223   5.344  0.1369 -0.0341  0.1616
  721loPI   GL211526   1.635   1.927   5.442  0.2567 -0.2196  0.1379
  721loPI   C1A11527   1.204   2.105   5.729 -0.1278 -0.0991 -0.1772
  721loPI   C2A11528   1.448   2.073   6.170 -0.0524 -0.0933 -0.2573
  721loPI   C3A11529   1.393   2.149   6.548 -0.0363  0.2364  0.0203
  721loPI   C4A11530   1.387   2.241   7.029  0.1549 -0.0104 -0.1385
  721loPI   C5A11531   1.397   2.642   7.223  0.1307  0.0511  0.1154
  721loPI   C6A11532   1.278   3.106   7.286 -0.1120  0.2238  0.1543
  721loPI   C1B11533   1.751   2.047   5.809 -0.1493 -0.1453 -0.3873
  721loPI   C2B11534   1.746   2.452   5.993 -0.1449 -0.0848  0.2417
  721loPI   C3B11535   1.447   2.591   6.354 -0.0580  0.0379 -0.1339
  721loPI   C4B11536   1.366   2.651   6.763 -0.1439 -0.0981  0.0278
  722loPI    C111537   4.291  12.557   5.261 -0.1918 -0.1868  0.0475
  722loPI    C211538   4.211  12.440   4.887  0.0647  0.0704 -0.0920
  722loPI    C311539   4.541  12.653   4.964 -0.0047  0.0519  0.2766
  722loPI   PO411540   4.358  12.393   5.452 -0.0933 -0.3220  0.3231
  722loPI   GL111541   4.270  12.558   5.841  0.0179  0.0275  0.1686
  722loPI   GL211542   4.070  12.694   5.745 -0.1354 -0.0672 -0.0893
  722loPI   C1A11543   4.247  12.328   6.109  0.2027  0.1334 -0.1867
  722loPI   C2A11544   4.565  12.127   6.368  0.0148  0.1298 -0.0760
  722loPI   C3A11545   4.651  11.872   6.746 -0.0906  0.2795  0.1776
  722loPI   C4A11546   4.634  11.385   6.970 -0.1741 -0.3037 -0.3604
  722loPI   C5A11547   4.731  11.008   6.795  0.0801 -0.1762 -0.2036
  722loPI   C6A11548   4.978  10.760   6.496  0.2663 -0.4131 -0.0790
  722loPI   C1B11549   4.066  12.893   6.193 -0.2211 -0.0623  0.2065
  722loPI   C2B11550   4.123  12.890   6.623  0.1602  0.0497 -0.0965
  722loPI   C3B11551   3.810  12.940   6.928 -0.0394  0.1101 -0.0445
  722loPI   C4B11552   3.487  12.750   7.109 -0.2302 -0.0131 -0.2765
  723loPI    C111553  16.613   9.075   5.192 -0.0392  0.0217 -0.0198
  723loPI    C211554  16.346   8.889   4.960  0.0858  0.1668 -0.2848
  723loPI    C311555  16.545   8.684   5.240 -0.4521  0.0992  0.0615
  723loPI   PO411556  16.399   9.231   5.386 -0.0438  0.0396  0.0181
  723loPI   GL111557  16.438   9.398   5.752  0.0558  0.1161 -0.0070
  723loPI   GL211558  16.324   9.206   5.846  0.0186 -0.0203 -0.3567
  723loPI   C1A11559  16.623   9.489   6.178  0.0031 -0.1819 -0.1278
  723loPI   C2A11560  16.508   9.517   6.647  0.0889 -0.0966  0.1775
  723loPI   C3A11561  16.401   9.429   7.015 -0.0822  0.1511 -0.0249
  723loPI   C4A11562  16.411   9.546   7.419  0.0068  0.0069 -0.0593
  723loPI   C5A11563  16.259   9.787   7.846  0.2640  0.2056  0.1952
  723loPI   C6A11564  16.124   9.588   8.246  0.2232 -0.3327  0.1613
  723loPI   C1B11565  16.234   9.031   6.158 -0.3846  0.0747  0.0228
  723loPI   C2B11566  16.065   9.045   6.525 -0.0461 -0.1945  0.0874
  723loPI   C3B11567  15.989   9.136   6.920  0.2712 -0.0497  0.0860
  723loPI   C4B11568  16.109   9.068   7.374  0.1388 -0.0281  0.0866
  724loPI    C111569  10.930   2.430   4.502 -0.1151 -0.0510  0.1042
  724loPI    C211570  10.834   2.080   4.334  0.1582 -0.1515  0.1517
  724loPI    C311571  11.037   2.354   4.124  0.0392 -0.0643  0.1496
  724loPI   PO411572  10.777   2.449   4.715  0.0290  0.2355  0.0565
  724loPI   GL111573  10.489   2.725   5.017  0.0978  0.1182  0.4988
  724loPI   GL211574  10.687   2.911   5.215  0.0287 -0.0722 -0.1471
  724loPI   C1A11575  10.357   2.652   5.442 -0.3371 -0.1594  0.1217
  724loPI   C2A11576  10.279   2.418   5.869 -0.1046 -0.0719  0.2290
  724loPI   C3A11577  10.330   2.452   6.287  0.1268 -0.1527  0.1565
  724loPI   C4A11578  10.428   2.507   6.759 -0.1300 -0.2569  0.1056
  724loPI   C5A11579  10.553   2.377   7.192 -0.0540 -0.1180 -0.2359
  724loPI   C6A11580  10.665   2.025   7.673 -0.0715  0.1323 -0.0175
  724loPI   C1B11581  10.750   2.889   5.623  0.2823 -0.0153 -0.1173
  724loPI   C2B11582  10.695   2.637   5.954 -0.0066  0.0524  0.0186
  724loPI   C3B11583  10.719   2.727   6.408  0.0542  0.0847  0.1482
  724loPI   C4B11584  10.973   2.745   6.643 -0.0473 -0.0913  0.1114
  725loPI    C111585  16.375  12.698   5.053 -0.0897  0.1186  0.0353
  725loPI    C211586  16.019  12.734   5.233 -0.0337  0.2915  0.1131
  725loPI    C311587  16.047  12.773   4.835 -0.1643 -0.1322  0.0578
  725loPI   PO411588  16.475  12.539   5.211 -0.2249  0.1956 -0.1435
  725loPI   GL111589  16.458  12.560   5.652  0.1790 -0.1215 -0.0422
  725loPI   GL211590  16.825  12.644   5.817 -0.0375 -0.0929  0.2470
  725loPI   C1A11591  16.374  12.343   5.943 -0.2305 -0.2895 -0.1953
  725loPI   C2A11592  16.291  12.254   6.315  0.0449  0.1188  0.0387
  725loPI   C3A11593  16.324  12.358   6.653  0.1041  0.0833 -0.0901
  725loPI   C4A11594  16.317  12.338   7.021  0.3996  0.2023  0.0890
  725loPI   C5A11595  16.084  12.341   7.390  0.1588  0.0041 -0.0011
  725loPI   C6A11596  15.785  12.226   7.726 -0.2202  0.0780  0.0852
  725loPI   C1B11597  16.655  12.661   6.162  0.0803  0.0631 -0.0431
  725loPI   C2B11598  16.699  12.698   6.509  0.0733  0.0731 -0.2103
  725loPI   C3B11599  16.825  12.707   6.910  0.1736  0.0768  0.2085
  725loPI   C4B11600  16.625  12.567   7.298 -0.1131  0.3904 -0.0364
  726loPI    C111601   7.295   0.399   4.657  0.0234 -0.2107 -0.0683
  726loPI    C211602   7.353   0.056   4.460  0.0746 -0.1916 -0.0867
  726loPI    C311603   7.548   0.386   4.347  0.0769 -0.1722 -0.0265
  726loPI   PO411604   7.266   0.384   5.000  0.0015 -0.1224  0.1798
  726loPI   GL111605   7.157   0.379   5.371  0.0818 -0.3069  0.2368
  726loPI   GL211606   7.321   0.103   5.458 -0.3081  0.0276  0.1954
  726loPI   C1A11607   7.077   0.640   5.793 -0.3574 -0.0403  0.1546
  726loPI   C2A11608   7.207   0.706   6.163  0.0181  0.0826  0.2987
  726loPI   C3A11609   7.073   0.621   6.522 -0.1203 -0.2453  0.2284
  726loPI   C4A11610   6.876   0.147   6.657 -0.1604  0.1785 -0.1297
  726loPI   C5A11611   6.853  -0.054   7.048 -0.0925 -0.0720 -0.0584
  726loPI   C6A11612   7.102  -0.301   7.235 -0.2945  0.1287 -0.2443
  726loPI   C1B11613   7.213   0.101   5.927  0.0121 -0.1655  0.0655
  726loPI   C2B11614   6.890   0.266   6.200 -0.1039  0.1293  0.0369
  726loPI   C3B11615   6.675   0.632   6.292 -0.0737 -0.2614 -0.3189
  726loPI   C4B11616   6.761   1.063   6.203  0.3066  0.1169  0.2623
  727loPI    C111617   5.713   6.093   4.519 -0.0144 -0.1770  0.0401
  727loPI    C211618   5.629   6.119   4.129  0.0634  0.3222  0.0497
  727loPI    C311619   5.953   6.303   4.276  0.0162  0.1653  0.3564
  727loPI   PO411620   5.388   6.101   4.621 -0.0370 -0.0539  0.1026
  727loPI   GL111621   5.289   6.059   4.960  0.2968 -0.0463 -0.2222
  727loPI   GL211622   5.187   6.362   5.099  0.3503 -0.0674  0.1697
  727loPI   C1A11623   5.492   6.104   5.433 -0.2438  0.0752  0.4900
  727loPI   C2A11624   5.555   6.055   5.804  0.1933  0.0477  0.0440
  727loPI   C3A11625   5.535   6.006   6.175 -0.0442  0.2307 -0.0151
  727loPI   C4A11626   5.501   5.980   6.602 -0.0695 -0.0449 -0.1390
  727loPI   C5A11627   5.424   6.040   7.012 -0.1263 -0.2424 -0.1566
  727loPI   C6A11628   5.390   6.291   7.377  0.0208 -0.2501 -0.0096
  727loPI   C1B11629   5.084   6.563   5.490  0.1910  0.0389 -0.1396
  727loPI   C2B11630   5.097   6.355   5.898  0.0529 -0.1230  0.1793
  727loPI   C3B11631   5.131   6.304   6.326  0.0684 -0.1882 -0.2769
  727loPI   C4B11632   5.080   6.220   6.762  0.1729 -0.1197  0.3286
  728loPI    C111633  10.185   2.165   4.454  0.1401 -0.0321 -0.0646
  728loPI    C211634  10.010   2.455   4.242 -0.1890 -0.1458  0.0456
  728loPI    C311635  10.028   2.083   4.096 -0.1422 -0.1590  0.0844
  728loPI   PO411636  10.105   2.134   4.734  0.1086 -0.1029 -0.1062
  728loPI   GL111637  10.120   2.382   5.141 -0.3077  0.1729  0.1339
  728loPI   GL211638   9.869   2.281   5.261 -0.0230 -0.0390  0.1609
  728loPI   C1A11639  10.272   2.034   5.450 -0.1988  0.0257 -0.0521
  728loPI   C2A11640  10.249   1.917   5.903  0.4030 -0.1726 -0.0831
  728loPI   C3A11641  10.441   1.934   6.287  0.0817 -0.0813  0.1332
  728loPI   C4A11642  10.487   1.983   6.749  0.0554  0.0725 -0.0716
  728loPI   C5A11643  10.501   1.874   7.239  0.0016  0.2767 -0.0205
  728loPI   C6A11644  10.836   1.550   7.493  0.2082  0.0357 -0.2995
  728loPI   C1B11645   9.779   2.231   5.787  0.0039 -0.1244 -0.1378
  728loPI   C2B11646   9.890   2.262   6.210  0.4573 -0.0199  0.1854
  728loPI   C3B11647  10.013   2.243   6.658 -0.2012 -0.0278 -0.0290
  728loPI   C4B11648  10.058   2.243   7.086  0.1933 -0.0644  0.1296
  729loPI    C111649   5.163   9.203   5.027  0.2166  0.0588 -0.1466
  729loPI    C211650   4.950   9.350   4.722  0.1266  0.0084 -0.1083
  729loPI    C311651   5.114   8.986   4.694  0.3201  0.1007 -0.1896
  729loPI   PO411652   5.043   9.341   5.252  0.0072 -0.0696 -0.1818
  729loPI   GL111653   4.998   9.289   5.674 -0.1071 -0.3932  0.2502
  729loPI   GL211654   5.223   9.484   5.813 -0.2413 -0.1705  0.0051
  729loPI   C1A11655   4.837   9.151   5.987 -0.0027 -0.2801 -0.1857
  729loPI   C2A11656   4.560   9.106   6.180  0.4886 -0.2474  0.0508
  729loPI   C3A11657   4.453   8.774   6.495  0.0057  0.0149 -0.1469
  729loPI   C4A11658   4.356   8.704   6.962 -0.0155 -0.0387  0.0182
  729loPI   C5A11659   4.140   8.642   7.302 -0.1221 -0.1201  0.2091
  729loPI   C6A11660   3.666   8.765   7.327  0.0908 -0.1112  0.0309
  729loPI   C1B11661   5.249   9.430   6.227 -0.1245 -0.1758  0.1439
  729loPI   C2B11662   5.382   9.211   6.627  0.0422 -0.1208 -0.1078
  729loPI   C3B11663   5.234   8.991   7.103  0.2694  0.2440 -0.0787
  729loPI   C4B11664   5.073   8.734   7.528  0.0537 -0.1597  0.1155
  730loPI    C111665   5.365  14.321   4.898  0.5221  0.3742  0.0340
  730loPI    C211666   5.363  14.140   4.542  0.0435  0.0965  0.1694
  730loPI    C311667   5.294  14.533   4.567 -0.4637  0.0266 -0.0092
  730loPI   PO411668   5.135  14.181   4.969  0.0347  0.0948 -0.1865
  730loPI   GL111669   5.131  14.077   5.316  0.0967  0.0873 -0.1233
  730loPI   GL211670   4.841  13.926   5.276  0.0784 -0.1665  0.0026
  730loPI   C1A11671   5.211  14.090   5.747 -0.1684 -0.1514 -0.1069
  730loPI   C2A11672   5.330  14.167   6.108 -0.0306 -0.1773  0.1735
  730loPI   C3A11673   5.411  14.430   6.425 -0.1007 -0.5255 -0.1023
  730loPI   C4A11674   5.635  14.638   6.764 -0.0181 -0.0312  0.1954
  730loPI   C5A11675   5.452  14.831   7.130  0.2831 -0.0274 -0.2670
  730loPI   C6A11676   5.300  15.182   7.456  0.0610 -0.2941 -0.2515
  730loPI   C1B11677   4.716  14.046   5.693  0.3092 -0.0181  0.2040
  730loPI   C2B11678   4.703  14.282   6.048  0.0101 -0.0334 -0.2651
  730loPI   C3B11679   4.839  14.463   6.378  0.1374  0.0082  0.2387
  730loPI   C4B11680   5.015  14.637   6.788 -0.0655  0.0824 -0.2490
  731loPI    C111681   0.070   1.061   4.713  0.0896 -0.0198  0.0767
  731loPI    C211682   0.046   0.983   4.321  0.0326 -0.0977  0.0953
  731loPI    C311683   0.028   1.361   4.452  0.1300 -0.0657  0.0172
  731loPI   PO411684   0.226   0.818   4.769 -0.0213 -0.0187 -0.0309
  731loPI   GL111685   0.349   0.618   5.148 -0.2388 -0.1843 -0.2212
  731loPI   GL211686   0.116   0.471   5.266 -0.2271  0.0639  0.2446
  731loPI   C1A11687   0.594   0.508   5.495 -0.4816 -0.3052  0.1913
  731loPI   C2A11688   0.735   0.438   5.865 -0.0539 -0.0938 -0.1049
  731loPI   C3A11689   0.829   0.400   6.253  0.2777  0.0366 -0.1549
  731loPI   C4A11690   0.902   0.436   6.638 -0.0028  0.2301  0.2670
  731loPI   C5A11691   0.907   0.402   7.087  0.1093  0.1403  0.4006
  731loPI   C6A11692   0.594   0.494   7.433 -0.2138 -0.1567 -0.1481
  731loPI   C1B11693   0.162   0.596   5.740 -0.0479  0.0617 -0.0335
  731loPI   C2B11694   0.344   0.656   6.116  0.0319 -0.2172 -0.1175
  731loPI   C3B11695   0.431   0.598   6.485 -0.0709 -0.1046  0.0567
  731loPI   C4B11696   0.456   0.545   6.948 -0.1691  0.1904  0.0474
  732loPI    C111697  17.362  17.991   5.068 -0.1603  0.0506 -0.0137
  732loPI    C211698  17.114  17.699   4.952 -0.1375 -0.0185  0.1105
  732loPI    C311699  17.105  18.054   4.767 -0.1099 -0.1232 -0.0940
  732loPI   PO411700  17.379  18.086   5.263 -0.1307 -0.4226 -0.2031
  732loPI   GL111701  17.422  18.359   5.599  0.1042  0.1254 -0.2109
  732loPI   GL211702  17.242  18.777   5.558  0.1760  0.0405 -0.3122
  732loPI   C1A11703  17.331  18.498   6.074 -0.1493  0.1001 -0.0076
  732loPI   C2A11704  17.478  18.433   6.489  0.0129  0.3184 -0.0926
  732loPI   C3A11705  17.591  18.528   6.939  0.1229 -0.1603 -0.2403
  732loPI   C4A11706  17.720  18.386   7.436 -0.1388 -0.2417  0.0136
  732loPI   C5A11707  17.630  18.542   7.895 -0.0326  0.2545 -0.1186
  732loPI   C6A11708  17.301  18.730   8.155 -0.1041 -0.1768  0.4260
  732loPI   C1B11709  17.171  18.968   5.989  0.0228 -0.0374  0.1313
  732loPI   C2B11710  17.315  18.926   6.321 -0.1801  0.0169  0.0270
  732loPI   C3B11711  17.478  18.935   6.760 -0.0333  0.1298  0.2775
  732loPI   C4B11712  17.527  19.012   7.232 -0.3692 -0.3956 -0.0107
  733loPI    C111713   3.518  10.116   5.273 -0.1349 -0.0894 -0.0788
  733loPI    C211714   3.779  10.188   4.978 -0.1085  0.0184 -0.0295
  733loPI    C311715   3.856   9.904   5.249 -0.0185  0.0835  0.0136
  733loPI   PO411716   3.412  10.331   5.411 -0.0486  0.1331  0.0328
  733loPI   GL111717   3.593  10.569   5.802  0.0955  0.1440 -0.1692
  733loPI   GL211718   3.243  10.579   5.804 -0.2691  0.1354 -0.0839
  733loPI   C1A11719   3.518  10.261   6.227 -0.0634 -0.0469 -0.0817
  733loPI   C2A11720   3.612  10.181   6.676  0.0310  0.1295  0.0203
  733loPI   C3A11721   3.712  10.165   7.120  0.0371 -0.0220  0.0435
  733loPI   C4A11722   4.072  10.221   7.330  0.2197  0.3552  0.2371
  733loPI   C5A11723   4.250  10.282   7.702 -0.2607 -0.0788 -0.0092
  733loPI   C6A11724   4.375  10.282   8.155  0.0393  0.0426 -0.0404
  733loPI   C1B11725   3.001  10.335   6.178 -0.0173 -0.1512 -0.1419
  733loPI   C2B11726   3.032  10.169   6.530  0.0416  0.0134 -0.1562
  733loPI   C3B11727   3.026  10.292   7.065  0.2086  0.2732 -0.2281
  733loPI   C4B11728   3.332  10.255   7.505 -0.1699  0.3222 -0.0121
  734loPI    C111729  13.068  11.887   4.985 -0.0658  0.0848  0.1586
  734loPI    C211730  13.465  11.921   4.956 -0.0750  0.1056  0.0520
  734loPI    C311731  13.235  12.000   4.639 -0.1293 -0.4516 -0.0577
  734loPI   PO411732  13.041  11.965   5.251  0.0906  0.1449 -0.0182
  734loPI   GL111733  12.808  11.987   5.563 -0.3598 -0.0361 -0.0088
  734loPI   GL211734  13.095  12.056   5.690  0.2123  0.0027  0.0112
  734loPI   C1A11735  12.480  11.972   5.907  0.1149  0.0254 -0.2935
  734loPI   C2A11736  12.482  12.068   6.312 -0.1487 -0.3226  0.2314
  734loPI   C3A11737  12.648  12.024   6.634  0.0866 -0.0081  0.0407
  734loPI   C4A11738  12.786  11.899   6.991 -0.2075 -0.1275  0.3359
  734loPI   C5A11739  13.014  11.755   7.347 -0.0038 -0.3052 -0.0934
  734loPI   C6A11740  13.371  11.654   7.536  0.2350  0.2148 -0.0554
  734loPI   C1B11741  13.000  11.941   6.125  0.5169 -0.3803 -0.0995
  734loPI   C2B11742  13.284  11.946   6.403  0.1603 -0.0029  0.1382
  734loPI   C3B11743  13.524  11.652   6.676  0.3236 -0.3002 -0.2618
  734loPI   C4B11744  13.335  11.447   7.071  0.0127 -0.0362 -0.0789
  735loPI    C111745  10.585  11.181   5.060  0.2693 -0.3268 -0.0751
  735loPI    C211746  10.480  10.928   5.351 -0.0920  0.0370  0.1217
  735loPI    C311747  10.378  10.850   4.972 -0.2992 -0.0576  0.1951
  735loPI   PO411748  10.754  11.321   5.207 -0.2665  0.0775  0.2173
  735loPI   GL111749  10.885  11.452   5.527 -0.3976  0.0715 -0.0802
  735loPI   GL211750  10.899  11.061   5.675 -0.1108  0.1023  0.2506
  735loPI   C1A11751  11.139  11.596   5.845 -0.0834  0.0644 -0.0941
  735loPI   C2A11752  11.174  11.630   6.301  0.0273  0.1078  0.0957
  735loPI   C3A11753  11.135  11.642   6.737 -0.3605 -0.2307 -0.0227
  735loPI   C4A11754  11.223  11.645   7.161 -0.2251  0.2539  0.1659
  735loPI   C5A11755  11.199  11.542   7.604 -0.1497  0.0449 -0.1909
  735loPI   C6A11756  11.224  11.213   7.924  0.0278  0.0580 -0.0905
  735loPI   C1B11757  10.880  11.193   6.084  0.0937  0.1007 -0.0893
  735loPI   C2B11758  10.901  11.154   6.525 -0.0136  0.2039 -0.1414
  735loPI   C3B11759  10.967  11.174   7.061  0.1302  0.0407  0.1710
  735loPI   C4B11760  11.240  11.166   7.400  0.0712  0.2390 -0.2326
  736loPI    C111761  10.177  17.918   4.904 -0.0536 -0.0592  0.1122
  736loPI    C211762  10.040  17.956   5.278 -0.1505  0.1059  0.0609
  736loPI    C311763   9.829  18.101   4.972  0.0824  0.2587 -0.0303
  736loPI   PO411764  10.401  18.023   4.915  0.2240 -0.0173 -0.1023
  736loPI   GL111765  10.544  18.112   5.263  0.0953 -0.3241  0.0600
  736loPI   GL211766  10.717  18.363   5.358  0.2833 -0.3066 -0.0115
  736loPI   C1A11767  10.317  18.242   5.595 -0.2763  0.1791  0.2294
  736loPI   C2A11768  10.072  18.040   5.830 -0.0953 -0.2887  0.1206
  736loPI   C3A11769  10.055  18.089   6.326 -0.0358 -0.1436  0.1220
  736loPI   C4A11770   9.984  18.212   6.691 -0.1398  0.0236 -0.2520
  736loPI   C5A11771   9.968  18.653   7.025  0.0360  0.1507  0.0276
  736loPI   C6A11772   9.707  19.054   7.114  0.0529 -0.0093  0.1495
  736loPI   C1B11773  10.721  18.357   5.881 -0.1519  0.1447  0.2741
  736loPI   C2B11774  10.679  18.576   6.262  0.3012 -0.0930 -0.0286
  736loPI   C3B11775  10.309  18.679   6.589  0.3081 -0.1640 -0.4164
  736loPI   C4B11776  10.267  19.081   6.870 -0.0057  0.1022  0.0086
  737loPI    C111777  11.112   6.776   5.293 -0.0397 -0.2326  0.1804
  737loPI    C211778  10.720   6.699   5.291 -0.0844 -0.0127 -0.0627
  737loPI    C311779  10.902   6.817   4.955  0.1188  0.2346  0.1307
  737loPI   PO411780  11.195   6.488   5.408 -0.0228  0.1684  0.0448
  737loPI   GL111781  11.418   6.485   5.731 -0.0922 -0.1583  0.0271
  737loPI   GL211782  11.532   6.867   5.681  0.0834 -0.0819 -0.1015
  737loPI   C1A11783  11.348   6.138   6.088 -0.1980 -0.1005  0.2238
  737loPI   C2A11784  11.298   6.082   6.445 -0.0154 -0.2122 -0.1118
  737loPI   C3A11785  11.251   6.201   6.820  0.0050 -0.0531 -0.2850
  737loPI   C4A11786  11.318   6.067   7.295 -0.0753 -0.1874  0.1015
  737loPI   C5A11787  11.248   5.964   7.641  0.4593  0.0092 -0.0429
  737loPI   C6A11788  11.038   6.121   7.970  0.1096 -0.0096  0.0763
  737loPI   C1B11789  11.844   6.950   5.972 -0.0261  0.1260 -0.0033
  737loPI   C2B11790  11.983   7.208   6.385  0.1286  0.2904 -0.1047
  737loPI   C3B11791  11.772   7.448   6.704 -0.0412 -0.2060 -0.1906
  737loPI   C4B11792  11.574   7.607   6.951  0.0327 -0.1623  0.3086
  738loPI    C111793  16.877   5.396   5.355  0.0474 -0.0446  0.0963
  738loPI    C211794  17.179   5.438   5.097  0.0804 -0.1771  0.1123
  738loPI    C311795  16.833   5.627   5.032  0.0374 -0.3274 -0.1086
  738loPI   PO411796  17.041   5.400   5.607  0.1323 -0.3000 -0.0279
  738loPI   GL111797  16.950   5.635   6.078  0.2780  0.1969  0.0575
  738loPI   GL211798  16.931   5.294   6.097 -0.0316 -0.0320  0.0147
  738loPI   C1A11799  16.872   5.707   6.508  0.1075  0.0691  0.2977
  738loPI   C2A11800  16.829   5.743   7.000  0.0685 -0.0526  0.2110
  738loPI   C3A11801  17.057   5.626   7.430  0.0753  0.0964 -0.3171
  738loPI   C4A11802  17.360   5.716   7.767 -0.1002  0.2799  0.2300
  738loPI   C5A11803  17.693   5.679   8.024  0.0136  0.2346  0.2505
  738loPI   C6A11804  18.142   5.761   7.948  0.0170 -0.0990  0.0433
  738loPI   C1B11805  17.023   4.940   6.371 -0.0374  0.0148 -0.0536
  738loPI   C2B11806  17.043   4.766   6.820 -0.1393 -0.0030  0.3290
  738loPI   C3B11807  17.239   4.605   7.188  0.0525  0.2878 -0.1201
  738loPI   C4B11808  17.208   4.741   7.579  0.2819 -0.0228 -0.0292
  739loPI    C111809  11.657   1.495   4.535 -0.0242 -0.2333  0.3495
  739loPI    C211810  11.814   1.208   4.305  0.0721  0.0346  0.0737
  739loPI    C311811  11.565   1.476   4.146 -0.1585  0.0001  0.3683
  739loPI   PO411812  11.574   1.443   4.771  0.1166  0.0499  0.1035
  739loPI   GL111813  11.503   1.418   5.236  0.1253 -0.1703  0.2270
  739loPI   GL211814  11.193   1.573   5.203 -0.0515 -0.0252 -0.0278
  739loPI   C1A11815  11.297   1.518   5.660 -0.1319 -0.0027 -0.3333
  739loPI   C2A11816  11.348   1.327   6.007 -0.0936  0.0263  0.1241
  739loPI   C3A11817  11.416   1.525   6.353  0.0375  0.0916  0.0884
  739loPI   C4A11818  11.350   1.458   6.765 -0.2535 -0.3043 -0.0276
  739loPI   C5A11819  11.271   1.326   7.258 -0.0278 -0.0653 -0.3241
  739loPI   C6A11820  11.552   1.101   7.493 -0.0251 -0.0439  0.0076
  739loPI   C1B11821  11.151   1.982   5.523 -0.0415 -0.3940  0.3881
  739loPI   C2B11822  11.251   2.033   5.914 -0.1887 -0.1025  0.2011
  739loPI   C3B11823  11.288   2.038   6.371  0.3379 -0.2355 -0.0814
  739loPI   C4B11824  11.436   2.010   6.771  0.2321 -0.1714  0.1944
  740loPI    C111825  18.075  16.559   4.984  0.3202 -0.3466  0.0133
  740loPI    C211826  18.242  16.860   4.780  0.1232 -0.0745  0.2436
  740loPI    C311827  18.039  16.574   4.586  0.1409  0.0495  0.0393
  740loPI   PO411828  17.958  16.711   5.204 -0.5000  0.1344 -0.1409
  740loPI   GL111829  17.799  16.603   5.569 -0.2547 -0.4913  0.1434
  740loPI   GL211830  17.855  16.342   5.588  0.0006  0.1362 -0.0194
  740loPI   C1A11831  17.654  16.927   5.778 -0.0537 -0.2053 -0.1124
  740loPI   C2A11832  17.730  16.940   6.285 -0.1602 -0.0294  0.2165
  740loPI   C3A11833  17.580  16.829   6.663  0.3478  0.2615  0.4689
  740loPI   C4A11834  17.420  16.799   7.101 -0.2762 -0.0791 -0.0001
  740loPI   C5A11835  17.375  16.779   7.544 -0.1970 -0.0617 -0.1638
  740loPI   C6A11836  17.107  16.828   8.053  0.2039 -0.1725 -0.1147
  740loPI   C1B11837  17.872  16.426   6.060 -0.0347 -0.2190 -0.0846
  740loPI   C2B11838  17.890  16.466   6.501  0.0461  0.0993  0.1391
  740loPI   C3B11839  17.931  16.546   6.902  0.2062  0.0927 -0.1003
  740loPI   C4B11840  17.917  16.536   7.332 -0.1346 -0.1897 -0.1762
  741loPI    C111841  17.320  14.235   5.041 -0.0037 -0.1330 -0.2034
  741loPI    C211842  17.071  13.964   4.886 -0.0205 -0.1405 -0.1633
  741loPI    C311843  17.442  13.858   4.991 -0.1401 -0.2328  0.1796
  741loPI   PO411844  17.240  14.277   5.316 -0.1720  0.1388  0.1969
  741loPI   GL111845  17.154  14.278   5.695 -0.0444 -0.1570  0.1883
  741loPI   GL211846  17.371  14.283   5.884 -0.1884  0.1526  0.4104
  741loPI   C1A11847  16.868  14.363   6.019  0.2503 -0.1311 -0.4045
  741loPI   C2A11848  16.657  14.024   6.236 -0.1813 -0.2045  0.2106
  741loPI   C3A11849  16.556  13.702   6.543 -0.0269 -0.1309  0.1648
  741loPI   C4A11850  16.600  13.682   7.009  0.0509  0.1917 -0.0288
  741loPI   C5A11851  16.758  13.636   7.393 -0.0966  0.0966 -0.0287
  741loPI   C6A11852  17.086  13.652   7.578  0.0255  0.2492 -0.2836
  741loPI   C1B11853  17.470  14.510   6.347 -0.0717  0.0499  0.2846
  741loPI   C2B11854  17.767  14.711   6.662  0.4025 -0.2304  0.3358
  741loPI   C3B11855  17.766  14.598   7.157  0.0674  0.2389  0.1991
  741loPI   C4B11856  18.045  14.673   7.624  0.0103  0.3733  0.0906
  742loPI    C111857   3.557   5.270   4.831  0.0812 -0.0448 -0.0484
  742loPI    C211858   3.418   5.264   4.456  0.1294 -0.1530 -0.0647
  742loPI    C311859   3.812   5.292   4.523  0.1298 -0.2492 -0.0244
  742loPI   PO411860   3.289   5.396   4.927 -0.1586  0.0952  0.1625
  742loPI   GL111861   3.401   5.442   5.328  0.0207  0.2500 -0.1065
  742loPI   GL211862   3.081   5.577   5.334 -0.0932  0.0932 -0.1939
  742loPI   C1A11863   3.187   5.312   5.724 -0.2119  0.1795 -0.1329
  742loPI   C2A11864   3.340   5.298   6.199 -0.1457 -0.2482  0.0780
  742loPI   C3A11865   3.301   5.228   6.624  0.1301 -0.1193 -0.1216
  742loPI   C4A11866   3.342   5.114   7.028  0.1911  0.1102 -0.0170
  742loPI   C5A11867   3.299   5.292   7.363  0.3705  0.2455 -0.1138
  742loPI   C6A11868   3.578   5.530   7.544  0.1013  0.0761 -0.2903
  742loPI   C1B11869   2.956   5.937   5.695 -0.3273  0.0182  0.2437
  742loPI   C2B11870   2.957   6.125   6.006  0.0197  0.2190 -0.1325
  742loPI   C3B11871   2.947   6.124   6.419  0.0754 -0.2448 -0.0608
  742loPI   C4B11872   2.868   6.099   6.868 -0.0396  0.3302 -0.2000
  743loPI    C111873   2.865   6.504   5.164 -0.0409  0.2845 -0.2737
  743loPI    C211874   2.882   6.426   4.772  0.2593 -0.0688 -0.1963
  743loPI    C311875   2.656   6.199   5.011  0.1574  0.0821 -0.1479
  743loPI   PO411876   2.952   6.727   5.221 -0.0081  0.1484 -0.3474
  743loPI   GL111877   3.290   6.804   5.509  0.2846  0.2398  0.0346
  743loPI   GL211878   3.454   6.821   5.269 -0.2174  0.1825 -0.1220
  743loPI   C1A11879   3.291   6.806   5.947  0.0775 -0.2306  0.0261
  743loPI   C2A11880   3.287   6.933   6.359  0.0635  0.0620 -0.3797
  743loPI   C3A11881   3.368   6.803   6.751 -0.0288 -0.2206 -0.2535
  743loPI   C4A11882   3.717   6.776   7.105  0.1515  0.0659  0.1043
  743loPI   C5A11883   3.803   6.405   7.331  0.1028  0.0170 -0.2576
  743loPI   C6A11884   3.643   5.920   7.209 -0.2879  0.1517 -0.0283
  743loPI   C1B11885   3.677   6.437   5.458  0.3664 -0.2852  0.0423
  743loPI   C2B11886   3.823   6.155   5.875  0.1910  0.1098 -0.0408
  743loPI   C3B11887   3.805   6.056   6.262 -0.0439  0.2402 -0.0674
  743loPI   C4B11888   3.773   5.952   6.660 -0.0327  0.1991 -0.1094
  744loPI    C111889  11.073  17.304   4.566 -0.0287 -0.3923 -0.0029
  744loPI    C211890  10.906  17.130   4.247  0.2499 -0.2157 -0.2499
  744loPI    C311891  11.110  17.472   4.205 -0.0506  0.0264  0.1834
  744loPI   PO411892  11.102  17.002   4.710 -0.1791  0.0195 -0.2343
  744loPI   GL111893  10.919  16.837   5.102 -0.0462  0.3010 -0.1411
  744loPI   GL211894  11.145  16.894   5.336 -0.0052  0.0790 -0.1244
  744loPI   C1A11895  10.754  16.662   5.550 -0.0166 -0.0539 -0.1397
  744loPI   C2A11896  10.739  16.635   6.026  0.2818  0.0145  0.0682
  744loPI   C3A11897  10.790  16.725   6.538  0.3169  0.1389  0.1564
  744loPI   C4A11898  10.775  16.843   6.973  0.1623  0.2153  0.2067
  744loPI   C5A11899  10.539  16.816   7.254 -0.1317 -0.1159 -0.1192
  744loPI   C6A11900  10.456  17.033   7.554 -0.0720 -0.2054 -0.0479
  744loPI   C1B11901  11.035  16.974   5.830 -0.4478 -0.0086 -0.0926
  744loPI   C2B11902  11.052  17.145   6.300 -0.3563  0.0668 -0.1818
  744loPI   C3B11903  11.014  17.159   6.710  0.0782 -0.0186 -0.0691
  744loPI   C4B11904  10.979  17.247   7.206  0.0210  0.0940  0.4276
  745loPI    C111905   4.362   7.992   4.799  0.4073  0.2316  0.1427
  745loPI    C211906   4.279   8.261   4.514  0.1423  0.0028 -0.0008
  745loPI    C311907   4.640   8.089   4.528  0.1155 -0.0809 -0.2814
  745loPI   PO411908   4.316   8.084   5.001 -0.1433  0.1740 -0.0610
  745loPI   GL111909   4.125   7.900   5.407  0.0766  0.0439 -0.0135
  745loPI   GL211910   4.156   8.177   5.539 -0.1392 -0.0660  0.1970
  745loPI   C1A11911   4.427   7.721   5.614 -0.2063  0.2301 -0.1143
  745loPI   C2A11912   4.657   7.728   5.969 -0.1211  0.1247  0.1815
  745loPI   C3A11913   4.656   7.716   6.406 -0.0383  0.1173 -0.0464
  745loPI   C4A11914   4.665   7.532   6.751  0.0761  0.0420 -0.2403
  745loPI   C5A11915   4.604   7.676   7.129 -0.0043  0.1573 -0.0332
  745loPI   C6A11916   4.674   7.953   7.527 -0.0990 -0.0587  0.2522
  745loPI   C1B11917   4.080   7.968   5.942  0.0919  0.0510  0.1062
  745loPI   C2B11918   4.105   7.902   6.344 -0.1071  0.1456  0.0008
  745loPI   C3B11919   4.195   7.825   6.822  0.2543 -0.0040  0.1434
  745loPI   C4B11920   4.012   7.692   7.169  0.1506 -0.1562  0.1369
  746loPI    C111921  16.422   5.358   5.083  0.0176 -0.1656 -0.0437
  746loPI    C211922  16.050   5.214   5.057 -0.0329 -0.0370 -0.0421
  746loPI    C311923  16.349   5.034   4.861 -0.0655 -0.2411  0.0923
  746loPI   PO411924  16.392   5.459   5.456  0.0419 -0.0222  0.4019
  746loPI   GL111925  16.537   5.405   5.836  0.1442  0.0744  0.3183
  746loPI   GL211926  16.210   5.363   5.922 -0.1009  0.1657  0.1919
  746loPI   C1A11927  16.521   5.440   6.358  0.0670  0.2820 -0.0379
  746loPI   C2A11928  16.450   5.463   6.777  0.1960  0.1182  0.2817
  746loPI   C3A11929  16.596   5.396   7.281  0.1931  0.1361 -0.2966
  746loPI   C4A11930  16.543   5.419   7.697  0.0482  0.0921 -0.1137
  746loPI   C5A11931  16.302   5.169   7.898 -0.0343  0.1683 -0.2261
  746loPI   C6A11932  16.023   4.831   7.912 -0.2938  0.2950  0.1455
  746loPI   C1B11933  16.031   5.221   6.301  0.0132 -0.2990  0.1690
  746loPI   C2B11934  15.691   5.379   6.579  0.0702 -0.1404  0.2265
  746loPI   C3B11935  15.337   5.262   6.810 -0.2255  0.1386  0.2269
  746loPI   C4B11936  15.198   4.876   6.928 -0.3238 -0.2405  0.1032
  747loPI    C111937  15.180  18.244   4.898 -0.0586  0.1094 -0.1500
  747loPI    C211938  15.404  17.960   4.729  0.0729  0.1750 -0.0873
  747loPI    C311939  15.126  18.150   4.513  0.0168  0.0326 -0.1419
  747loPI   PO411940  15.293  18.258   5.242 -0.0343 -0.0591 -0.4319
  747loPI   GL111941  15.125  18.224   5.599  0.2091  0.0434 -0.0401
  747loPI   GL211942  15.022  17.932   5.602 -0.0126  0.0167 -0.0149
  747loPI   C1A11943  15.084  18.507   6.032  0.0054 -0.2605  0.0900
  747loPI   C2A11944  15.097  18.762   6.360 -0.2534  0.0956 -0.0321
  747loPI   C3A11945  15.095  18.899   6.693  0.1071 -0.4321  0.0668
  747loPI   C4A11946  15.145  18.837   7.109  0.1652  0.0991  0.0315
  747loPI   C5A11947  15.452  18.688   7.335 -0.3134 -0.1533 -0.2716
  747loPI   C6A11948  15.659  18.483   7.607 -0.1857 -0.1889 -0.0859
  747loPI   C1B11949  15.109  17.826   5.952  0.0055  0.2784  0.1429
  747loPI   C2B11950  15.292  17.713   6.341 -0.2647  0.2640  0.3444
  747loPI   C3B11951  15.471  18.004   6.677  0.1466 -0.0763 -0.0809
  747loPI   C4B11952  15.838  18.206   6.623  0.1190 -0.0494  0.1066
  748loPI    C111953   2.848  10.095   4.711 -0.1340 -0.1818 -0.1757
  748loPI    C211954   3.051  10.282   4.422  0.2998 -0.2061  0.1041
  748loPI    C311955   2.974   9.891   4.391 -0.0530 -0.1200 -0.1836
  748loPI   PO411956   2.670  10.392   4.800  0.1774  0.0655 -0.3713
  748loPI   GL111957   2.605  10.530   5.256  0.2363 -0.0988 -0.0732
  748loPI   GL211958   2.342  10.544   5.435 -0.1787  0.4391 -0.2190
  748loPI   C1A11959   2.813  10.686   5.654  0.0684 -0.0445  0.0473
  748loPI   C2A11960   2.643  10.636   6.043 -0.2176 -0.2120 -0.3193
  748loPI   C3A11961   2.521  10.493   6.524 -0.0370 -0.1853 -0.0466
  748loPI   C4A11962   2.555  10.197   6.787  0.0402  0.1057  0.3481
  748loPI   C5A11963   2.529  10.206   7.213  0.2733 -0.0237 -0.0468
  748loPI   C6A11964   2.621  10.272   7.635 -0.0891 -0.1394  0.1183
  748loPI   C1B11965   2.232  10.687   5.774 -0.1631 -0.1097  0.1830
  748loPI   C2B11966   2.114  10.772   6.213 -0.0283  0.0095 -0.1502
  748loPI   C3B11967   2.128  10.759   6.698 -0.1133  0.2941 -0.2999
  748loPI   C4B11968   2.196  10.497   6.999  0.1383  0.0912 -0.0157
  749loPI    C111969  14.848  13.478   5.598 -0.0030  0.0351  0.2655
  749loPI    C211970  14.538  13.230   5.646 -0.0016 -0.0716 -0.2307
  749loPI    C311971  14.480  13.626   5.649 -0.1071 -0.0874 -0.1022
  749loPI   PO411972  14.989  13.432   5.766 -0.1295  0.0595 -0.0970
  749loPI   GL111973  15.002  13.637   6.136 -0.1900  0.1113 -0.4156
  749loPI   GL211974  15.195  13.896   6.236  0.0997 -0.0358 -0.0073
  749loPI   C1A11975  14.697  13.821   6.324 -0.1814 -0.1082  0.0096
  749loPI   C2A11976  14.458  13.774   6.733  0.2948  0.0783 -0.2843
  749loPI   C3A11977  14.254  13.714   7.048  0.1431  0.1326  0.0630
  749loPI   C4A11978  14.165  13.481   7.421  0.4968  0.1758  0.2382
  749loPI   C5A11979  14.219  13.386   7.884 -0.0095 -0.1535 -0.0639
  749loPI   C6A11980  13.948  13.552   8.194 -0.2662 -0.0414 -0.1221
  749loPI   C1B11981  15.183  13.824   6.686 -0.4097 -0.1306 -0.1539
  749loPI   C2B11982  14.895  13.890   6.932  0.5122 -0.3478 -0.1701
  749loPI   C3B11983  14.683  14.049   7.186  0.0806  0.0697  0.0526
  749loPI   C4B11984  14.263  13.941   7.491 -0.0693  0.1668  0.0629
  750loPI    C111985   5.610   9.904   5.042  0.3263 -0.0915  0.0460
  750loPI    C211986   5.799   9.987   4.699 -0.0236 -0.0628 -0.1445
  750loPI    C311987   5.409  10.071   4.738 -0.0234 -0.2094  0.2069
  750loPI   PO411988   5.699  10.032   5.279  0.3041 -0.0256  0.2448
  750loPI   GL111989   5.807  10.049   5.657 -0.1777 -0.5230  0.0707
  750loPI   GL211990   6.054  10.034   5.752 -0.0843 -0.2697  0.2284
  750loPI   C1A11991   5.748  10.270   6.075  0.0910  0.4880  0.1100
  750loPI   C2A11992   5.777  10.161   6.583  0.0077  0.2215  0.1876
  750loPI   C3A11993   5.578  10.191   6.998  0.1878  0.2483  0.1203
  750loPI   C4A11994   5.464   9.821   7.174  0.2032 -0.0824  0.2484
  750loPI   C5A11995   5.058   9.674   7.348 -0.1487  0.1348 -0.0053
  750loPI   C6A11996   4.992   9.434   7.016 -0.0888 -0.0239 -0.0114
  750loPI   C1B11997   6.219  10.085   6.231 -0.3444 -0.2203  0.0702
  750loPI   C2B11998   6.224  10.242   6.675  0.1493 -0.0128  0.3710
  750loPI   C3B11999   6.021  10.536   7.020 -0.0333 -0.0479  0.1190
  750loPI   C4B12000   6.073  10.731   7.444 -0.4735 -0.0819 -0.2598
  751loPI    C112001  11.813   9.985   4.906  0.1454  0.0376  0.1417
  751loPI    C212002  11.634   9.650   5.034 -0.1665  0.2065  0.1572
  751loPI    C312003  11.972   9.628   4.822 -0.0763 -0.1087  0.3278
  751loPI   PO412004  11.623  10.152   5.045 -0.0337  0.0639  0.3361
  751loPI   GL112005  11.254  10.367   5.445 -0.1230  0.1636 -0.0892
  751loPI   GL212006  11.630  10.330   5.515  0.1839 -0.2137 -0.0994
  751loPI   C1A12007  11.268  10.606   5.766  0.1378 -0.1400  0.0439
  751loPI   C2A12008  11.119  10.718   6.109 -0.0785 -0.0115 -0.1580
  751loPI   C3A12009  11.144  10.706   6.484  0.0698 -0.0777  0.1179
  751loPI   C4A12010  11.201  10.682   6.852  0.0340  0.3251  0.2686
  751loPI   C5A12011  11.361  10.651   7.195  0.0024 -0.1159 -0.3443
  751loPI   C6A12012  11.563  10.385   7.396  0.3134 -0.0328  0.0317
  751loPI   C1B12013  11.734  10.409   5.893 -0.0177  0.0307 -0.1026
  751loPI   C2B12014  11.653  10.719   6.076 -0.2348  0.1492  0.0189
  751loPI   C3B12015  11.625  10.712   6.530  0.0838 -0.0286  0.1802
  751loPI   C4B12016  11.777  10.527   6.920 -0.1060  0.0362 -0.1123
  752loPI    C112017  12.059   2.303   4.767 -0.1779 -0.0112 -0.1008
  752loPI    C212018  11.805   2.450   4.495 -0.0351  0.2784 -0.0812
  752loPI    C312019  12.128   2.661   4.602  0.2049 -0.0758 -0.0895
  752loPI   PO412020  12.029   2.192   5.060  0.1845  0.2523  0.0553
  752loPI   GL112021  12.012   2.373   5.460  0.1427  0.0869  0.1754
  752loPI   GL212022  12.257   2.430   5.441 -0.1749 -0.1783  0.2255
  752loPI   C1A12023  11.850   2.203   5.773 -0.0405 -0.3178  0.0697
  752loPI   C2A12024  11.711   2.229   6.162 -0.2239 -0.3926  0.1944
  752loPI   C3A12025  11.770   2.322   6.557 -0.1152 -0.0437  0.1576
  752loPI   C4A12026  11.827   2.175   7.003  0.1107 -0.1526  0.0580
  752loPI   C5A12027  11.931   2.020   7.480  0.0695  0.1064 -0.0430
  752loPI   C6A12028  12.100   2.140   7.837  0.0837  0.1954  0.0172
  752loPI   C1B12029  12.254   2.528   5.881  0.0603  0.1220  0.1346
  752loPI   C2B12030  12.222   2.583   6.309  0.0891  0.0263  0.1677
  752loPI   C3B12031  12.167   2.559   6.724  0.0499 -0.1460  0.1290
  752loPI   C4B12032  12.249   2.464   7.177 -0.0137  0.2164 -0.0637
  753loPI    C112033   6.208   5.189   4.592 -0.0014 -0.0038 -0.1019
  753loPI    C212034   6.457   5.441   4.406 -0.1185  0.2807  0.1185
  753loPI    C312035   6.237   5.184   4.193  0.2636  0.1152 -0.0866
  753loPI   PO412036   6.160   5.280   4.834  0.3072  0.2965 -0.2467
  753loPI   GL112037   6.394   5.185   5.226  0.0312 -0.1642 -0.2188
  753loPI   GL212038   6.204   4.938   5.212 -0.2045  0.0897 -0.2032
  753loPI   C1A12039   6.395   5.391   5.617  0.1819 -0.0062 -0.0971
  753loPI   C2A12040   6.401   5.409   6.057 -0.0088 -0.1795 -0.0631
  753loPI   C3A12041   6.446   5.364   6.508 -0.0083  0.0545 -0.1381
  753loPI   C4A12042   6.241   5.350   6.812 -0.1606  0.0523 -0.1671
  753loPI   C5A12043   6.229   5.376   7.231  0.1250  0.3076 -0.0432
  753loPI   C6A12044   5.991   5.532   7.633  0.0867  0.0653 -0.2779
  753loPI   C1B12045   6.382   4.873   5.617  0.3034  0.1897 -0.0965
  753loPI   C2B12046   6.386   4.920   6.090  0.1160  0.0925 -0.2299
  753loPI   C3B12047   6.350   4.890   6.485 -0.1049  0.1644  0.1167
  753loPI   C4B12048   6.388   4.882   6.919  0.0652  0.3556  0.0481
  754loPI    C112049   1.277   3.698   4.586  0.2359  0.1277 -0.2396
  754loPI    C212050   0.988   3.500   4.392  0.1654  0.0321 -0.0397
  754loPI    C312051   1.370   3.389   4.349  0.1491  0.0047 -0.1147
  754loPI   PO412052   1.262   3.595   4.925  0.0740  0.0704 -0.0269
  754loPI   GL112053   1.132   3.381   5.394  0.1248  0.0437  0.2193
  754loPI   GL212054   0.855   3.358   5.587  0.1070  0.4749 -0.0163
  754loPI   C1A12055   1.479   3.068   5.530 -0.0865  0.1238  0.0198
  754loPI   C2A12056   1.632   3.308   5.787 -0.0378 -0.3262  0.2818
  754loPI   C3A12057   1.924   3.428   5.984 -0.1685  0.2002 -0.0091
  754loPI   C4A12058   1.865   3.844   6.136  0.1376  0.1851  0.2311
  754loPI   C5A12059   1.841   4.293   6.328 -0.1826  0.1292  0.0766
  754loPI   C6A12060   2.068   4.501   6.546  0.2350 -0.0077 -0.3740
  754loPI   C1B12061   0.984   3.419   6.011 -0.2753  0.0750 -0.0414
  754loPI   C2B12062   0.858   3.351   6.477  0.4415  0.0440  0.3989
  754loPI   C3B12063   0.853   3.285   6.961  0.1792 -0.1336  0.0413
  754loPI   C4B12064   0.623   3.279   7.335  0.0038  0.1244  0.3125
  755loPI    C112065  13.043   7.612   5.542  0.2002 -0.0321 -0.1822
  755loPI    C212066  13.045   7.295   5.786 -0.0997 -0.0192 -0.1583
  755loPI    C312067  13.198   7.265   5.418 -0.1352 -0.1944 -0.1594
  755loPI   PO412068  12.896   7.750   5.715 -0.0292 -0.1557  0.2484
  755loPI   GL112069  12.653   7.876   6.003 -0.1434  0.1545 -0.2550
  755loPI   GL212070  12.667   7.553   6.095  0.1528  0.2309  0.0010
  755loPI   C1A12071  12.550   7.990   6.418 -0.4623 -0.2266  0.2007
  755loPI   C2A12072  12.589   8.007   6.845 -0.0193  0.1934  0.1452
  755loPI   C3A12073  12.496   7.943   7.265  0.1425 -0.0500  0.0934
  755loPI   C4A12074  12.266   7.835   7.629  0.0754  0.0365  0.0216
  755loPI   C5A12075  12.009   7.904   7.956 -0.1994 -0.3206  0.0227
  755loPI   C6A12076  11.645   8.231   7.960 -0.1332  0.3707  0.0384
  755loPI   C1B12077  12.580   7.441   6.506 -0.0359 -0.1607  0.3816
  755loPI   C2B12078  12.287   7.263   6.812  0.3870  0.0084 -0.2168
  755loPI   C3B12079  12.156   7.062   7.182  0.0874 -0.0346  0.0634
  755loPI   C4B12080  12.083   7.262   7.571 -0.1015 -0.1174  0.0447
  756loPI    C112081  18.654  12.150   4.611 -0.1237 -0.2917  0.0399
  756loPI    C212082  18.418  12.327   4.341  0.0088  0.0385  0.1354
  756loPI    C312083  18.651  12.020   4.233 -0.2070 -0.0666 -0.0382
  756loPI   PO412084  18.462  12.130   4.874 -0.1369  0.1902 -0.2265
  756loPI   GL112085  18.438  11.980   5.236  0.0837 -0.0350 -0.1243
  756loPI   GL212086  18.460  11.595   5.319  0.2346  0.0126 -0.0778
  756loPI   C1A12087  18.306  12.052   5.655 -0.1576  0.1014  0.0813
  756loPI   C2A12088  18.230  12.190   6.123 -0.0426  0.0365  0.2965
  756loPI   C3A12089  18.239  12.217   6.580 -0.1197 -0.0762 -0.0042
  756loPI   C4A12090  18.289  12.234   7.081  0.1156 -0.2755 -0.1309
  756loPI   C5A12091  18.245  12.005   7.393 -0.1238  0.0128 -0.0440
  756loPI   C6A12092  18.367  11.507   7.485 -0.5495  0.2855 -0.1083
  756loPI   C1B12093  18.438  11.610   5.731  0.0205 -0.0357 -0.1454
  756loPI   C2B12094  18.403  11.676   6.200  0.1248  0.0400 -0.0243
  756loPI   C3B12095  18.429  11.772   6.612 -0.0022  0.2583  0.0574
  756loPI   C4B12096  18.376  11.728   7.013 -0.0143  0.0395 -0.1972
  757loPI    C112097   0.218  14.449   5.526  0.2231 -0.2541 -0.0926
  757loPI    C212098   0.041  14.461   5.167  0.3240 -0.0714 -0.1375
  757loPI    C312099  -0.006  14.764   5.424 -0.0427 -0.3610  0.1484
  757loPI   PO412100   0.147  14.119   5.546 -0.1172 -0.1256  0.1205
  757loPI   GL112101   0.305  13.894   5.811  0.0010  0.2329  0.0868
  757loPI   GL212102   0.322  14.194   6.023  0.2612 -0.0024  0.3458
  757loPI   C1A12103   0.257  13.454   6.131  0.1821 -0.2414 -0.0232
  757loPI   C2A12104   0.298  13.260   6.602 -0.0474  0.0296 -0.0176
  757loPI   C3A12105   0.168  13.333   6.996 -0.0997 -0.0351 -0.2157
  757loPI   C4A12106  -0.106  13.182   7.338 -0.0724  0.0440  0.0905
  757loPI   C5A12107  -0.362  13.202   7.809 -0.3964  0.2085  0.0533
  757loPI   C6A12108  -0.535  12.905   8.177  0.4769 -0.1691  0.1593
  757loPI   C1B12109   0.385  14.149   6.471 -0.1594  0.3161  0.0748
  757loPI   C2B12110   0.305  14.200   6.913  0.1109  0.0233  0.3127
  757loPI   C3B12111  -0.010  14.022   7.266 -0.0160  0.2561  0.0039
  757loPI   C4B12112  -0.120  13.663   7.285  0.1705  0.1373 -0.0683
  758loPI    C112113   4.143   0.033   4.729  0.1586  0.0710 -0.3414
  758loPI    C212114   3.744   0.016   4.743  0.1769 -0.1362  0.0638
  758loPI    C312115   3.933  -0.016   4.392 -0.1571 -0.1251 -0.1208
  758loPI   PO412116   4.187   0.038   4.944  0.1974 -0.2878  0.2166
  758loPI   GL112117   3.923   0.033   5.251 -0.1219 -0.2594  0.1977
  758loPI   GL212118   3.681   0.227   5.359  0.0892  0.0404 -0.1872
  758loPI   C1A12119   4.125  -0.049   5.650  0.0766 -0.1091 -0.0072
  758loPI   C2A12120   3.996  -0.017   6.071 -0.2591  0.0942 -0.0115
  758loPI   C3A12121   4.055  -0.009   6.534 -0.3427  0.0412 -0.0610
  758loPI   C4A12122   3.988  -0.089   6.976  0.0621  0.2128  0.0470
  758loPI   C5A12123   3.880   0.263   7.374 -0.1653 -0.1640  0.1348
  758loPI   C6A12124   3.637   0.089   7.717 -0.0909  0.2590  0.0172
  758loPI   C1B12125   3.598   0.165   5.796  0.0298 -0.2831 -0.3142
  758loPI   C2B12126   3.586   0.124   6.229 -0.0332 -0.0368 -0.1640
  758loPI   C3B12127   3.509   0.066   6.577 -0.1228  0.1403 -0.0557
  758loPI   C4B12128   3.528   0.197   6.867 -0.0798  0.5487 -0.0285
  759loPI    C112129  17.218  16.755   5.074 -0.0034 -0.0748  0.1739
  759loPI    C212130  17.520  16.951   5.249  0.2502 -0.1074 -0.2163
  759loPI    C312131  17.568  16.792   4.884 -0.2835  0.0080 -0.3453
  759loPI   PO412132  16.956  16.700   5.229  0.0188  0.0802 -0.1393
  759loPI   GL112133  16.872  16.921   5.635 -0.2883 -0.1367 -0.1855
  759loPI   GL212134  16.629  17.120   5.532 -0.1596 -0.1001 -0.0919
  759loPI   C1A12135  16.822  16.814   6.035 -0.0440 -0.0727 -0.4249
  759loPI   C2A12136  16.990  16.631   6.398 -0.3949 -0.0119 -0.0053
  759loPI   C3A12137  16.982  16.744   6.812 -0.2581 -0.0806  0.0135
  759loPI   C4A12138  17.002  16.972   7.168 -0.2408  0.2287 -0.2251
  759loPI   C5A12139  16.910  17.054   7.649  0.2633  0.0892 -0.0608
  759loPI   C6A12140  16.903  17.404   7.921  0.1355  0.1326  0.0455
  759loPI   C1B12141  16.386  17.020   5.826  0.1172 -0.1623 -0.1922
  759loPI   C2B12142  16.335  16.896   6.304  0.0557 -0.2102  0.2719
  759loPI   C3B12143  16.534  16.901   6.713 -0.1802 -0.3674 -0.2607
  759loPI   C4B12144  16.540  17.017   7.074 -0.0023  0.0685 -0.0055
  760loPI    C112145   2.916   7.740   4.707 -0.0309  0.1662  0.0297
  760loPI    C212146   2.965   7.825   4.320  0.1874 -0.0505  0.0074
  760loPI    C312147   2.746   7.508   4.429 -0.0424  0.1267  0.0694
  760loPI   PO412148   2.855   7.962   4.803  0.1305 -0.1588 -0.2173
  760loPI   GL112149   2.935   8.150   5.140  0.2380  0.3443 -0.0991
  760loPI   GL212150   3.146   8.080   5.370  0.0975 -0.0351  0.1846
  760loPI   C1A12151   2.772   8.386   5.563 -0.3915  0.3039 -0.0624
  760loPI   C2A12152   2.840   8.490   6.042 -0.1066 -0.0096 -0.1108
  760loPI   C3A12153   2.773   8.421   6.473 -0.0803 -0.0560  0.0061
  760loPI   C4A12154   2.728   8.247   6.826 -0.0751  0.0957  0.3136
  760loPI   C5A12155   2.443   8.075   7.197  0.2573 -0.1936 -0.1342
  760loPI   C6A12156   2.074   7.982   7.507  0.1216 -0.2959 -0.0851
  760loPI   C1B12157   3.199   8.161   5.770  0.0045  0.0854 -0.1848
  760loPI   C2B12158   3.144   8.067   6.160 -0.2713 -0.0474  0.0161
  760loPI   C3B12159   3.223   8.032   6.557  0.2199  0.2674  0.3833
  760loPI   C4B12160   3.115   7.882   6.882  0.2168  0.1426 -0.2870
  761loPI    C112161  10.434   6.694   4.763 -0.2789 -0.0019  0.0028
  761loPI    C212162  10.343   6.967   4.485  0.0308 -0.0427 -0.1428
  761loPI    C312163  10.649   6.716   4.426 -0.1007 -0.2639  0.0961
  761loPI   PO412164  10.410   6.791   4.940  0.2903  0.2148  0.0747
  761loPI   GL112165  10.177   6.608   5.394  0.2175 -0.0555 -0.1578
  761loPI   GL212166  10.451   6.602   5.662  0.2107 -0.0220 -0.0110
  761loPI   C1A12167  10.004   6.405   5.755 -0.0376 -0.0034 -0.3440
  761loPI   C2A12168   9.900   6.247   6.085  0.1683  0.0188 -0.2067
  761loPI   C3A12169   9.555   6.174   6.320 -0.1474 -0.0351  0.0352
  761loPI   C4A12170   9.534   5.999   6.695 -0.1438 -0.0578  0.0908
  761loPI   C5A12171   9.440   5.955   7.129  0.0778  0.4263  0.0650
  761loPI   C6A12172   9.643   5.889   7.499  0.1114 -0.2545  0.2766
  761loPI   C1B12173  10.603   6.692   6.069  0.1392 -0.1549 -0.0476
  761loPI   C2B12174  10.475   6.664   6.514 -0.0512 -0.0798 -0.1954
  761loPI   C3B12175  10.422   6.465   6.840  0.0457 -0.3380  0.0213
  761loPI   C4B12176  10.313   6.031   6.872 -0.0819 -0.0318  0.1911
  762loPI    C112177   2.110   0.051   4.646  0.0337  0.0245  0.0141
  762loPI    C212178   1.846   0.342   4.568  0.1092  0.1102  0.0774
  762loPI    C312179   1.904   0.049   4.303 -0.0602  0.0830  0.0694
  762loPI   PO412180   2.099  -0.068   4.829 -0.1057 -0.0510  0.0507
  762loPI   GL112181   2.058  -0.274   5.233  0.0180  0.2153  0.1989
  762loPI   GL212182   1.844  -0.100   5.301  0.0265 -0.2630  0.0386
  762loPI   C1A12183   1.959  -0.431   5.667  0.1365 -0.0865  0.0411
  762loPI   C2A12184   1.898  -0.415   6.145 -0.0931 -0.1921  0.0736
  762loPI   C3A12185   1.930  -0.447   6.590 -0.3248  0.0719 -0.2292
  762loPI   C4A12186   2.090  -0.293   7.000  0.3906 -0.0162  0.2366
  762loPI   C5A12187   2.092   0.021   7.235 -0.1645 -0.1673  0.3835
  762loPI   C6A12188   2.016   0.022   7.619 -0.0188  0.1013 -0.1035
  762loPI   C1B12189   1.882   0.064   5.669 -0.1643  0.0037 -0.2212
  762loPI   C2B12190   1.789   0.150   6.064 -0.2285  0.1023 -0.1995
  762loPI   C3B12191   1.654   0.599   6.083 -0.0102 -0.0175  0.1427
  762loPI   C4B12192   1.582   1.071   6.233  0.1736  0.0183  0.2286
  763loPI    C112193  13.613  10.845   5.183 -0.0051  0.1590 -0.1315
  763loPI    C212194  13.592  10.895   4.787  0.2016 -0.1047 -0.1790
  763loPI    C312195  13.611  10.527   4.941  0.0099 -0.0077  0.0842
  763loPI   PO412196  13.385  11.103   5.236 -0.0243  0.0645 -0.1147
  763loPI   GL112197  13.199  11.174   5.631  0.0764 -0.2319 -0.0590
  763loPI   GL212198  13.090  11.510   5.825  0.0228 -0.2801 -0.1381
  763loPI   C1A12199  12.927  11.047   6.019 -0.2361 -0.0758  0.2870
  763loPI   C2A12200  12.876  11.058   6.485  0.2707  0.3240 -0.2738
  763loPI   C3A12201  12.969  11.103   6.868 -0.1489  0.1992 -0.0488
  763loPI   C4A12202  12.964  11.169   7.262  0.1945  0.3433 -0.1044
  763loPI   C5A12203  13.216  11.196   7.578 -0.5224  0.1221 -0.0056
  763loPI   C6A12204  13.478  10.926   7.690 -0.0347 -0.1001  0.0453
  763loPI   C1B12205  13.461  11.711   6.029  0.1780 -0.0817  0.1800
  763loPI   C2B12206  13.813  11.531   6.257 -0.0771 -0.2557 -0.1927
  763loPI   C3B12207  13.952  11.212   6.482  0.0037 -0.0312 -0.0794
  763loPI   C4B12208  14.271  11.086   6.721  0.3263 -0.0761  0.1354
  764loPI    C112209  17.110  17.251   5.250 -0.1866 -0.1928  0.0500
  764loPI    C212210  16.922  17.237   4.897  0.0057 -0.1467 -0.0550
  764loPI    C312211  17.322  17.241   4.911 -0.0019  0.0176  0.1570
  764loPI   PO412212  17.007  17.422   5.364 -0.0567 -0.0019 -0.0172
  764loPI   GL112213  16.950  17.618   5.754  0.2754 -0.2115 -0.0615
  764loPI   GL212214  17.223  17.818   5.672  0.3798  0.0989  0.2923
  764loPI   C1A12215  16.741  17.335   5.961 -0.2785  0.1662  0.2277
  764loPI   C2A12216  16.733  17.221   6.362  0.0964  0.1393 -0.1291
  764loPI   C3A12217  16.939  17.293   6.695 -0.0537  0.1453 -0.1202
  764loPI   C4A12218  17.305  17.204   6.781  0.2351 -0.0447  0.2051
  764loPI   C5A12219  17.666  17.448   6.577  0.2611  0.0596  0.1211
  764loPI   C6A12220  17.701  17.431   6.113  0.2326 -0.0429  0.0388
  764loPI   C1B12221  17.479  18.005   5.977 -0.1687 -0.1885  0.1143
  764loPI   C2B12222  17.558  17.979   6.378  0.0298  0.1282  0.4352
  764loPI   C3B12223  17.666  18.070   6.748 -0.2639  0.1221 -0.5760
  764loPI   C4B12224  17.575  17.987   7.183  0.2267  0.0033  0.0598
  765loPI    C112225  14.603   2.706   5.095 -0.1171 -0.1495 -0.0906
  765loPI    C212226  14.569   2.558   4.725  0.0904  0.0914 -0.2085
  765loPI    C312227  14.309   2.834   4.855 -0.0707 -0.0995 -0.1209
  765loPI   PO412228  14.698   2.442   5.281  0.0196 -0.1109  0.0510
  765loPI   GL112229  14.543   2.498   5.683  0.3513 -0.0548  0.4121
  765loPI   GL212230  14.836   2.644   5.826 -0.0292 -0.0069 -0.2908
  765loPI   C1A12231  14.424   2.434   6.078 -0.0358  0.0693 -0.1868
  765loPI   C2A12232  14.352   2.397   6.550  0.1551  0.0981 -0.2342
  765loPI   C3A12233  14.440   2.302   7.047  0.1427 -0.2137 -0.1685
  765loPI   C4A12234  14.410   2.508   7.484 -0.1178 -0.2198  0.0289
  765loPI   C5A12235  14.124   2.720   7.624  0.3074  0.1769  0.3313
  765loPI   C6A12236  13.916   3.067   7.696 -0.2731 -0.4104 -0.0093
  765loPI   C1B12237  14.970   2.762   6.181  0.0552  0.0223 -0.0791
  765loPI   C2B12238  15.156   2.561   6.552  0.0138  0.1221  0.1323
  765loPI   C3B12239  15.262   2.466   6.968 -0.1394 -0.1479  0.2287
  765loPI   C4B12240  15.292   2.478   7.357 -0.0426 -0.1126  0.0469
  766loPI    C112241   1.871  17.566   4.878 -0.0981 -0.0868  0.0245
  766loPI    C212242   1.562  17.373   4.712 -0.2215 -0.0175  0.1705
  766loPI    C312243   1.790  17.615   4.489 -0.0848 -0.3034 -0.0068
  766loPI   PO412244   1.803  17.589   5.071  0.0837  0.0039 -0.2036
  766loPI   GL112245   1.387  17.621   5.235  0.2947  0.4702  0.2022
  766loPI   GL212246   1.133  17.525   5.148 -0.2646  0.2540  0.1759
  766loPI   C1A12247   1.562  17.576   5.645  0.1954 -0.1866 -0.0447
  766loPI   C2A12248   1.648  17.565   6.110  0.1172  0.0536 -0.0005
  766loPI   C3A12249   1.685  17.559   6.555  0.1098  0.0352  0.2040
  766loPI   C4A12250   1.667  17.505   6.985 -0.1525  0.2020  0.2147
  766loPI   C5A12251   1.633  17.405   7.417  0.5232  0.0690 -0.1562
  766loPI   C6A12252   1.605  17.250   7.835  0.0634 -0.1052 -0.0071
  766loPI   C1B12253   1.041  17.733   5.593  0.1201 -0.2734 -0.0465
  766loPI   C2B12254   1.124  17.794   6.083 -0.2473 -0.0885  0.0652
  766loPI   C3B12255   1.179  17.666   6.363  0.0033 -0.1305  0.2002
  766loPI   C4B12256   1.216  17.671   6.782  0.1671 -0.0102  0.0053
  767loPI    C112257   2.968  14.131   4.487 -0.0168 -0.1186 -0.1423
  767loPI    C212258   3.316  13.953   4.572 -0.0974 -0.2210 -0.0231
  767loPI    C312259   3.307  14.268   4.326  0.0827 -0.2012 -0.0056
  767loPI   PO412260   2.838  14.151   4.791  0.0703  0.1015  0.0206
  767loPI   GL112261   2.959  14.008   5.286  0.1220 -0.0112  0.1925
  767loPI   GL212262   3.197  13.846   5.372  0.1709  0.1742 -0.0954
  767loPI   C1A12263   2.821  14.263   5.641 -0.4123  0.2833  0.2505
  767loPI   C2A12264   2.858  14.276   6.060 -0.0353 -0.3309  0.0773
  767loPI   C3A12265   2.965  14.332   6.424  0.0372 -0.0496  0.4378
  767loPI   C4A12266   2.806  14.625   6.799 -0.1177  0.1658  0.0191
  767loPI   C5A12267   2.760  14.691   7.230 -0.1161 -0.0605  0.1279
  767loPI   C6A12268   3.045  14.523   7.521 -0.0304 -0.2677 -0.0877
  767loPI   C1B12269   3.189  13.974   5.781 -0.2407  0.2678  0.0105
  767loPI   C2B12270   3.372  14.004   6.139 -0.0108  0.0454  0.1235
  767loPI   C3B12271   3.354  14.104   6.600  0.2620  0.2047  0.2841
  767loPI   C4B12272   3.117  14.240   7.033  0.1427  0.0938 -0.0317
  768loPI    C112273   2.138  14.236   4.471  0.0114  0.0415 -0.4129
  768loPI    C212274   2.057  13.862   4.356 -0.1541  0.0133 -0.2108
  768loPI    C312275   1.932  14.170   4.134 -0.1626 -0.0474 -0.2910
  768loPI   PO412276   2.201  14.203   4.694  0.1141 -0.2553  0.1464
  768loPI   GL112277   2.040  14.270   5.054  0.0725 -0.0837  0.1200
  768loPI   GL212278   1.752  14.417   5.329  0.1987 -0.1577 -0.0661
  768loPI   C1A12279   2.168  14.277   5.516  0.0084 -0.2747  0.0553
  768loPI   C2A12280   2.293  14.453   5.873 -0.1339 -0.4234 -0.3512
  768loPI   C3A12281   2.324  14.528   6.335  0.0506 -0.1958  0.4426
  768loPI   C4A12282   2.288  14.510   6.801 -0.0991 -0.2862 -0.1664
  768loPI   C5A12283   2.235  14.549   7.223  0.1749  0.1815 -0.0506
  768loPI   C6A12284   2.301  14.800   7.541 -0.0485 -0.0009 -0.0888
  768loPI   C1B12285   1.729  14.257   5.727 -0.3969 -0.2093 -0.1945
  768loPI   C2B12286   1.680  13.923   6.036  0.0993 -0.4780 -0.1988
  768loPI   C3B12287   1.532  13.744   6.355  0.3017  0.1860 -0.1163
  768loPI   C4B12288   1.560  13.321   6.310  0.0644 -0.0699 -0.3036
  769loPI    C112289  17.495   4.787   5.437  0.0039 -0.1398  0.0525
  769loPI    C212290  17.129   4.945   5.404  0.0699  0.0156  0.0517
  769loPI    C312291  17.390   4.980   5.103  0.1101 -0.0312  0.0809
  769loPI   PO412292  17.576   4.565   5.584 -0.0198 -0.0373 -0.0611
  769loPI   GL112293  17.805   4.508   5.958  0.0688 -0.3280 -0.1914
  769loPI   GL212294  18.223   4.475   5.999 -0.1710 -0.0507  0.2629
  769loPI   C1A12295  17.888   4.356   6.362 -0.0963  0.0580 -0.1124
  769loPI   C2A12296  18.184   4.163   6.584  0.3597  0.5600 -0.0922
  769loPI   C3A12297  18.186   3.740   6.769  0.1942  0.1438 -0.0799
  769loPI   C4A12298  18.372   3.506   6.928 -0.1116  0.0492  0.0686
  769loPI   C5A12299  18.476   3.720   7.384 -0.0652  0.1471 -0.0755
  769loPI   C6A12300  18.671   3.672   7.775  0.0337  0.1736 -0.0830
  769loPI   C1B12301  18.304   4.613   6.384 -0.0321  0.3234  0.2051
  769loPI   C2B12302  18.210   4.949   6.697  0.0105  0.0007  0.0428
  769loPI   C3B12303  18.249   5.337   6.878  0.0594  0.0526  0.1911
  769loPI   C4B12304  18.115   5.772   7.041 -0.0610  0.0787  0.2481
  770loPI    C112305   6.359  13.101   5.007 -0.1943  0.1106  0.3356
  770loPI    C212306   6.209  13.248   4.667 -0.0772  0.2709  0.3518
  770loPI    C312307   6.192  12.855   4.740 -0.0765  0.2316  0.1477
  770loPI   PO412308   6.376  13.378   5.139 -0.0198 -0.4035  0.2336
  770loPI   GL112309   6.449  13.531   5.511 -0.1478  0.1189  0.1160
  770loPI   GL212310   6.741  13.620   5.511  0.1609 -0.1518 -0.0117
  770loPI   C1A12311   6.296  13.570   6.025 -0.0148 -0.0687  0.1474
  770loPI   C2A12312   6.162  13.960   6.138  0.0375 -0.2365  0.2181
  770loPI   C3A12313   5.774  14.043   6.365  0.3658  0.1265  0.1158
  770loPI   C4A12314   5.665  14.081   6.767 -0.2534 -0.3994 -0.0963
  770loPI   C5A12315   5.888  14.269   7.047 -0.0549 -0.3074  0.0201
  770loPI   C6A12316   6.200  14.114   7.263 -0.1436 -0.1175 -0.0920
  770loPI   C1B12317   6.777  13.363   5.878  0.0824  0.1810  0.2343
  770loPI   C2B12318   6.701  13.428   6.304  0.0814  0.1489  0.0926
  770loPI   C3B12319   6.890  13.399   6.644  0.3304 -0.2383 -0.2182
  770loPI   C4B12320   6.801  13.193   7.070 -0.1756 -0.1110 -0.1708
  771loPI    C112321   9.763  18.649   4.580  0.1679 -0.1673  0.1349
  771loPI    C212322  10.044  18.776   4.325 -0.0371  0.2944  0.1271
  771loPI    C312323   9.713  18.599   4.186  0.1598 -0.0835  0.1250
  771loPI   PO412324   9.851  18.619   4.793 -0.1634  0.3211 -0.2217
  771loPI   GL112325   9.743  18.705   5.110 -0.0298 -0.0392 -0.1186
  771loPI   GL212326   9.452  18.795   5.267  0.0600 -0.0684 -0.0533
  771loPI   C1A12327   9.941  18.640   5.580 -0.1557  0.0642  0.2625
  771loPI   C2A12328   9.797  18.867   5.875  0.0853 -0.0641 -0.1856
  771loPI   C3A12329   9.586  19.118   6.035 -0.2088 -0.0466 -0.1296
  771loPI   C4A12330   9.204  19.078   6.189 -0.0058  0.1318  0.2822
  771loPI   C5A12331   9.089  19.050   6.620 -0.0762  0.2379  0.1448
  771loPI   C6A12332   9.258  19.257   6.953  0.1807 -0.3196 -0.6959
  771loPI   C1B12333   9.464  18.600   5.610 -0.2261  0.0542  0.1185
  771loPI   C2B12334   9.388  18.670   6.019  0.2391 -0.1119  0.1555
  771loPI   C3B12335   9.381  18.645   6.542 -0.4692  0.1164 -0.0557
  771loPI   C4B12336   9.347  18.715   6.898  0.0457 -0.0640 -0.0050
  772loPI    C112337  14.073   2.402   4.713  0.0391  0.0748 -0.2007
  772loPI    C212338  13.766   2.630   4.596  0.0486  0.0116 -0.3517
  772loPI    C312339  14.056   2.539   4.337  0.1516  0.0005 -0.2332
  772loPI   PO412340  13.942   2.271   4.926 -0.0647 -0.1149  0.2892
  772loPI   GL112341  13.739   2.181   5.271  0.0632 -0.0967  0.0873
  772loPI   GL212342  13.665   2.525   5.335  0.1631  0.0993 -0.0898
  772loPI   C1A12343  13.972   2.165   5.670  0.0497 -0.1480  0.2108
  772loPI   C2A12344  13.938   2.173   6.159  0.2515 -0.1055 -0.2335
  772loPI   C3A12345  13.931   2.073   6.539  0.0589 -0.2309  0.0541
  772loPI   C4A12346  14.026   2.051   6.960  0.1760 -0.0987 -0.4663
  772loPI   C5A12347  14.125   2.116   7.429  0.1782 -0.0295  0.2984
  772loPI   C6A12348  14.152   2.210   7.794 -0.2638  0.0914  0.4783
  772loPI   C1B12349  13.535   2.443   5.738  0.0355 -0.0450 -0.0986
  772loPI   C2B12350  13.492   2.410   6.150  0.0958 -0.2629 -0.0183
  772loPI   C3B12351  13.491   2.298   6.624 -0.1267  0.2212  0.0612
  772loPI   C4B12352  13.541   2.301   6.975 -0.2402 -0.0759 -0.0167
  773loPI    C112353   7.619   4.364   4.772  0.2542 -0.0350 -0.2720
  773loPI    C212354   7.337   4.321   4.492  0.0433  0.1000 -0.0837
  773loPI    C312355   7.607   4.614   4.459 -0.0055  0.1406 -0.1257
  773loPI   PO412356   7.447   4.400   5.026 -0.1290  0.0770 -0.1606
  773loPI   GL112357   7.504   4.460   5.405  0.1895  0.0004 -0.2366
  773loPI   GL212358   7.681   4.535   5.713  0.1127  0.4959  0.3064
  773loPI   C1A12359   7.207   4.348   5.837  0.0082 -0.0433  0.2403
  773loPI   C2A12360   7.218   4.343   6.363 -0.1403 -0.0154 -0.1905
  773loPI   C3A12361   7.218   4.365   6.773 -0.0135 -0.2376 -0.1022
  773loPI   C4A12362   7.314   4.329   7.149  0.0029 -0.2160  0.0604
  773loPI   C5A12363   7.351   4.217   7.562 -0.0769  0.0403  0.1553
  773loPI   C6A12364   7.327   3.924   7.887  0.3377  0.0157 -0.0291
  773loPI   C1B12365   7.628   4.602   6.123  0.2469  0.0053  0.1125
  773loPI   C2B12366   7.660   4.582   6.546  0.0908  0.2465 -0.5546
  773loPI   C3B12367   7.749   4.520   7.042 -0.1496  0.0910  0.1640
  773loPI   C4B12368   7.846   4.521   7.477 -0.0067 -0.2805 -0.2679
  774loPI    C112369   0.980   4.953   4.727  0.0305  0.0871  0.0563
  774loPI    C212370   1.055   4.761   4.385 -0.1168  0.1741 -0.0258
  774loPI    C312371   0.724   4.983   4.421  0.0196  0.3610  0.0896
  774loPI   PO412372   1.108   4.892   4.900 -0.1206 -0.1940  0.0680
  774loPI   GL112373   1.250   4.978   5.357 -0.2232  0.1018 -0.0953
  774loPI   GL212374   1.500   5.032   5.643  0.0664 -0.2541  0.1499
  774loPI   C1A12375   1.242   4.606   5.677  0.1466 -0.1054 -0.0527
  774loPI   C2A12376   1.215   4.249   6.014  0.2073 -0.0092  0.1363
  774loPI   C3A12377   1.271   4.171   6.430  0.0678 -0.1314 -0.0915
  774loPI   C4A12378   1.534   4.274   6.747  0.2850  0.1857 -0.0424
  774loPI   C5A12379   1.765   4.197   7.102 -0.1598  0.1456  0.0334
  774loPI   C6A12380   1.910   3.979   7.606 -0.3402  0.1451 -0.3777
  774loPI   C1B12381   1.802   5.131   5.964 -0.2760 -0.0692 -0.0374
  774loPI   C2B12382   1.990   5.004   6.216 -0.0633 -0.1376  0.0424
  774loPI   C3B12383   2.061   5.038   6.586  0.2402  0.0424 -0.1529
  774loPI   C4B12384   1.828   5.233   6.843 -0.0514  0.0341 -0.2093
  775loPI    C112385   3.842   8.298   4.711 -0.0408  0.0059 -0.1775
  775loPI    C212386   3.834   7.960   4.924  0.0708  0.0705 -0.0694
  775loPI    C312387   3.893   7.946   4.529 -0.4543 -0.0730 -0.1505
  775loPI   PO412388   3.928   8.468   4.883  0.1675  0.0563 -0.0820
  775loPI   GL112389   4.133   8.634   5.269 -0.1430 -0.2152  0.2027
  775loPI   GL212390   4.458   8.544   5.347  0.2368 -0.0896  0.0400
  775loPI   C1A12391   3.835   8.741   5.568 -0.0520  0.3707  0.0521
  775loPI   C2A12392   3.694   8.835   5.971  0.1622 -0.0591 -0.0677
  775loPI   C3A12393   3.509   8.981   6.380 -0.3441  0.2201 -0.0925
  775loPI   C4A12394   3.523   9.047   6.812 -0.0256  0.0379 -0.0940
  775loPI   C5A12395   3.471   9.256   7.111 -0.0956 -0.1042  0.1739
  775loPI   C6A12396   3.747   9.392   7.431 -0.0317  0.2188  0.1627
  775loPI   C1B12397   4.568   8.252   5.759  0.0663  0.1321  0.1721
  775loPI   C2B12398   4.503   8.183   6.184 -0.2210  0.0139  0.1315
  775loPI   C3B12399   4.293   8.317   6.609  0.3123  0.3917 -0.0718
  775loPI   C4B12400   4.374   8.170   7.095 -0.3263  0.0945  0.2044
  776loPI    C112401   8.494   3.931   4.867  0.0733 -0.2507 -0.1729
  776loPI    C212402   8.588   4.259   4.657  0.2073 -0.1204  0.0867
  776loPI    C312403   8.417   3.947   4.475  0.1211  0.0752 -0.1717
  776loPI   PO412404   8.309   3.995   5.076  0.0574 -0.1582 -0.0337
  776loPI   GL112405   8.433   4.115   5.526  0.0024 -0.0516 -0.3476
  776loPI   GL212406   8.135   4.319   5.659 -0.0218 -0.1098 -0.1161
  776loPI   C1A12407   8.591   4.086   5.933 -0.0231  0.1329  0.0119
  776loPI   C2A12408   8.545   4.002   6.306  0.0681  0.2706  0.1507
  776loPI   C3A12409   8.537   3.923   6.752  0.2245 -0.0419  0.0673
  776loPI   C4A12410   8.568   3.749   7.160 -0.1838  0.0633  0.2295
  776loPI   C5A12411   8.426   3.944   7.559 -0.0808 -0.0632  0.1623
  776loPI   C6A12412   8.696   4.076   7.851 -0.3471  0.1333 -0.2278
  776loPI   C1B12413   8.122   4.294   5.991 -0.0460 -0.1830  0.0261
  776loPI   C2B12414   8.213   4.305   6.433 -0.0084 -0.2752 -0.2512
  776loPI   C3B12415   8.070   4.260   6.815  0.0213  0.3911  0.0655
  776loPI   C4B12416   8.147   4.205   7.186  0.3147 -0.2231 -0.0432
  777loPI    C112417   1.916  16.174   5.075  0.0096 -0.2021 -0.0147
  777loPI    C212418   2.183  16.011   4.825 -0.2106 -0.2489 -0.2223
  777loPI    C312419   1.794  15.923   4.788 -0.2433 -0.2790  0.1571
  777loPI   PO412420   2.066  16.198   5.321 -0.2120  0.0068 -0.1470
  777loPI   GL112421   2.150  15.972   5.641  0.0348  0.1791  0.1512
  777loPI   GL212422   2.439  15.867   5.774 -0.0173  0.1205  0.1685
  777loPI   C1A12423   1.934  16.029   6.017  0.1038 -0.1028  0.1668
  777loPI   C2A12424   1.671  16.018   6.352  0.1833 -0.2931 -0.2414
  777loPI   C3A12425   1.642  16.228   6.819 -0.1774 -0.1210 -0.2074
  777loPI   C4A12426   1.674  16.047   7.186 -0.0155  0.2068 -0.3151
  777loPI   C5A12427   1.695  15.894   7.577 -0.0041 -0.1866 -0.1725
  777loPI   C6A12428   1.357  15.758   7.911 -0.2657 -0.1954  0.0419
  777loPI   C1B12429   2.570  15.885   6.127  0.0731 -0.1417  0.1437
  777loPI   C2B12430   2.185  15.943   6.529  0.1055  0.1219  0.0892
  777loPI   C3B12431   1.864  15.763   6.760 -0.2353  0.0176 -0.1793
  777loPI   C4B12432   1.437  15.678   6.773 -0.3271 -0.1140  0.1205
  778loPI    C112433   9.784  15.830   4.715  0.0228  0.2774  0.1260
  778loPI    C212434  10.077  15.880   4.448 -0.0571 -0.1513 -0.0507
  778loPI    C312435   9.698  15.954   4.345 -0.0539  0.0192  0.0553
  778loPI   PO412436   9.787  15.660   4.799 -0.0567  0.0751 -0.4817
  778loPI   GL112437   9.816  15.498   5.208 -0.0262 -0.2055  0.2284
  778loPI   GL212438   9.770  15.906   5.264  0.0643 -0.0398  0.1941
  778loPI   C1A12439   9.861  15.315   5.573  0.0952  0.0443  0.0458
  778loPI   C2A12440   9.917  15.335   6.033 -0.2751 -0.3423  0.0507
  778loPI   C3A12441   9.895  15.444   6.412 -0.0366  0.0459  0.1259
  778loPI   C4A12442   9.956  15.515   6.849 -0.1709 -0.3265 -0.0853
  778loPI   C5A12443   9.861  15.308   7.249 -0.1398  0.3767  0.0360
  778loPI   C6A12444  10.050  15.179   7.613 -0.0534 -0.0742  0.3106
  778loPI   C1B12445   9.692  15.846   5.647 -0.2018  0.1762  0.0997
  778loPI   C2B12446   9.666  15.823   6.108 -0.0327  0.1737  0.0209
  778loPI   C3B12447   9.594  15.955   6.503 -0.2885  0.2435  0.1044
  778loPI   C4B12448   9.677  15.980   6.931  0.2004 -0.0199  0.1477
  779loPI    C112449  11.726   5.080   4.802  0.0720 -0.2580 -0.0639
  779loPI    C212450  12.122   5.100   4.747  0.1025  0.1380  0.2522
  779loPI    C312451  11.889   5.405   4.636 -0.1182 -0.0922  0.0706
  779loPI   PO412452  11.731   4.952   5.103  0.2820 -0.0807  0.2939
  779loPI   GL112453  11.777   4.913   5.453 -0.1626 -0.5674 -0.0554
  779loPI   GL212454  11.832   4.688   5.678 -0.2638  0.0757  0.1277
  779loPI   C1A12455  11.871   5.278   5.834 -0.0226 -0.3707 -0.0678
  779loPI   C2A12456  11.789   5.379   6.229 -0.0992 -0.4566 -0.3871
  779loPI   C3A12457  11.705   5.309   6.777  0.1172  0.1843  0.0780
  779loPI   C4A12458  11.623   5.284   7.184 -0.0922  0.2791 -0.0401
  779loPI   C5A12459  11.637   5.352   7.642 -0.1778 -0.2034  0.0828
  779loPI   C6A12460  11.631   5.144   8.049  0.0458  0.2223  0.0171
  779loPI   C1B12461  11.779   4.844   6.090  0.2188 -0.1082  0.0307
  779loPI   C2B12462  11.813   4.927   6.541 -0.0390 -0.0253 -0.1686
  779loPI   C3B12463  11.676   4.787   6.939 -0.2485  0.0225  0.0302
  779loPI   C4B12464  11.689   4.710   7.373  0.0414  0.3140  0.3601
  780loPI    C112465  17.092   3.895   5.224 -0.1486  0.1711 -0.0877
  780loPI    C212466  16.803   3.818   4.958 -0.0217 -0.0770 -0.1570
  780loPI    C312467  17.187   3.778   4.854  0.0347  0.0577 -0.0059
  780loPI   PO412468  17.045   3.767   5.500  0.1722  0.1188 -0.3108
  780loPI   GL112469  16.622   3.671   5.848 -0.2182 -0.0781 -0.3638
  780loPI   GL212470  16.406   3.383   5.883 -0.5706 -0.3385  0.0696
  780loPI   C1A12471  16.792   3.829   6.261 -0.4142  0.0088 -0.0236
  780loPI   C2A12472  16.752   3.864   6.624 -0.0244 -0.1243 -0.2030
  780loPI   C3A12473  16.726   3.873   7.007  0.0958 -0.0198  0.1390
  780loPI   C4A12474  16.806   3.758   7.404 -0.1326  0.0850 -0.1392
  780loPI   C5A12475  16.804   3.747   7.891  0.0325  0.0332  0.0675
  780loPI   C6A12476  16.779   3.452   8.157 -0.2941 -0.0985  0.1038
  780loPI   C1B12477  16.428   3.481   6.393  0.0357  0.1577  0.0571
  780loPI   C2B12478  16.382   3.557   6.797 -0.1087  0.2057 -0.0635
  780loPI   C3B12479  16.355   3.545   7.243  0.0788 -0.0158 -0.3268
  780loPI   C4B12480  16.523   3.424   7.671  0.0306  0.1067 -0.3907
  781loPI    C112481  15.107   5.354   5.192 -0.0333 -0.0562 -0.0121
  781loPI    C212482  14.907   5.482   4.870 -0.1868  0.1746  0.1712
  781loPI    C312483  15.271   5.322   4.829 -0.2640  0.0699 -0.1298
  781loPI   PO412484  14.874   5.270   5.332  0.1921 -0.0019 -0.0061
  781loPI   GL112485  14.781   5.155   5.666 -0.2372 -0.0746  0.5195
  781loPI   GL212486  14.513   5.327   5.807  0.2189 -0.2154 -0.2474
  781loPI   C1A12487  14.898   5.044   6.064  0.1139  0.2975 -0.0204
  781loPI   C2A12488  14.892   4.668   6.326 -0.0200  0.1104 -0.3609
  781loPI   C3A12489  14.839   4.622   6.728  0.1399 -0.1354 -0.1318
  781loPI   C4A12490  14.846   4.570   7.184  0.0699  0.1569 -0.2455
  781loPI   C5A12491  15.174   4.766   7.508 -0.1845 -0.1802  0.1780
  781loPI   C6A12492  15.453   4.984   7.808 -0.1025  0.0145  0.0625
  781loPI   C1B12493  14.496   5.326   6.270  0.0276  0.0594 -0.0080
  781loPI   C2B12494  14.498   5.434   6.735  0.0372 -0.0636  0.0815
  781loPI   C3B12495  14.484   5.376   7.129  0.3672 -0.1315 -0.1152
  781loPI   C4B12496  14.410   5.386   7.530 -0.1751  0.1923 -0.3513
  782loPI    C112497  18.248   5.016   5.050  0.2923 -0.0541 -0.0891
  782loPI    C212498  18.380   4.769   4.764 -0.0097  0.0780 -0.3490
  782loPI    C312499  18.071   5.012   4.691 -0.2060 -0.0109  0.1476
  782loPI   PO412500  18.474   4.916   5.253  0.2222  0.0832  0.2820
  782loPI   GL112501  18.699   5.021   5.552 -0.1933  0.0432 -0.1920
  782loPI   GL212502  18.805   5.164   5.856  0.1898  0.0072 -0.0889
  782loPI   C1A12503  18.723   4.670   5.849 -0.2109  0.0486  0.1625
  782loPI   C2A12504  19.025   4.578   6.154 -0.0113 -0.0177 -0.1863
  782loPI   C3A12505  19.096   4.525   6.599  0.1122  0.2508 -0.0442
  782loPI   C4A12506  18.937   4.502   7.032  0.0501 -0.1354  0.2342
  782loPI   C5A12507  18.687   4.254   7.243  0.0186 -0.2596 -0.2001
  782loPI   C6A12508  18.314   4.064   7.106 -0.0161 -0.0320  0.2930
  782loPI   C1B12509  18.688   4.966   6.266 -0.2691 -0.0988  0.0430
  782loPI   C2B12510  18.721   4.840   6.644 -0.0250 -0.0452  0.0534
  782loPI   C3B12511  18.730   5.061   7.068  0.0913 -0.1561 -0.0454
  782loPI   C4B12512  18.730   5.110   7.508  0.1323 -0.0757  0.1265
  783loPI    C112513  15.250   3.801   5.106 -0.0338 -0.0547 -0.1724
  783loPI    C212514  15.448   3.508   4.919  0.4130  0.0015  0.1938
  783loPI    C312515  15.507   3.889   4.813  0.1084 -0.0115 -0.0363
  783loPI   PO412516  15.322   3.775   5.322  0.2101  0.1937 -0.1520
  783loPI   GL112517  15.129   3.830   5.674  0.0975 -0.2653  0.0761
  783loPI   GL212518  15.265   4.094   5.719 -0.1587 -0.0679  0.3743
  783loPI   C1A12519  15.037   3.711   6.057 -0.0196  0.1514  0.0022
  783loPI   C2A12520  14.928   3.639   6.462  0.2562 -0.0752  0.2372
  783loPI   C3A12521  14.992   3.404   6.930 -0.3399  0.0611 -0.3226
  783loPI   C4A12522  14.900   3.530   7.210  0.0309 -0.0955  0.0537
  783loPI   C5A12523  14.647   3.335   7.410  0.0750  0.1131  0.1283
  783loPI   C6A12524  14.583   3.039   7.615  0.4198  0.1410 -0.1358
  783loPI   C1B12525  15.403   4.050   6.107 -0.3836  0.0218  0.0195
  783loPI   C2B12526  15.346   3.921   6.524  0.1232 -0.2625 -0.2323
  783loPI   C3B12527  15.332   3.816   6.900 -0.2227 -0.0653  0.1567
  783loPI   C4B12528  15.329   3.823   7.302 -0.0689  0.3419 -0.2583
  784loPI    C112529   7.945   2.116   4.783 -0.1691  0.0010  0.0571
  784loPI    C212530   8.204   2.193   4.488 -0.0984 -0.0130  0.1151
  784loPI    C312531   7.876   1.975   4.415 -0.0190 -0.1197  0.0740
  784loPI   PO412532   7.983   2.385   5.022 -0.2660  0.2149  0.1724
  784loPI   GL112533   8.107   2.482   5.370  0.0636  0.1770 -0.0156
  784loPI   GL212534   8.140   2.790   5.388  0.0593 -0.1526 -0.2782
  784loPI   C1A12535   8.018   2.510   5.770  0.0983  0.2052 -0.0507
  784loPI   C2A12536   8.066   2.659   6.215  0.1000 -0.1763 -0.0001
  784loPI   C3A12537   8.094   2.731   6.687  0.0213 -0.2148 -0.0133
  784loPI   C4A12538   8.150   2.618   7.162  0.0563  0.0077  0.0910
  784loPI   C5A12539   8.162   2.663   7.591 -0.0157  0.2334 -0.3084
  784loPI   C6A12540   8.077   2.413   8.006 -0.0018 -0.0415  0.0495
  784loPI   C1B12541   7.984   2.993   5.717  0.2314  0.0489  0.0474
  784loPI   C2B12542   8.034   3.200   6.163  0.2486 -0.1615 -0.0598
  784loPI   C3B12543   8.039   3.195   6.522 -0.1098 -0.1168 -0.1236
  784loPI   C4B12544   8.048   3.230   6.964  0.0219  0.0954 -0.2002
  785loPI    C112545  18.093   3.691   5.386  0.0015 -0.0968  0.1281
  785loPI    C212546  18.066   3.939   5.073  0.0166 -0.0320  0.1780
  785loPI    C312547  18.399   3.931   5.294 -0.1308  0.1890  0.4142
  785loPI   PO412548  17.938   3.727   5.551  0.0039  0.1249  0.1090
  785loPI   GL112549  17.666   3.566   5.847  0.0195  0.1302  0.0092
  785loPI   GL212550  17.739   3.350   6.020 -0.2578  0.2115  0.2689
  785loPI   C1A12551  17.279   3.613   6.049 -0.1034 -0.0172  0.0538
  785loPI   C2A12552  17.260   3.715   6.408  0.2607  0.0069 -0.1470
  785loPI   C3A12553  17.278   3.695   6.814 -0.0578 -0.0950  0.0556
  785loPI   C4A12554  17.384   3.578   7.143 -0.1590  0.1015 -0.2177
  785loPI   C5A12555  17.432   3.633   7.625  0.1939  0.1873 -0.0043
  785loPI   C6A12556  17.593   3.960   7.931  0.0620 -0.1884  0.2584
  785loPI   C1B12557  17.690   3.456   6.400 -0.1956  0.0671  0.3779
  785loPI   C2B12558  17.727   3.466   6.788  0.1930 -0.1634 -0.0235
  785loPI   C3B12559  17.981   3.446   7.221  0.0537 -0.0141  0.2487
  785loPI   C4B12560  17.992   3.357   7.598 -0.2214  0.0478  0.1307
  786loPI    C112561   7.517  14.482   4.361 -0.0588 -0.1060  0.0656
  786loPI    C212562   7.367  14.111   4.371 -0.3879  0.0213 -0.0215
  786loPI    C312563   7.246  14.368   4.090  0.0908  0.0925 -0.1707
  786loPI   PO412564   7.486  14.545   4.632  0.1692 -0.1114 -0.0300
  786loPI   GL112565   7.453  14.306   4.988 -0.1277 -0.2595  0.3412
  786loPI   GL212566   7.307  14.411   5.175  0.1450 -0.1784  0.0537
  786loPI   C1A12567   7.788  14.206   5.254 -0.0248  0.2546 -0.0686
  786loPI   C2A12568   8.068  13.990   5.573  0.1782  0.1046  0.1035
  786loPI   C3A12569   8.062  14.137   6.070  0.0665  0.1837 -0.0942
  786loPI   C4A12570   7.963  14.179   6.451  0.0604 -0.1489 -0.2104
  786loPI   C5A12571   7.943  14.278   6.861  0.0450 -0.0883 -0.3174
  786loPI   C6A12572   7.917  14.673   7.138  0.3855 -0.0939  0.1276
  786loPI   C1B12573   7.271  14.707   5.523  0.3790  0.2371 -0.0087
  786loPI   C2B12574   7.254  14.665   6.010 -0.2293 -0.0577  0.1348
  786loPI   C3B12575   7.294  14.684   6.453 -0.2057 -0.3186  0.1931
  786loPI   C4B12576   7.098  14.733   6.773  0.0285 -0.1458  0.1211
  787loPI    C112577  16.168   2.625   4.866 -0.1511  0.1316  0.0842
  787loPI    C212578  16.555   2.665   4.773 -0.1430  0.0643  0.0877
  787loPI    C312579  16.274   2.747   4.500 -0.1197 -0.1304  0.0034
  787loPI   PO412580  16.145   2.828   5.064 -0.0718  0.0511 -0.0055
  787loPI   GL112581  15.914   2.819   5.545  0.0546  0.0399 -0.0264
  787loPI   GL212582  16.246   2.788   5.693 -0.0311 -0.2344  0.2491
  787loPI   C1A12583  15.839   2.711   5.995  0.0236  0.0316  0.1360
  787loPI   C2A12584  15.935   2.711   6.385 -0.0705 -0.2187  0.2557
  787loPI   C3A12585  16.083   2.642   6.860  0.0010  0.2625  0.1389
  787loPI   C4A12586  16.176   2.659   7.307 -0.2030 -0.0078 -0.4140
  787loPI   C5A12587  16.154   2.584   7.771 -0.1760 -0.2818  0.2170
  787loPI   C6A12588  16.148   2.293   8.025  0.1011  0.0944  0.2879
  787loPI   C1B12589  16.335   2.953   6.123 -0.0446 -0.1204  0.3290
  787loPI   C2B12590  16.443   3.007   6.553 -0.2438  0.0414  0.0265
  787loPI   C3B12591  16.446   2.997   7.056  0.2171  0.3342 -0.0507
  787loPI   C4B12592  16.618   3.004   7.381 -0.0087 -0.0606 -0.2747
  788loPI    C112593  14.093  10.786   4.833  0.1989  0.0606 -0.2154
  788loPI    C212594  14.390  10.577   4.666  0.1294 -0.0996 -0.1405
  788loPI    C312595  14.014  10.444   4.640  0.1142 -0.1120  0.1173
  788loPI   PO412596  14.107  10.837   5.048  0.0548 -0.2814 -0.3206
  788loPI   GL112597  14.093  10.723   5.476  0.4251 -0.3263  0.1395
  788loPI   GL212598  14.016  10.982   5.506 -0.0509  0.1863  0.1373
  788loPI   C1A12599  14.166  10.655   5.974 -0.2112 -0.0624 -0.2070
  788loPI   C2A12600  14.270  10.725   6.398  0.0461  0.1786 -0.0464
  788loPI   C3A12601  14.377  10.551   6.825  0.0797  0.0148 -0.0316
  788loPI   C4A12602  14.390  10.605   7.276  0.0574  0.1442 -0.1421
  788loPI   C5A12603  14.270  10.542   7.564  0.1074 -0.3394  0.1654
  788loPI   C6A12604  14.086  10.283   7.930 -0.0205  0.0264 -0.0089
  788loPI   C1B12605  13.870  11.161   5.950 -0.1979  0.0269  0.1023
  788loPI   C2B12606  13.457  11.162   6.090 -0.4559 -0.1864 -0.1560
  788loPI   C3B12607  13.146  11.402   6.297 -0.6437 -0.2301 -0.0713
  788loPI   C4B12608  13.026  11.593   6.690  0.3312 -0.0294 -0.3169
  789loPI    C112609   7.767   6.072   4.809 -0.1403 -0.2185  0.0989
  789loPI    C212610   7.448   5.938   4.609 -0.1951 -0.0560  0.0754
  789loPI    C312611   7.780   6.036   4.410 -0.1105 -0.2757  0.1050
  789loPI   PO412612   7.805   5.999   5.114 -0.0212 -0.1491  0.2756
  789loPI   GL112613   7.513   5.854   5.401  0.2544  0.0950 -0.1191
  789loPI   GL212614   7.471   5.628   5.513 -0.1599  0.2003 -0.1720
  789loPI   C1A12615   7.148   6.074   5.643  0.2319 -0.1004  0.1720
  789loPI   C2A12616   6.869   6.201   5.960  0.0833  0.0682 -0.1001
  789loPI   C3A12617   6.876   6.119   6.347 -0.1148 -0.2858 -0.1944
  789loPI   C4A12618   6.900   6.113   6.769  0.1341 -0.1288 -0.0613
  789loPI   C5A12619   6.811   6.033   7.319 -0.2553 -0.0276 -0.1683
  789loPI   C6A12620   6.880   6.274   7.645 -0.0930 -0.1279 -0.1925
  789loPI   C1B12621   7.273   5.420   5.826  0.0456 -0.1648  0.2422
  789loPI   C2B12622   7.258   5.349   6.203 -0.1476  0.1208  0.2868
  789loPI   C3B12623   7.285   5.324   6.632  0.3313 -0.2277 -0.1818
  789loPI   C4B12624   7.315   5.308   7.073 -0.0333  0.2342  0.0869
  790loPI    C112625   6.574   4.960   4.840 -0.1630 -0.2186 -0.2452
  790loPI    C212626   6.894   5.157   4.976 -0.2620 -0.2574  0.0512
  790loPI    C312627   6.850   5.094   4.584  0.0358 -0.1543 -0.0014
  790loPI   PO412628   6.579   4.724   4.951 -0.1907 -0.1855 -0.1466
  790loPI   GL112629   6.615   4.412   5.231  0.0612 -0.3963  0.1814
  790loPI   GL212630   6.281   4.394   5.188  0.2563  0.0764  0.0089
  790loPI   C1A12631   6.840   4.671   5.652  0.1510  0.2571  0.0745
  790loPI   C2A12632   6.844   4.665   6.136  0.0815 -0.0964  0.4976
  790loPI   C3A12633   6.771   4.628   6.552 -0.1344  0.2651 -0.1381
  790loPI   C4A12634   6.829   4.598   6.967  0.3160  0.0366 -0.2724
  790loPI   C5A12635   6.566   4.677   7.340  0.3742 -0.0199  0.0025
  790loPI   C6A12636   6.566   4.600   7.814  0.0062  0.3004  0.1356
  790loPI   C1B12637   6.380   4.342   5.635  0.0668  0.1675 -0.0730
  790loPI   C2B12638   6.355   4.472   6.057  0.1786 -0.0881 -0.2641
  790loPI   C3B12639   6.356   4.358   6.471  0.0754  0.1226 -0.0414
  790loPI   C4B12640   6.375   4.329   6.932 -0.1962 -0.0865 -0.1573
  791loPI    C112641   2.783  18.015   4.783  0.0834 -0.0565  0.2032
  791loPI    C212642   3.018  18.339   4.793 -0.0423  0.0456 -0.0631
  791loPI    C312643   3.011  18.107   4.468 -0.2424 -0.0070 -0.0232
  791loPI   PO412644   2.826  17.868   5.028 -0.4335  0.0685  0.0445
  791loPI   GL112645   3.073  17.755   5.399 -0.3139  0.1559  0.1919
  791loPI   GL212646   2.666  17.659   5.424  0.0596  0.2804 -0.0679
  791loPI   C1A12647   3.020  17.646   5.793 -0.0990  0.0957 -0.0804
  791loPI   C2A12648   2.994  17.574   6.199  0.0447 -0.1301 -0.1064
  791loPI   C3A12649   3.055  17.619   6.621  0.3535  0.3697  0.2364
  791loPI   C4A12650   3.140  17.612   7.079 -0.3969 -0.1117  0.1542
  791loPI   C5A12651   3.035  17.742   7.499  0.1588 -0.1971 -0.0726
  791loPI   C6A12652   2.975  18.172   7.783 -0.3280 -0.0513 -0.2730
  791loPI   C1B12653   2.496  17.744   5.807  0.1336 -0.1235  0.1817
  791loPI   C2B12654   2.530  17.754   6.243 -0.1364  0.0935 -0.1012
  791loPI   C3B12655   2.572  17.661   6.696 -0.2254  0.1159  0.1840
  791loPI   C4B12656   2.538  17.688   7.111  0.0114  0.1464  0.0181
  792loPI    C112657  15.498   5.765   5.159  0.0099  0.0161 -0.0663
  792loPI    C212658  15.711   5.537   4.908 -0.1020 -0.3458  0.1596
  792loPI    C312659  15.419   5.770   4.767  0.1309 -0.2020 -0.0957
  792loPI   PO412660  15.461   5.641   5.406 -0.0277 -0.0803  0.0023
  792loPI   GL112661  15.603   5.753   5.790 -0.0548 -0.1693  0.1340
  792loPI   GL212662  15.838   5.824   6.038 -0.0893 -0.3013 -0.0402
  792loPI   C1A12663  15.551   5.337   6.089  0.0709 -0.0731  0.1120
  792loPI   C2A12664  15.345   5.025   6.333  0.2174  0.1449 -0.0565
  792loPI   C3A12665  14.923   5.125   6.592  0.1473  0.2988  0.0859
  792loPI   C4A12666  14.939   5.248   7.068  0.1790 -0.2397 -0.1842
  792loPI   C5A12667  15.090   5.440   7.534 -0.3721 -0.0298  0.0336
  792loPI   C6A12668  14.780   5.387   7.865 -0.1325 -0.1458 -0.2482
  792loPI   C1B12669  15.510   5.787   6.311  0.2375  0.0423 -0.2914
  792loPI   C2B12670  15.345   5.747   6.691 -0.1711  0.0361 -0.2314
  792loPI   C3B12671  15.289   5.687   7.097 -0.1062 -0.2578  0.2795
  792loPI   C4B12672  15.539   5.676   7.452  0.2587 -0.1403 -0.0238
  793loPI    C112673   2.982   2.392   5.066  0.0835 -0.1674  0.0778
  793loPI    C212674   2.806   2.408   4.707  0.0540 -0.0255  0.0982
  793loPI    C312675   2.706   2.120   4.966  0.0028 -0.0686  0.0307
  793loPI   PO412676   3.258   2.370   5.125  0.1140 -0.0079 -0.0482
  793loPI   GL112677   3.585   2.410   5.363  0.2714  0.2011 -0.0165
  793loPI   GL212678   3.852   2.390   5.391 -0.5076  0.3539 -0.1063
  793loPI   C1A12679   3.297   2.572   5.708  0.1531 -0.0061  0.0115
  793loPI   C2A12680   3.194   2.719   6.049  0.3247 -0.1675 -0.0112
  793loPI   C3A12681   3.164   2.615   6.467 -0.2083  0.4178 -0.2778
  793loPI   C4A12682   3.202   2.624   6.865 -0.0057 -0.1455  0.0008
  793loPI   C5A12683   3.411   2.773   7.257  0.0250 -0.0983 -0.1294
  793loPI   C6A12684   3.583   3.135   7.347  0.2469  0.0061 -0.1166
  793loPI   C1B12685   3.707   2.408   5.891 -0.2904  0.3488 -0.3516
  793loPI   C2B12686   3.614   2.401   6.285 -0.1936 -0.2040 -0.0708
  793loPI   C3B12687   3.554   2.282   6.690  0.1628 -0.3202 -0.0398
  793loPI   C4B12688   3.675   1.982   6.917  0.2013 -0.0973 -0.1253
  794loPI    C112689  16.362   3.328   5.364 -0.0572  0.3094  0.2350
  794loPI    C212690  16.267   3.539   5.038 -0.1430  0.0167  0.0676
  794loPI    C312691  16.489   3.706   5.325  0.2151  0.1745 -0.2901
  794loPI   PO412692  16.122   3.275   5.463  0.0383  0.0743  0.0320
  794loPI   GL112693  15.878   3.485   5.744 -0.2630 -0.1809  0.1358
  794loPI   GL212694  15.549   3.509   5.842 -0.1990 -0.1201 -0.1935
  794loPI   C1A12695  15.909   3.220   6.094  0.4379  0.0350  0.1184
  794loPI   C2A12696  15.980   3.213   6.506 -0.0556  0.2764  0.3317
  794loPI   C3A12697  15.998   3.209   6.900 -0.3237 -0.1018  0.0627
  794loPI   C4A12698  15.977   3.247   7.281 -0.2284  0.1671  0.0402
  794loPI   C5A12699  16.147   3.089   7.733  0.0112 -0.0622  0.1056
  794loPI   C6A12700  16.244   3.045   8.168  0.1966 -0.0612  0.2111
  794loPI   C1B12701  15.454   3.436   6.383 -0.1978 -0.1841 -0.0363
  794loPI   C2B12702  15.472   3.301   6.816  0.2057 -0.1984 -0.0118
  794loPI   C3B12703  15.492   3.317   7.301  0.1381 -0.1355 -0.0081
  794loPI   C4B12704  15.455   3.378   7.738  0.1285  0.0755  0.1699
  795loPI    C112705  14.596  14.081   5.222 -0.0377 -0.1337  0.0103
  795loPI    C212706  14.776  13.941   4.893 -0.0878  0.2527 -0.1878
  795loPI    C312707  14.381  14.002   4.894 -0.1649 -0.2003  0.1088
  795loPI   PO412708  14.716  13.999   5.404 -0.1184  0.1930 -0.1004
  795loPI   GL112709  14.720  14.103   5.833 -0.1697  0.4260 -0.0052
  795loPI   GL212710  14.392  14.056   5.880 -0.0935 -0.1130  0.1928
  795loPI   C1A12711  14.878  14.282   6.156 -0.0178 -0.0439 -0.0877
  795loPI   C2A12712  15.003  14.249   6.622 -0.0721  0.1668 -0.0350
  795loPI   C3A12713  15.277  14.247   7.041 -0.0858 -0.1358  0.1223
  795loPI   C4A12714  15.479  14.481   7.446  0.1225 -0.0715 -0.0941
  795loPI   C5A12715  15.785  14.630   7.773  0.1254 -0.0735 -0.1111
  795loPI   C6A12716  16.162  14.712   8.012  0.0566  0.2096 -0.2740
  795loPI   C1B12717  14.204  13.811   6.292 -0.1125  0.1666 -0.3318
  795loPI   C2B12718  14.157  13.408   6.482 -0.3389 -0.1769  0.1543
  795loPI   C3B12719  14.383  13.118   6.737 -0.1289  0.0934 -0.1166
  795loPI   C4B12720  14.396  13.041   7.187  0.0921 -0.1099 -0.0772
  796loPI    C112721  16.857   3.339   5.124 -0.0157  0.0257  0.0255
  796loPI    C212722  16.991   2.995   4.969 -0.0703 -0.0036  0.0428
  796loPI    C312723  16.629   3.132   4.869  0.1002  0.2404 -0.2567
  796loPI   PO412724  16.860   3.336   5.321  0.2462  0.1830 -0.2245
  796loPI   GL112725  16.864   3.207   5.655  0.0764 -0.2052 -0.2565
  796loPI   GL212726  16.744   3.002   5.748 -0.1634  0.5298 -0.0273
  796loPI   C1A12727  16.892   3.325   6.151  0.1235  0.0713  0.1931
  796loPI   C2A12728  16.871   3.401   6.530  0.2432  0.1949  0.0866
  796loPI   C3A12729  16.875   3.370   7.039 -0.1014 -0.0643 -0.3572
  796loPI   C4A12730  17.072   3.373   7.452  0.0704  0.0007 -0.0173
  796loPI   C5A12731  16.964   3.153   7.855 -0.0189 -0.2948 -0.3736
  796loPI   C6A12732  17.287   3.151   8.103 -0.1640 -0.1159 -0.1202
  796loPI   C1B12733  16.807   2.813   6.224 -0.0918 -0.1922  0.0641
  796loPI   C2B12734  16.944   2.809   6.549  0.1337  0.2969  0.1464
  796loPI   C3B12735  16.984   2.843   7.060  0.2269  0.1668  0.0890
  796loPI   C4B12736  17.061   2.801   7.489  0.1671  0.1187 -0.0221
  797loPI    C112737   2.666   4.876   4.675 -0.0135  0.0092  0.0243
  797loPI    C212738   2.399   5.123   4.508  0.0998  0.1511  0.0513
  797loPI    C312739   2.345   4.728   4.488  0.0946  0.1665 -0.2925
  797loPI   PO412740   2.699   4.921   4.892  0.4087 -0.4553 -0.0420
  797loPI   GL112741   2.935   4.941   5.226 -0.2595  0.1168  0.2030
  797loPI   GL212742   3.308   4.878   5.291  0.2832  0.2655 -0.2680
  797loPI   C1A12743   2.844   4.577   5.511 -0.0142 -0.0235 -0.0724
  797loPI   C2A12744   2.865   4.350   5.977  0.1729  0.1824 -0.2364
  797loPI   C3A12745   2.868   4.406   6.360  0.0341 -0.0272 -0.2771
  797loPI   C4A12746   2.786   4.289   6.759  0.2274  0.4685 -0.0262
  797loPI   C5A12747   2.656   4.120   7.288  0.0017 -0.2456  0.0834
  797loPI   C6A12748   2.461   4.019   7.667  0.1138 -0.1038  0.0994
  797loPI   C1B12749   3.324   4.843   5.700 -0.0574  0.0020  0.1999
  797loPI   C2B12750   3.296   4.690   6.214 -0.1932 -0.1156  0.2990
  797loPI   C3B12751   3.279   4.670   6.617  0.1829 -0.0236 -0.0677
  797loPI   C4B12752   3.182   4.586   7.055  0.0781  0.2460  0.2986
  798loPI    C112753   4.288   0.664   4.578 -0.0183  0.1095 -0.0121
  798loPI    C212754   4.262   0.357   4.323 -0.0407  0.0073  0.1124
  798loPI    C312755   4.473   0.682   4.223  0.2959 -0.2000  0.1304
  798loPI   PO412756   4.336   0.526   4.777 -0.0164  0.3121  0.0722
  798loPI   GL112757   4.580   0.476   5.117 -0.2504 -0.2919  0.0301
  798loPI   GL212758   4.367   0.332   5.317 -0.0109 -0.2700 -0.0893
  798loPI   C1A12759   4.927   0.584   5.512 -0.1172 -0.1158 -0.1539
  798loPI   C2A12760   4.968   0.610   5.899  0.1361  0.2902 -0.0379
  798loPI   C3A12761   4.791   0.626   6.362 -0.0276  0.0247 -0.0738
  798loPI   C4A12762   4.455   0.601   6.640  0.0781 -0.0043 -0.2400
  798loPI   C5A12763   4.285   0.593   7.048 -0.0416 -0.1119 -0.0136
  798loPI   C6A12764   4.213   0.662   7.412  0.1174  0.0999  0.3100
  798loPI   C1B12765   4.629   0.222   5.629  0.1081 -0.2418  0.1385
  798loPI   C2B12766   4.894   0.168   6.110  0.1722  0.2402  0.2906
  798loPI   C3B12767   5.046  -0.147   6.358 -0.1621 -0.0280  0.1871
  798loPI   C4B12768   5.149  -0.262   6.767 -0.3810  0.0365 -0.1091
  799loPI    C112769  15.457  12.140   5.266 -0.0260 -0.0039  0.0255
  799loPI    C212770  15.502  11.983   4.901  0.0482  0.0596  0.0072
  799loPI    C312771  15.698  12.318   5.000 -0.1049  0.1378  0.0479
  799loPI   PO412772  15.183  12.256   5.406  0.1127  0.0090 -0.0623
  799loPI   GL112773  15.129  12.548   5.761 -0.0386 -0.0011 -0.2371
  799loPI   GL212774  15.407  12.471   5.891  0.2527  0.3914  0.3517
  799loPI   C1A12775  14.852  12.422   6.175  0.0516  0.0376  0.1483
  799loPI   C2A12776  15.015  12.330   6.541 -0.0768 -0.0127  0.1611
  799loPI   C3A12777  14.970  12.410   6.894  0.2277 -0.0195 -0.1579
  799loPI   C4A12778  14.832  12.304   7.267 -0.2988  0.0404 -0.1150
  799loPI   C5A12779  14.756  12.190   7.682  0.3009 -0.0932  0.0008
  799loPI   C6A12780  14.487  12.455   7.937 -0.0628  0.0306 -0.3801
  799loPI   C1B12781  15.383  12.720   6.196 -0.1417 -0.2319 -0.3217
  799loPI   C2B12782  15.385  12.607   6.516 -0.1721  0.0105  0.2968
  799loPI   C3B12783  15.382  12.686   6.908 -0.2643  0.0691  0.0561
  799loPI   C4B12784  15.210  12.606   7.376  0.0572  0.1332 -0.0889
  800loPI    C112785  14.176   9.984   4.893  0.0701 -0.0132 -0.1168
  800loPI    C212786  14.012   9.874   4.545 -0.1687  0.1166 -0.0481
  800loPI    C312787  14.344  10.096   4.548  0.0569 -0.2100 -0.1887
  800loPI   PO412788  13.897  10.112   5.036 -0.3046  0.3093  0.0963
  800loPI   GL112789  13.754  10.374   5.362  0.0977 -0.0657  0.2041
  800loPI   GL212790  13.791  10.256   5.558  0.1609 -0.0757  0.0386
  800loPI   C1A12791  13.688  10.669   5.792  0.0187 -0.0248  0.0966
  800loPI   C2A12792  13.721  10.729   6.212  0.0656  0.0196  0.1986
  800loPI   C3A12793  13.853  10.744   6.660  0.1983  0.0427 -0.2309
  800loPI   C4A12794  14.005  10.758   6.996 -0.1405  0.2715  0.0232
  800loPI   C5A12795  13.887  10.888   7.399 -0.1933  0.0662 -0.0591
  800loPI   C6A12796  13.731  11.281   7.436  0.0869 -0.1143 -0.2975
  800loPI   C1B12797  13.827  10.250   6.014 -0.0480 -0.0949 -0.2011
  800loPI   C2B12798  13.934  10.319   6.375  0.1534  0.2549  0.0824
  800loPI   C3B12799  14.030  10.209   6.710 -0.2005 -0.1297  0.0813
  800loPI   C4B12800  14.039  10.203   7.197 -0.0922 -0.0153 -0.1295
  801loPI    C112801   0.313  17.981   4.638  0.1436  0.0867 -0.0900
  801loPI    C212802  -0.031  18.179   4.593  0.1814  0.1348 -0.1705
  801loPI    C312803   0.010  17.812   4.439  0.0112 -0.0578  0.2275
  801loPI   PO412804   0.423  18.008   4.938  0.0908 -0.3472  0.1993
  801loPI   GL112805   0.379  18.206   5.319 -0.0206 -0.0807 -0.0708
  801loPI   GL212806   0.686  18.025   5.353 -0.2226  0.1655 -0.0107
  801loPI   C1A12807   0.497  18.398   5.685 -0.0366  0.2198 -0.0378
  801loPI   C2A12808   0.577  18.445   6.223  0.0290  0.1475 -0.0590
  801loPI   C3A12809   0.665  18.375   6.694 -0.0590 -0.0166  0.3646
  801loPI   C4A12810   0.666  18.326   7.132 -0.3065  0.0281  0.0543
  801loPI   C5A12811   0.698  18.442   7.541  0.1196 -0.0755  0.1435
  801loPI   C6A12812   0.654  18.237   7.906 -0.3638 -0.1042  0.0682
  801loPI   C1B12813   0.544  17.844   5.636  0.0104 -0.0816 -0.2641
  801loPI   C2B12814   0.617  17.999   5.995 -0.1602  0.2926 -0.0741
  801loPI   C3B12815   0.743  17.921   6.492 -0.0155  0.2326  0.2010
  801loPI   C4B12816   0.718  17.857   7.028  0.4263  0.0369  0.2748
  802loPI    C112817  10.864  10.841   4.902  0.1735 -0.0922  0.0996
  802loPI    C212818  10.987  10.560   4.646  0.0697 -0.0912  0.0482
  802loPI    C312819  10.998  10.946   4.540  0.0229 -0.0911  0.0434
  802loPI   PO412820  10.868  10.645   5.207 -0.2285  0.2306 -0.0965
  802loPI   GL112821  10.666  10.573   5.612 -0.1745  0.0926 -0.0152
  802loPI   GL212822  10.822  10.335   5.860  0.2238  0.0410  0.2147
  802loPI   C1A12823  10.650  10.766   6.060 -0.1660 -0.0393 -0.2137
  802loPI   C2A12824  10.512  10.793   6.377 -0.1107 -0.3294 -0.0397
  802loPI   C3A12825  10.730  10.768   6.762  0.1419  0.1818 -0.2558
  802loPI   C4A12826  10.881  10.477   7.214  0.0562 -0.0879  0.0501
  802loPI   C5A12827  10.997  10.424   7.605  0.3113 -0.1246  0.3693
  802loPI   C6A12828  10.963  10.785   7.957 -0.0536  0.2168  0.0579
  802loPI   C1B12829  10.815  10.374   6.277 -0.0353  0.0617  0.4265
  802loPI   C2B12830  10.822  10.271   6.731 -0.1448 -0.0403  0.2511
  802loPI   C3B12831  10.809   9.940   7.020 -0.1725 -0.1378 -0.1603
  802loPI   C4B12832  10.899   9.948   7.411 -0.1529 -0.1230  0.0475
  803loPI    C112833  13.738   7.470   5.472 -0.0052  0.0582 -0.0115
  803loPI    C212834  13.503   7.734   5.284 -0.4221 -0.2271  0.0932
  803loPI    C312835  13.658   7.424   5.083 -0.0809 -0.0101  0.0119
  803loPI   PO412836  13.558   7.469   5.681  0.2172 -0.1285  0.0060
  803loPI   GL112837  13.316   7.654   5.957 -0.2866  0.0821 -0.2344
  803loPI   GL212838  13.630   7.585   6.189 -0.0078  0.1530  0.0062
  803loPI   C1A12839  13.112   7.643   6.361 -0.2098  0.4528  0.1203
  803loPI   C2A12840  13.107   7.754   6.742  0.0340 -0.0702 -0.1813
  803loPI   C3A12841  13.034   7.754   7.271  0.2912  0.2212 -0.0160
  803loPI   C4A12842  12.822   7.806   7.656 -0.0470  0.0565  0.3407
  803loPI   C5A12843  12.593   7.716   7.978  0.3442 -0.0943 -0.2483
  803loPI   C6A12844  12.591   7.390   8.410  0.0643 -0.1104  0.0810
  803loPI   C1B12845  13.563   7.506   6.604 -0.1443 -0.0313  0.0307
  803loPI   C2B12846  13.384   7.441   7.039 -0.0962  0.3638 -0.3866
  803loPI   C3B12847  13.461   7.489   7.466  0.1542 -0.1989 -0.0582
  803loPI   C4B12848  13.761   7.709   7.805 -0.0104  0.0275 -0.4228
  804loPI    C112849   8.359  17.667   4.991  0.0578 -0.0141 -0.0827
  804loPI    C212850   8.424  18.062   4.988  0.2879 -0.0499 -0.0410
  804loPI    C312851   8.369  17.865   4.644  0.0734  0.0331 -0.0555
  804loPI   PO412852   8.514  17.575   5.149 -0.1390 -0.0184  0.0543
  804loPI   GL112853   8.660  17.382   5.473  0.1562 -0.2295 -0.4303
  804loPI   GL212854   8.804  17.123   5.308  0.0866 -0.2619  0.1637
  804loPI   C1A12855   8.517  17.349   5.866  0.0234 -0.1124 -0.0204
  804loPI   C2A12856   8.489  17.360   6.321  0.2396 -0.0091  0.0964
  804loPI   C3A12857   8.464  17.350   6.774  0.0131 -0.1761 -0.1128
  804loPI   C4A12858   8.461  17.188   7.173  0.2791  0.1851  0.1050
  804loPI   C5A12859   8.655  17.371   7.463  0.2695 -0.2197  0.1853
  804loPI   C6A12860   8.961  17.540   7.879 -0.0997 -0.0693 -0.2419
  804loPI   C1B12861   8.745  16.890   5.646 -0.1539  0.3559 -0.0687
  804loPI   C2B12862   8.760  16.977   6.065 -0.0120  0.0217 -0.0026
  804loPI   C3B12863   8.800  16.942   6.440  0.1969  0.2871 -0.1312
  804loPI   C4B12864   8.645  16.888   6.794 -0.2952 -0.3918 -0.1411
  805loPI    C112865   1.432   9.023   4.815  0.1334 -0.1408 -0.0058
  805loPI    C212866   1.464   9.404   4.698  0.1031 -0.0801  0.1802
  805loPI    C312867   1.211   9.157   4.510  0.0675  0.0109  0.1078
  805loPI   PO412868   1.572   9.036   4.989 -0.1969 -0.0549  0.0871
  805loPI   GL112869   1.533   9.157   5.434  0.3195  0.0147  0.2247
  805loPI   GL212870   1.317   9.435   5.327  0.0314  0.0004  0.1482
  805loPI   C1A12871   1.654   9.219   5.866 -0.0858 -0.1229  0.0073
  805loPI   C2A12872   1.618   9.137   6.297 -0.0012  0.1749  0.0809
  805loPI   C3A12873   1.538   9.072   6.810 -0.0705  0.1634 -0.1097
  805loPI   C4A12874   1.400   9.230   7.157  0.1988  0.0607  0.0905
  805loPI   C5A12875   1.277   9.227   7.595 -0.2524  0.1940 -0.3304
  805loPI   C6A12876   1.047   8.920   7.903  0.2455  0.0501 -0.2735
  805loPI   C1B12877   1.260   9.617   5.774  0.2560  0.4875  0.1875
  805loPI   C2B12878   1.116   9.765   6.213  0.1749 -0.0710 -0.2243
  805loPI   C3B12879   0.886   9.809   6.536  0.1610 -0.3135  0.0083
  805loPI   C4B12880   0.734   9.878   6.932  0.1226  0.0134  0.1065
  806loPI    C112881  12.278  17.450   5.077 -0.1032 -0.2617 -0.1301
  806loPI    C212882  12.541  17.557   4.796  0.2289 -0.1453  0.2153
  806loPI    C312883  12.157  17.665   4.762  0.1623 -0.5279 -0.4207
  806loPI   PO412884  12.330  17.628   5.269 -0.2010  0.0791 -0.0541
  806loPI   GL112885  12.150  17.858   5.545 -0.0989  0.0427  0.2143
  806loPI   GL212886  11.754  17.978   5.522  0.1943 -0.0441  0.0018
  806loPI   C1A12887  12.077  17.734   5.974  0.1043 -0.0462 -0.1756
  806loPI   C2A12888  11.885  17.654   6.408 -0.1742 -0.1908 -0.1057
  806loPI   C3A12889  11.814  17.526   6.758 -0.0674  0.1148  0.0509
  806loPI   C4A12890  11.983  17.595   7.139  0.2789 -0.3165  0.0228
  806loPI   C5A12891  12.263  17.645   7.512  0.0476  0.1131  0.0750
  806loPI   C6A12892  12.413  17.599   7.880 -0.1421 -0.2418  0.0739
  806loPI   C1B12893  11.609  18.034   5.985  0.3420  0.3796  0.0753
  806loPI   C2B12894  11.592  18.062   6.367  0.0859  0.0665 -0.3183
  806loPI   C3B12895  11.853  18.091   6.679  0.2406  0.1274 -0.1422
  806loPI   C4B12896  11.923  18.098   7.124 -0.1003  0.0504 -0.2703
  807loPI    C112897  15.982  10.356   5.086  0.1178 -0.1440 -0.1904
  807loPI    C212898  16.036  10.626   4.796 -0.0089  0.1035  0.0128
  807loPI    C312899  15.704  10.404   4.803  0.0210  0.0563 -0.0636
  807loPI   PO412900  16.081  10.475   5.297 -0.1700 -0.2752 -0.0013
  807loPI   GL112901  16.095  10.630   5.739 -0.2318 -0.0104  0.0370
  807loPI   GL212902  15.796  10.690   5.786 -0.1313 -0.1552 -0.0861
  807loPI   C1A12903  16.337  10.512   6.150 -0.1680  0.1391  0.1135
  807loPI   C2A12904  16.276  10.407   6.510  0.0433  0.0526  0.0868
  807loPI   C3A12905  16.192  10.486   6.966  0.2037 -0.4368 -0.1476
  807loPI   C4A12906  16.162  10.411   7.376  0.1635 -0.0111  0.2818
  807loPI   C5A12907  16.037  10.203   7.711 -0.0987 -0.2359 -0.0006
  807loPI   C6A12908  15.900  10.053   8.093 -0.0635  0.2665  0.0999
  807loPI   C1B12909  15.697  10.600   6.208  0.1378 -0.0526  0.0150
  807loPI   C2B12910  15.830  10.671   6.650  0.1925  0.0986 -0.0684
  807loPI   C3B12911  15.719  10.557   7.080  0.1817  0.0728  0.0303
  807loPI   C4B12912  15.627  10.563   7.645 -0.2950 -0.0925  0.0233
  808loPI    C112913   0.913  13.132   4.724 -0.0113 -0.0902 -0.1451
  808loPI    C212914   0.664  13.247   4.433 -0.1986  0.0135  0.0532
  808loPI    C312915   0.982  13.020   4.347 -0.1985  0.1235 -0.2447
  808loPI   PO412916   0.784  13.028   4.955 -0.4899  0.1617  0.0380
  808loPI   GL112917   0.574  12.746   5.309  0.0173  0.0651  0.1621
  808loPI   GL212918   0.317  12.867   5.454  0.1511 -0.2573 -0.1754
  808loPI   C1A12919   0.795  12.653   5.741  0.1491 -0.0969 -0.2463
  808loPI   C2A12920   0.825  12.673   6.234 -0.0024 -0.0193  0.0534
  808loPI   C3A12921   0.813  12.759   6.663 -0.1697 -0.0360  0.3516
  808loPI   C4A12922   0.877  12.671   7.137 -0.0714 -0.1160  0.2336
  808loPI   C5A12923   0.795  12.789   7.523  0.0644  0.0343 -0.1242
  808loPI   C6A12924   0.863  12.881   8.017 -0.1397 -0.0315 -0.2307
  808loPI   C1B12925   0.369  12.890   5.949 -0.1532 -0.0603 -0.2240
  808loPI   C2B12926   0.371  12.800   6.384 -0.1108  0.0249  0.0773
  808loPI   C3B12927   0.394  12.847   6.840  0.0434  0.0961  0.0359
  808loPI   C4B12928   0.317  12.831   7.278  0.0720 -0.4246  0.0974
  809loPI    C112929   7.274  10.586   5.112  0.1414  0.1706 -0.1162
  809loPI    C212930   7.221  10.332   4.807  0.0444  0.0551 -0.0048
  809loPI    C312931   7.577  10.357   4.987  0.0194 -0.0974  0.0674
  809loPI   PO412932   7.022  10.460   5.301  0.4864 -0.0719  0.1369
  809loPI   GL112933   6.965  10.431   5.839 -0.2054 -0.1079 -0.0838
  809loPI   GL212934   7.071  10.787   5.737  0.2758 -0.1689  0.0652
  809loPI   C1A12935   7.174  10.318   6.263 -0.0571  0.1412 -0.0478
  809loPI   C2A12936   7.186  10.559   6.728 -0.3964 -0.0473  0.0301
  809loPI   C3A12937   7.093  10.643   7.160 -0.0335  0.2367 -0.0146
  809loPI   C4A12938   6.691  10.803   7.355  0.2504  0.1269 -0.2127
  809loPI   C5A12939   6.535  11.097   7.603 -0.2410  0.1195  0.1757
  809loPI   C6A12940   6.783  11.456   7.855  0.0180  0.0171  0.1611
  809loPI   C1B12941   7.057  10.820   6.170  0.0135 -0.0136 -0.0164
  809loPI   C2B12942   7.165  11.024   6.508 -0.1115  0.1146  0.1072
  809loPI   C3B12943   6.870  11.072   6.871 -0.1877  0.0325 -0.0286
  809loPI   C4B12944   6.842  11.360   7.268  0.4448 -0.4681 -0.1411
  810loPI    C112945  10.486  18.468   4.702  0.0011 -0.1214  0.1642
  810loPI    C212946  10.802  18.488   4.458 -0.0182 -0.2286  0.1300
  810loPI    C312947  10.435  18.447   4.306 -0.0583 -0.0138  0.1657
  810loPI   PO412948  10.639  18.714   4.905 -0.1333 -0.1529  0.1835
  810loPI   GL112949  10.515  19.153   5.211  0.2729  0.0342  0.0168
  810loPI   GL212950  10.314  18.873   5.257  0.1758 -0.0686 -0.2432
  810loPI   C1A12951  10.645  19.236   5.586  0.1432 -0.4802 -0.1308
  810loPI   C2A12952  10.529  19.415   5.915  0.0256 -0.1165  0.2357
  810loPI   C3A12953  10.591  19.593   6.238  0.2097  0.2372 -0.1608
  810loPI   C4A12954  10.502  19.501   6.632  0.0572  0.1631  0.1344
  810loPI   C5A12955  10.353  19.850   6.866 -0.0643 -0.1322 -0.0801
  810loPI   C6A12956  10.411  20.110   7.318 -0.0807  0.1081  0.0637
  810loPI   C1B12957  10.541  18.781   5.703  0.1477 -0.0230  0.1982
  810loPI   C2B12958  10.255  18.563   5.989 -0.0985  0.1782 -0.4193
  810loPI   C3B12959   9.880  18.605   6.350  0.0360  0.4889  0.3022
  810loPI   C4B12960   9.851  18.990   6.545  0.2972  0.1472 -0.1134
  811loPI    C112961  12.622   5.084   4.944 -0.0201 -0.0977  0.1858
  811loPI    C212962  12.773   4.715   4.984  0.1863 -0.0365 -0.0077
  811loPI    C312963  12.549   4.807   4.665  0.1399  0.0072  0.0372
  811loPI   PO412964  12.494   5.157   5.204  0.0277 -0.0029 -0.1302
  811loPI   GL112965  12.292   4.951   5.539  0.0572 -0.2241 -0.0342
  811loPI   GL212966  12.528   4.907   5.631 -0.3136 -0.0413 -0.0715
  811loPI   C1A12967  12.311   5.177   6.014  0.1670  0.1904  0.2591
  811loPI   C2A12968  12.197   5.149   6.372 -0.1860  0.2341  0.0860
  811loPI   C3A12969  12.187   5.054   6.860  0.1620 -0.0127  0.2290
  811loPI   C4A12970  12.070   5.028   7.272  0.3009 -0.1029  0.3950
  811loPI   C5A12971  12.070   4.968   7.704  0.1527  0.0235  0.2075
  811loPI   C6A12972  12.153   4.889   8.109 -0.3616 -0.1560  0.0303
  811loPI   C1B12973  12.722   4.924   6.059 -0.0598 -0.2608 -0.3507
  811loPI   C2B12974  12.616   4.857   6.509  0.0850  0.0798 -0.0990
  811loPI   C3B12975  12.618   4.833   6.928 -0.0568  0.1643  0.1778
  811loPI   C4B12976  12.480   4.731   7.282  0.0610  0.2115 -0.2507
  812loPI    C112977   7.540  13.357   4.615 -0.1087 -0.3519 -0.0600
  812loPI    C212978   7.744  13.665   4.463 -0.0218 -0.3913 -0.0242
  812loPI    C312979   7.376  13.583   4.329 -0.0701 -0.2339  0.0108
  812loPI   PO412980   7.557  13.395   4.955  0.0888  0.1423 -0.2769
  812loPI   GL112981   7.746  13.400   5.282  0.0645 -0.4780 -0.1228
  812loPI   GL212982   8.061  13.434   5.207  0.1577 -0.4005 -0.1903
  812loPI   C1A12983   7.691  13.611   5.687  0.0402  0.0691 -0.0698
  812loPI   C2A12984   7.663  13.736   6.075  0.0513  0.1178  0.1692
  812loPI   C3A12985   7.687  13.756   6.421 -0.0528 -0.2365  0.1330
  812loPI   C4A12986   7.704  13.809   6.827 -0.1550  0.3176  0.0492
  812loPI   C5A12987   8.017  13.956   7.225  0.0521  0.2609 -0.1824
  812loPI   C6A12988   8.351  13.994   7.566  0.0197 -0.0222  0.0710
  812loPI   C1B12989   8.218  13.516   5.577  0.0903 -0.2844  0.0408
  812loPI   C2B12990   8.188  13.679   5.989 -0.0982 -0.1966 -0.0086
  812loPI   C3B12991   8.210  13.759   6.389 -0.0346  0.0315 -0.2869
  812loPI   C4B12992   8.238  13.773   6.820  0.0363 -0.2985 -0.2747
  813loPI    C112993  12.390  13.319   5.104 -0.1968 -0.0988  0.0337
  813loPI    C212994  12.234  13.014   4.896 -0.2739 -0.0643  0.0403
  813loPI    C312995  12.410  13.318   4.704 -0.3018 -0.0560  0.0279
  813loPI   PO412996  12.274  13.336   5.299 -0.0236 -0.0844 -0.0352
  813loPI   GL112997  11.975  13.214   5.569  0.0431 -0.3522  0.2011
  813loPI   GL212998  11.794  13.369   5.670  0.2101 -0.0267 -0.1682
  813loPI   C1A12999  12.009  12.924   5.846 -0.1355  0.2895  0.0464
  813loPI   C2A13000  11.900  12.834   6.261 -0.0452  0.0917  0.1579
  813loPI   C3A13001  11.930  12.878   6.666 -0.0134  0.0932  0.1158
  813loPI   C4A13002  11.921  13.143   7.101  0.1934 -0.0334 -0.0606
  813loPI   C5A13003  12.042  12.817   7.408  0.3411  0.0018 -0.0623
  813loPI   C6A13004  12.145  12.477   7.678  0.0566  0.1811 -0.3787
  813loPI   C1B13005  11.720  13.399   6.076 -0.2919 -0.0454  0.3592
  813loPI   C2B13006  11.755  13.587   6.558 -0.1193 -0.1044  0.0049
  813loPI   C3B13007  12.015  13.692   6.888 -0.1556  0.1047  0.1065
  813loPI   C4B13008  12.053  13.716   7.288 -0.1020 -0.5972  0.2618
  814loPI    C113009   1.915   5.770   5.384  0.1508 -0.0225  0.0491
  814loPI    C213010   1.831   5.662   5.008  0.0208  0.0577  0.0544
  814loPI    C313011   1.534   5.726   5.269  0.1121 -0.0505  0.1859
  814loPI   PO413012   2.103   5.847   5.389  0.2537 -0.1987 -0.0136
  814loPI   GL113013   2.340   5.811   5.800  0.0932 -0.0150  0.1388
  814loPI   GL213014   2.044   5.644   5.829 -0.0474  0.3693 -0.1000
  814loPI   C1A13015   2.493   5.863   6.093 -0.1486 -0.1385 -0.2746
  814loPI   C2A13016   2.523   5.877   6.560  0.3604  0.0534 -0.0713
  814loPI   C3A13017   2.461   5.835   6.962  0.2059 -0.1717 -0.0782
  814loPI   C4A13018   2.055   5.475   7.194 -0.2041  0.1216  0.0242
  814loPI   C5A13019   2.045   5.315   7.585 -0.2267 -0.1729 -0.1781
  814loPI   C6A13020   1.833   5.230   8.014  0.0757 -0.1361 -0.0386
  814loPI   C1B13021   2.035   5.486   6.203 -0.0785 -0.4142 -0.0772
  814loPI   C2B13022   1.998   5.714   6.628 -0.1157 -0.0040  0.0056
  814loPI   C3B13023   1.993   5.965   7.092  0.0126  0.1534 -0.1624
  814loPI   C4B13024   1.866   6.234   7.348  0.1374 -0.3819  0.1632
  815loPI    C113025  12.313   8.682   5.343 -0.0985  0.1068  0.0826
  815loPI    C213026  12.546   8.502   5.072 -0.1717 -0.0878  0.1463
  815loPI    C313027  12.574   8.897   5.131  0.2998 -0.1391  0.3111
  815loPI   PO413028  12.351   8.550   5.519 -0.0904  0.0679  0.0728
  815loPI   GL113029  12.469   8.546   5.864  0.2624  0.3788  0.1990
  815loPI   GL213030  12.641   8.450   6.240  0.0423 -0.0952  0.0458
  815loPI   C1A13031  12.146   8.688   6.175 -0.2587 -0.1320 -0.3881
  815loPI   C2A13032  11.915   8.632   6.493 -0.1968  0.3341  0.0438
  815loPI   C3A13033  11.802   8.625   6.972  0.0891  0.1974 -0.2406
  815loPI   C4A13034  11.508   8.614   7.302  0.1807 -0.1490  0.1620
  815loPI   C5A13035  11.364   8.428   7.581 -0.2630 -0.0275 -0.4590
  815loPI   C6A13036  11.264   8.744   7.870 -0.2288 -0.0920 -0.0366
  815loPI   C1B13037  12.469   8.511   6.608 -0.0116 -0.2225  0.0746
  815loPI   C2B13038  12.294   8.783   6.795  0.2527 -0.0414 -0.0242
  815loPI   C3B13039  12.557   9.091   6.729  0.0842  0.0455  0.1558
  815loPI   C4B13040  12.864   9.105   6.661 -0.2350 -0.1630  0.0609
  816loPI    C113041  17.364  15.455   5.398  0.0877 -0.0125 -0.2987
  816loPI    C213042  17.307  15.222   5.078 -0.0589 -0.1987 -0.1397
  816loPI    C313043  17.402  15.058   5.431 -0.0905 -0.0109 -0.0429
  816loPI   PO413044  17.076  15.659   5.376  0.0516  0.1928 -0.0263
  816loPI   GL113045  17.125  15.964   5.725 -0.0318  0.1014 -0.3079
  816loPI   GL213046  16.744  15.877   5.774 -0.2026 -0.1685  0.1339
  816loPI   C1A13047  17.384  16.219   6.015 -0.0250 -0.1042 -0.2076
  816loPI   C2A13048  17.432  16.396   6.364 -0.1764 -0.0888  0.1806
  816loPI   C3A13049  17.347  16.404   6.791  0.1076  0.0989  0.0357
  816loPI   C4A13050  17.080  16.399   7.150  0.4301  0.0046 -0.1976
  816loPI   C5A13051  16.967  16.481   7.526  0.0704  0.1979  0.0340
  816loPI   C6A13052  16.666  16.694   7.892  0.0962 -0.0362  0.0662
  816loPI   C1B13053  16.383  15.917   6.112 -0.0234  0.0505 -0.2993
  816loPI   C2B13054  16.205  15.953   6.521 -0.0549  0.1244  0.1799
  816loPI   C3B13055  16.099  16.007   6.947 -0.2100  0.1313 -0.2018
  816loPI   C4B13056  16.240  15.829   7.265  0.1191  0.0782 -0.0583
  817loPI    C113057  13.504  17.331   5.381 -0.0183  0.2062 -0.1564
  817loPI    C213058  13.889  17.374   5.481  0.0543 -0.0682 -0.3054
  817loPI    C313059  13.704  17.657   5.267  0.1858  0.0427 -0.2732
  817loPI   PO413060  13.451  17.200   5.600 -0.0045  0.0801 -0.0765
  817loPI   GL113061  13.553  17.237   6.084 -0.0236 -0.2163  0.1133
  817loPI   GL213062  13.914  17.246   5.968  0.3059 -0.2329 -0.2156
  817loPI   C1A13063  13.464  17.562   6.438  0.1156  0.2728  0.2879
  817loPI   C2A13064  13.508  17.574   6.869  0.0990 -0.0527  0.0641
  817loPI   C3A13065  13.764  17.749   7.305 -0.0994  0.0057  0.1450
  817loPI   C4A13066  13.882  18.081   7.547  0.2861 -0.1307 -0.0609
  817loPI   C5A13067  14.026  18.443   7.782 -0.3580  0.1286  0.1560
  817loPI   C6A13068  14.469  18.538   7.772 -0.1941  0.0116 -0.1569
  817loPI   C1B13069  13.935  17.224   6.446  0.1834 -0.3016  0.0364
  817loPI   C2B13070  13.985  16.781   6.656  0.1472 -0.2661  0.0313
  817loPI   C3B13071  14.376  16.720   6.596 -0.2367  0.2139 -0.0345
  817loPI   C4B13072  14.674  16.894   6.913 -0.2781 -0.0961 -0.0540
  818loPI    C113073  14.834   6.078   5.188  0.1253 -0.0080 -0.0092
  818loPI    C213074  15.027   6.279   4.901  0.0993  0.2050  0.1200
  818loPI    C313075  14.627   6.275   4.907  0.0992  0.0513  0.0512
  818loPI   PO413076  14.929   5.824   5.220  0.3872  0.0523 -0.1086
  818loPI   GL113077  14.946   5.649   5.614  0.1844  0.0018  0.0245
  818loPI   GL213078  15.183   5.517   5.881  0.2369  0.1638  0.1644
  818loPI   C1A13079  14.732   5.813   5.947  0.3051  0.1172 -0.1408
  818loPI   C2A13080  14.519   5.849   6.328  0.0602  0.0688 -0.0311
  818loPI   C3A13081  14.439   5.944   6.761 -0.2854 -0.0033  0.1561
  818loPI   C4A13082  14.422   6.050   7.219 -0.2083  0.0031  0.1785
  818loPI   C5A13083  14.310   5.974   7.541  0.2585  0.0941  0.0438
  818loPI   C6A13084  14.102   6.111   7.792  0.1385  0.0041 -0.1909
  818loPI   C1B13085  15.013   5.484   6.267 -0.0489  0.0673 -0.1923
  818loPI   C2B13086  14.897   5.714   6.708  0.2126  0.1323 -0.1940
  818loPI   C3B13087  14.817   5.746   7.194  0.3711  0.1518  0.2285
  818loPI   C4B13088  14.856   5.925   7.682  0.0121  0.0992  0.1171
  819loPI    C113089   1.029  16.978   4.661  0.1223  0.2584  0.0951
  819loPI    C213090   1.235  17.139   4.359  0.0393  0.2786  0.0491
  819loPI    C313091   1.183  16.743   4.377 -0.1724  0.2974 -0.1019
  819loPI   PO413092   1.094  17.075   4.861 -0.0936  0.1212  0.0621
  819loPI   GL113093   0.857  17.077   5.208  0.1981 -0.1228 -0.0368
  819loPI   GL213094   0.736  16.922   5.382  0.1186 -0.0043 -0.2266
  819loPI   C1A13095   1.152  17.199   5.495  0.0090 -0.0947 -0.0270
  819loPI   C2A13096   1.201  17.272   5.978 -0.1127  0.4955 -0.1637
  819loPI   C3A13097   1.306  17.129   6.493 -0.2661  0.0847 -0.2212
  819loPI   C4A13098   1.289  17.138   6.925  0.3543  0.0786 -0.1047
  819loPI   C5A13099   1.224  17.052   7.344 -0.0509  0.0676 -0.1027
  819loPI   C6A13100   1.463  16.843   7.628 -0.0529 -0.0974  0.4099
  819loPI   C1B13101   0.839  16.967   5.834 -0.3546 -0.1139  0.1085
  819loPI   C2B13102   0.905  16.843   6.228  0.2656 -0.2171 -0.3547
  819loPI   C3B13103   0.934  16.849   6.636  0.0768 -0.3956 -0.2142
  819loPI   C4B13104   0.920  16.495   6.955  0.0791  0.1241 -0.0982
  820loPI    C113105   7.054   5.899   4.885 -0.0978  0.1579 -0.1497
  820loPI    C213106   7.091   5.580   4.646  0.0411  0.1939 -0.1771
  820loPI    C313107   6.869   5.892   4.531 -0.2489  0.0305 -0.0693
  820loPI   PO413108   7.040   5.763   5.101  0.1289  0.0369 -0.0288
  820loPI   GL113109   6.809   5.465   5.422  0.1576 -0.0035  0.0611
  820loPI   GL213110   6.891   5.127   5.449 -0.0967  0.1836  0.1875
  820loPI   C1A13111   6.875   5.653   5.655  0.1352  0.1245  0.0404
  820loPI   C2A13112   6.883   5.634   6.102 -0.0135 -0.2235  0.1329
  820loPI   C3A13113   6.898   5.587   6.631 -0.1090 -0.0597 -0.1644
  820loPI   C4A13114   6.764   5.576   6.995 -0.3967 -0.0254 -0.1105
  820loPI   C5A13115   6.913   5.567   7.455  0.0788  0.0168 -0.0140
  820loPI   C6A13116   6.822   5.377   7.912  0.0111 -0.0747 -0.1093
  820loPI   C1B13117   6.773   5.200   5.872  0.0126  0.0321 -0.1577
  820loPI   C2B13118   6.843   5.144   6.327  0.1881 -0.2858 -0.2529
  820loPI   C3B13119   6.863   5.112   6.791  0.2460  0.1725 -0.2344
  820loPI   C4B13120   6.756   5.140   7.275 -0.0341  0.1686  0.2157
  821loPI    C113121  11.161   3.642   4.664  0.2584 -0.0812  0.1451
  821loPI    C213122  11.029   3.316   4.472 -0.0240 -0.0660  0.3081
  821loPI    C313123  11.420   3.362   4.543  0.0527 -0.2092 -0.0063
  821loPI   PO413124  10.952   3.699   4.862  0.1236  0.1921 -0.1788
  821loPI   GL113125  10.964   4.037   5.100  0.5136 -0.0215  0.2185
  821loPI   GL213126  10.757   3.935   5.265  0.1966 -0.0300 -0.1900
  821loPI   C1A13127  11.223   4.054   5.466 -0.1731  0.2160 -0.0410
  821loPI   C2A13128  11.259   4.034   5.942 -0.0157 -0.0065 -0.0141
  821loPI   C3A13129  11.288   4.056   6.396 -0.1883  0.0016  0.0368
  821loPI   C4A13130  11.255   4.004   6.800  0.0666  0.0861 -0.2349
  821loPI   C5A13131  11.152   4.051   7.219 -0.1109 -0.3760 -0.1553
  821loPI   C6A13132  10.922   3.755   7.588  0.2963 -0.1228 -0.0834
  821loPI   C1B13133  10.830   3.852   5.771 -0.2540 -0.0188 -0.1835
  821loPI   C2B13134  10.831   3.799   6.282  0.0285 -0.1765 -0.1436
  821loPI   C3B13135  10.796   3.750   6.741 -0.1941 -0.2039 -0.0260
  821loPI   C4B13136  10.909   3.609   7.118 -0.0725  0.1239 -0.1401
  822loPI    C113137   2.018  14.948   4.842  0.2374 -0.0217  0.3412
  822loPI    C213138   2.132  14.687   4.561  0.0226 -0.0266  0.2563
  822loPI    C313139   2.165  15.080   4.494 -0.0681 -0.0273  0.2070
  822loPI   PO413140   2.076  14.839   5.084 -0.0546 -0.1153  0.2509
  822loPI   GL113141   2.007  14.798   5.511  0.0194 -0.3818  0.0905
  822loPI   GL213142   2.374  14.902   5.507 -0.1958 -0.1622 -0.1331
  822loPI   C1A13143   1.902  14.737   5.870 -0.1657 -0.3235  0.0947
  822loPI   C2A13144   1.861  14.453   6.179 -0.2182 -0.3460 -0.0075
  822loPI   C3A13145   1.923  14.151   6.418 -0.2204  0.0734 -0.0585
  822loPI   C4A13146   1.908  14.201   6.841 -0.3462  0.0459 -0.1029
  822loPI   C5A13147   1.685  13.816   7.106 -0.4504 -0.0087 -0.1853
  822loPI   C6A13148   1.736  13.482   7.407  0.0049 -0.1389  0.1513
  822loPI   C1B13149   2.355  14.927   6.044  0.1650  0.2859  0.0932
  822loPI   C2B13150   1.997  15.037   6.264  0.1651  0.0157 -0.1706
  822loPI   C3B13151   1.838  14.741   6.616  0.1943  0.0576 -0.1150
  822loPI   C4B13152   1.643  14.664   6.976  0.0338  0.0068  0.1627
  823loPI    C113153  11.579  13.544   4.804  0.0784 -0.3150  0.0954
  823loPI    C213154  11.976  13.500   4.810  0.0804 -0.3221 -0.0639
  823loPI    C313155  11.800  13.690   4.505 -0.0175 -0.1063  0.1240
  823loPI   PO413156  11.491  13.541   5.069 -0.1418  0.3973 -0.0082
  823loPI   GL113157  11.383  13.674   5.498  0.1401 -0.0741  0.0412
  823loPI   GL213158  11.593  13.980   5.487 -0.3313 -0.0782 -0.1336
  823loPI   C1A13159  11.339  13.407   5.810  0.0465 -0.2148 -0.0211
  823loPI   C2A13160  11.286  13.521   6.285 -0.2076  0.1329 -0.0532
  823loPI   C3A13161  11.316  13.560   6.732 -0.0790 -0.0039  0.1615
  823loPI   C4A13162  11.493  13.506   7.212 -0.2510 -0.2315 -0.0475
  823loPI   C5A13163  11.691  13.240   7.546  0.1101  0.0917 -0.1273
  823loPI   C6A13164  12.208  13.221   7.666  0.2599 -0.0214  0.0112
  823loPI   C1B13165  11.587  13.940   5.971  0.2607 -0.0565  0.0811
  823loPI   C2B13166  11.417  13.993   6.414 -0.0741  0.1077  0.1731
  823loPI   C3B13167  11.562  13.979   6.844  0.1952 -0.2416  0.1895
  823loPI   C4B13168  11.558  14.178   7.232  0.1237 -0.0896 -0.1017
  824loPI    C113169   6.523  10.439   4.856 -0.0202 -0.0022  0.0360
  824loPI    C213170   6.732  10.245   4.576 -0.0342 -0.2388  0.1864
  824loPI    C313171   6.337  10.294   4.534 -0.0011 -0.0727  0.0566
  824loPI   PO413172   6.582  10.366   5.050  0.0775 -0.0277  0.0886
  824loPI   GL113173   6.489  10.419   5.450 -0.1932 -0.0856  0.1903
  824loPI   GL213174   6.507  10.305   5.733 -0.2445 -0.0191 -0.0980
  824loPI   C1A13175   6.603  10.763   5.649  0.1521  0.1985 -0.3706
  824loPI   C2A13176   6.642  11.026   6.009 -0.1314 -0.2096 -0.1543
  824loPI   C3A13177   6.591  10.951   6.351 -0.0840 -0.1627 -0.0226
  824loPI   C4A13178   6.706  10.641   6.645  0.2630  0.0517  0.2165
  824loPI   C5A13179   6.572  10.465   6.959 -0.0126  0.0179 -0.1596
  824loPI   C6A13180   6.432  10.290   7.264 -0.1704  0.2569  0.1512
  824loPI   C1B13181   6.591  10.494   6.151 -0.2065  0.1621 -0.2284
  824loPI   C2B13182   6.684  10.181   6.464 -0.3648  0.2357 -0.2307
  824loPI   C3B13183   6.627   9.872   6.813  0.3398  0.0598 -0.1790
  824loPI   C4B13184   6.363   9.532   7.075  0.2173  0.3393 -0.0473
  825loPI    C113185   7.823  17.370   4.801  0.1703  0.1175  0.1947
  825loPI    C213186   8.122  17.375   4.535 -0.0968 -0.1077 -0.1161
  825loPI    C313187   7.862  17.071   4.539 -0.4336  0.1751  0.0258
  825loPI   PO413188   7.985  17.374   5.075 -0.0446 -0.1273  0.3392
  825loPI   GL113189   8.112  17.360   5.432 -0.0027  0.1345  0.2127
  825loPI   GL213190   8.189  17.058   5.510 -0.0461  0.1230  0.0966
  825loPI   C1A13191   7.970  17.337   5.860 -0.3443 -0.1927  0.0212
  825loPI   C2A13192   7.979  17.450   6.280 -0.0760  0.4045  0.0761
  825loPI   C3A13193   7.990  17.414   6.756  0.2181 -0.0929 -0.0308
  825loPI   C4A13194   7.917  17.284   7.098 -0.0166  0.0766 -0.2323
  825loPI   C5A13195   7.864  16.973   7.420 -0.0461  0.0068 -0.1101
  825loPI   C6A13196   7.513  16.836   7.662 -0.2495 -0.2256  0.0372
  825loPI   C1B13197   8.245  16.917   5.927  0.1303  0.2273 -0.3421
  825loPI   C2B13198   8.239  16.937   6.399  0.3785 -0.2400 -0.1719
  825loPI   C3B13199   8.127  16.893   6.799 -0.0008 -0.0206 -0.1872
  825loPI   C4B13200   8.185  16.682   7.159 -0.0588 -0.1625 -0.2255
  826loPI    C113201   6.228   3.488   4.673 -0.2294 -0.0217  0.1781
  826loPI    C213202   6.588   3.589   4.815 -0.0551 -0.4476  0.0562
  826loPI    C313203   6.427   3.796   4.513 -0.0100 -0.1248  0.2487
  826loPI   PO413204   5.991   3.396   4.840 -0.2900 -0.2564 -0.3120
  826loPI   GL113205   5.914   3.621   5.255 -0.2342  0.1285  0.3046
  826loPI   GL213206   5.588   3.536   5.181  0.0578 -0.1648  0.1236
  826loPI   C1A13207   5.811   3.753   5.704 -0.1239 -0.2148 -0.1535
  826loPI   C2A13208   5.868   3.623   6.099  0.2127 -0.0125  0.1117
  826loPI   C3A13209   5.957   3.554   6.574 -0.0920 -0.1454 -0.0493
  826loPI   C4A13210   5.887   3.617   7.035 -0.0155 -0.3403 -0.1477
  826loPI   C5A13211   5.591   3.495   7.268 -0.2157  0.1099  0.0374
  826loPI   C6A13212   5.249   3.507   7.491 -0.0632 -0.2839  0.0758
  826loPI   C1B13213   5.366   3.411   5.547  0.0256  0.1483 -0.2849
  826loPI   C2B13214   5.425   3.470   5.981 -0.3466  0.0121  0.2525
  826loPI   C3B13215   5.506   3.303   6.386 -0.0751 -0.2280 -0.3607
  826loPI   C4B13216   5.352   3.262   6.795  0.0613 -0.2915  0.1143
  827loPI    C113217  16.342  14.726   5.083 -0.1251  0.1412 -0.1240
  827loPI    C213218  16.366  14.991   4.785  0.0763  0.0446 -0.1953
  827loPI    C313219  16.425  14.603   4.711 -0.2587 -0.0275 -0.0993
  827loPI   PO413220  16.443  14.868   5.325 -0.3145  0.0997 -0.1406
  827loPI   GL113221  16.640  14.884   5.777 -0.2010 -0.0081 -0.0522
  827loPI   GL213222  16.487  14.572   5.919  0.0551 -0.2141  0.1095
  827loPI   C1A13223  16.921  14.842   6.232  0.1640  0.1731  0.4144
  827loPI   C2A13224  17.123  14.927   6.680  0.2236  0.0213  0.0278
  827loPI   C3A13225  17.319  14.879   7.060 -0.2061  0.4324 -0.2495
  827loPI   C4A13226  17.100  14.937   7.513 -0.0485 -0.0303 -0.0276
  827loPI   C5A13227  16.760  15.220   7.767  0.0773 -0.1562  0.0752
  827loPI   C6A13228  16.455  15.204   8.186 -0.0597  0.2990  0.2988
  827loPI   C1B13229  16.571  14.527   6.375 -0.4820 -0.0792  0.1997
  827loPI   C2B13230  16.463  14.318   6.783 -0.0706  0.2605  0.1428
  827loPI   C3B13231  16.326  14.149   7.139  0.1870  0.2098  0.0211
  827loPI   C4B13232  16.340  13.874   7.459  0.0691  0.0221 -0.1525
  828loPI    C113233  11.295  15.124   4.932 -0.1299  0.0478  0.1128
  828loPI    C213234  11.126  15.277   4.603  0.0703 -0.2215 -0.1207
  828loPI    C313235  11.362  15.505   4.831  0.0188 -0.0636 -0.2238
  828loPI   PO413236  11.088  14.982   5.082 -0.2946 -0.2773 -0.5646
  828loPI   GL113237  10.952  14.992   5.399 -0.0420  0.1237 -0.1355
  828loPI   GL213238  10.825  15.274   5.420  0.0505  0.3042  0.0433
  828loPI   C1A13239  11.021  15.240   5.903  0.3460 -0.1274 -0.1326
  828loPI   C2A13240  10.840  15.327   6.266  0.0927 -0.0455 -0.1590
  828loPI   C3A13241  10.840  15.500   6.721  0.0280  0.0525 -0.2484
  828loPI   C4A13242  10.847  15.651   7.222  0.0967 -0.1450  0.1813
  828loPI   C5A13243  10.828  15.649   7.687  0.0208  0.1283  0.4213
  828loPI   C6A13244  10.530  15.666   8.055 -0.0224  0.2716 -0.3087
  828loPI   C1B13245  10.817  15.627   5.632 -0.0072  0.1908  0.0653
  828loPI   C2B13246  10.634  15.739   5.952 -0.0669  0.2912 -0.0974
  828loPI   C3B13247  10.688  15.833   6.408 -0.0754 -0.2080  0.0510
  828loPI   C4B13248  10.630  15.918   6.861 -0.1940 -0.0888 -0.0170
  829loPI    C113249   9.800  17.646   4.756  0.0249 -0.5214 -0.0649
  829loPI    C213250   9.519  17.701   4.476  0.0606 -0.0872 -0.0230
  829loPI    C313251   9.906  17.737   4.381  0.0816 -0.1516  0.0367
  829loPI   PO413252   9.675  17.386   4.924 -0.0142 -0.0509 -0.2029
  829loPI   GL113253   9.426  17.196   5.264  0.0870  0.2104 -0.2520
  829loPI   GL213254   9.222  17.348   5.376 -0.1835  0.2230  0.2768
  829loPI   C1A13255   9.562  17.184   5.739 -0.0442  0.0827  0.0509
  829loPI   C2A13256   9.533  17.245   6.155  0.3807 -0.1429  0.4039
  829loPI   C3A13257   9.559  17.299   6.626 -0.0654  0.2221 -0.0072
  829loPI   C4A13258   9.420  17.316   6.957  0.0191  0.0618 -0.2041
  829loPI   C5A13259   9.488  17.412   7.375 -0.3241  0.0074  0.1135
  829loPI   C6A13260   9.502  17.274   7.775 -0.1391 -0.0251  0.1232
  829loPI   C1B13261   9.093  17.285   5.838 -0.0801  0.4124  0.0718
  829loPI   C2B13262   9.045  17.376   6.363  0.0301 -0.2205  0.1498
  829loPI   C3B13263   8.982  17.346   6.742 -0.2113  0.0950 -0.2389
  829loPI   C4B13264   8.933  17.374   7.058 -0.0874  0.0244  0.3291
  830loPI    C113265   9.335   8.446   5.529 -0.3308  0.0315  0.2808
  830loPI    C213266   9.210   8.108   5.355  0.0473 -0.0051  0.0682
  830loPI    C313267   9.105   8.463   5.203  0.0208 -0.0322  0.0233
  830loPI   PO413268   9.357   8.411   5.737 -0.1151 -0.3873 -0.4228
  830loPI   GL113269   9.516   8.683   6.088  0.1519  0.0701  0.0029
  830loPI   GL213270   9.726   8.962   6.101  0.2140  0.1065  0.0120
  830loPI   C1A13271   9.337   8.932   6.384 -0.3889 -0.3984 -0.0298
  830loPI   C2A13272   9.260   8.989   6.800  0.1131  0.2799 -0.1816
  830loPI   C3A13273   9.264   9.001   7.227 -0.0363 -0.2453  0.0223
  830loPI   C4A13274   9.557   8.682   7.532  0.1365 -0.1493 -0.3552
  830loPI   C5A13275   9.953   8.891   7.802  0.3527  0.2687  0.0597
  830loPI   C6A13276  10.109   8.930   8.147 -0.0230 -0.1527 -0.0967
  830loPI   C1B13277   9.821   9.089   6.626 -0.1944  0.1614  0.1742
  830loPI   C2B13278   9.770   9.086   7.146 -0.1951  0.2988 -0.4473
  830loPI   C3B13279   9.654   9.211   7.523 -0.0751  0.0237 -0.2432
  830loPI   C4B13280   9.450   9.169   7.870  0.0035 -0.2060  0.4862
  831loPI    C113281   1.736  10.368   4.681  0.1229 -0.2257  0.1263
  831loPI    C213282   1.494  10.302   4.369  0.2355  0.0846 -0.0310
  831loPI    C313283   1.750  10.609   4.362  0.1940  0.1353  0.3960
  831loPI   PO413284   1.548  10.298   4.967  0.3118  0.1341  0.1424
  831loPI   GL113285   1.586  10.329   5.470  0.2669  0.0125  0.1941
  831loPI   GL213286   1.787  10.599   5.296 -0.2106 -0.2282  0.0566
  831loPI   C1A13287   1.450  10.077   5.911  0.1687  0.0288  0.0654
  831loPI   C2A13288   1.388  10.166   6.320  0.2469  0.2504  0.0397
  831loPI   C3A13289   1.221  10.064   6.781  0.0017  0.1133  0.0799
  831loPI   C4A13290   1.150  10.177   7.179  0.1523  0.0478 -0.5002
  831loPI   C5A13291   1.030   9.915   7.525 -0.4378  0.1367 -0.0356
  831loPI   C6A13292   1.034   9.761   7.978 -0.0902 -0.0373 -0.1053
  831loPI   C1B13293   1.743  10.775   5.738 -0.1288  0.2535  0.1008
  831loPI   C2B13294   1.660  10.861   6.203  0.1737  0.2621  0.2219
  831loPI   C3B13295   1.619  10.863   6.563  0.0878  0.0223  0.2675
  831loPI   C4B13296   1.622  10.951   7.019  0.0292  0.0863 -0.1368
  832loPI    C113297   6.229  14.113   4.790 -0.0375 -0.1299  0.3502
  832loPI    C213298   6.547  14.043   4.559 -0.3693  0.1953 -0.2281
  832loPI    C313299   6.308  13.741   4.667  0.1315 -0.0539  0.2258
  832loPI   PO413300   6.398  14.302   4.958  0.0168  0.3442 -0.0686
  832loPI   GL113301   6.391  14.349   5.395  0.2212 -0.3849 -0.0812
  832loPI   GL213302   6.612  14.119   5.456 -0.1841 -0.1066  0.1362
  832loPI   C1A13303   6.415  14.379   5.948  0.0191 -0.0104 -0.3095
  832loPI   C2A13304   6.305  14.654   6.208  0.0743 -0.2687 -0.3826
  832loPI   C3A13305   6.113  15.002   6.537 -0.3128  0.1131  0.2800
  832loPI   C4A13306   5.966  14.979   6.927  0.1296  0.0180 -0.0949
  832loPI   C5A13307   5.902  14.737   7.268 -0.0942 -0.0655 -0.1765
  832loPI   C6A13308   5.543  14.438   7.401  0.1592  0.1390  0.0427
  832loPI   C1B13309   6.639  13.911   5.916 -0.0360 -0.1166 -0.1668
  832loPI   C2B13310   6.654  13.885   6.340 -0.0551  0.1018 -0.1303
  832loPI   C3B13311   6.690  13.834   6.829 -0.0309 -0.0355 -0.1354
  832loPI   C4B13312   6.795  13.755   7.221 -0.0351 -0.1081 -0.2334
  833loPI    C113313  16.580  16.303   4.901  0.1136 -0.2181 -0.1473
  833loPI    C213314  16.512  15.959   5.094 -0.0400 -0.1894 -0.1491
  833loPI    C313315  16.362  16.016   4.728 -0.2147 -0.0292 -0.0540
  833loPI   PO413316  16.495  16.536   5.112  0.0684  0.0596 -0.2565
  833loPI   GL113317  16.433  16.643   5.519 -0.0275 -0.0007 -0.1995
  833loPI   GL213318  16.456  16.234   5.515 -0.0428  0.1860  0.1943
  833loPI   C1A13319  16.430  16.409   5.948 -0.0992 -0.1572  0.0917
  833loPI   C2A13320  16.491  16.451   6.383 -0.0523  0.1514  0.1726
  833loPI   C3A13321  16.618  16.273   6.814 -0.1662 -0.1692  0.0763
  833loPI   C4A13322  16.580  16.222   7.216  0.0693  0.0192  0.0207
  833loPI   C5A13323  16.215  16.391   7.527  0.2472  0.2706 -0.2966
  833loPI   C6A13324  15.877  16.460   7.843  0.1955 -0.1413  0.0598
  833loPI   C1B13325  16.110  16.131   5.780  0.0692  0.1121  0.0392
  833loPI   C2B13326  15.942  16.303   6.238  0.0382  0.0518 -0.2802
  833loPI   C3B13327  16.059  16.480   6.658  0.0937  0.0811 -0.0825
  833loPI   C4B13328  16.230  16.549   7.059  0.0392 -0.2823 -0.3727
  834loPI    C113329   5.055  12.754   4.529  0.1524  0.1294 -0.2294
  834loPI    C213330   5.225  12.398   4.459  0.2444  0.1405 -0.0657
  834loPI    C313331   5.443  12.732   4.435  0.2224  0.1633  0.0451
  834loPI   PO413332   4.983  12.747   4.772 -0.0572 -0.0817  0.0472
  834loPI   GL113333   5.040  12.739   5.274 -0.1429 -0.1865 -0.1972
  834loPI   GL213334   4.838  12.530   5.498 -0.0974  0.2413 -0.2399
  834loPI   C1A13335   5.199  12.703   5.771 -0.0271  0.0509  0.1768
  834loPI   C2A13336   5.218  12.711   6.294 -0.0350  0.0021  0.0103
  834loPI   C3A13337   5.158  12.845   6.670 -0.1178 -0.0469 -0.0069
  834loPI   C4A13338   5.013  13.037   6.996 -0.1955  0.1813 -0.0098
  834loPI   C5A13339   4.896  13.416   7.077  0.0202  0.0607  0.2763
  834loPI   C6A13340   4.938  13.747   7.274  0.2085  0.1602 -0.0666
  834loPI   C1B13341   4.708  12.852   5.823 -0.0322 -0.0125 -0.0920
  834loPI   C2B13342   4.972  13.063   6.100 -0.1748 -0.0934  0.2385
  834loPI   C3B13343   4.982  13.399   6.454 -0.0315  0.0364 -0.0267
  834loPI   C4B13344   4.744  13.603   6.625 -0.3296 -0.0744  0.0235
  835loPI    C113345   6.664  12.724   4.590  0.0575 -0.0898  0.0876
  835loPI    C213346   6.633  13.056   4.369 -0.0795 -0.0199  0.2105
  835loPI    C313347   6.393  12.744   4.296 -0.0806 -0.0208  0.2182
  835loPI   PO413348   6.781  12.889   4.854 -0.0200 -0.2094  0.0719
  835loPI   GL113349   6.989  12.696   5.301  0.1202  0.1820  0.0024
  835loPI   GL213350   7.057  12.338   5.165  0.0391 -0.3240  0.2653
  835loPI   C1A13351   7.194  12.707   5.767 -0.0238 -0.4857  0.0541
  835loPI   C2A13352   7.310  12.715   6.228  0.3224 -0.0416  0.0833
  835loPI   C3A13353   7.555  12.802   6.488  0.4220  0.0262  0.0981
  835loPI   C4A13354   7.640  12.791   6.920  0.2062 -0.0331 -0.0645
  835loPI   C5A13355   7.631  12.883   7.290  0.0282 -0.0652 -0.0981
  835loPI   C6A13356   7.555  13.220   7.634 -0.0145 -0.2267  0.0822
  835loPI   C1B13357   7.153  12.303   5.564 -0.1154 -0.2606  0.0455
  835loPI   C2B13358   7.240  12.201   5.897  0.1847  0.2153 -0.0384
  835loPI   C3B13359   7.468  12.186   6.355 -0.2199 -0.1189 -0.0715
  835loPI   C4B13360   7.342  12.413   6.741 -0.0007 -0.0906  0.0773
  836loPI    C113361  13.408  14.453   4.952  0.1302  0.1061 -0.0626
  836loPI    C213362  13.750  14.644   4.870  0.1517  0.0203 -0.1756
  836loPI    C313363  13.665  14.298   4.687  0.1601 -0.1319  0.1023
  836loPI   PO413364  13.383  14.450   5.222  0.1525 -0.3298  0.0816
  836loPI   GL113365  13.400  14.430   5.650 -0.0808  0.3595  0.1604
  836loPI   GL213366  13.276  14.694   5.670  0.0482 -0.4401 -0.1498
  836loPI   C1A13367  13.480  14.428   6.098  0.1603 -0.1509 -0.1654
  836loPI   C2A13368  13.421  14.450   6.541 -0.1774 -0.0273  0.1272
  836loPI   C3A13369  13.604  14.391   6.970  0.0676 -0.0221  0.0219
  836loPI   C4A13370  13.857  14.300   7.358  0.2022  0.0118  0.0587
  836loPI   C5A13371  14.094  14.401   7.703  0.0535  0.0137  0.2105
  836loPI   C6A13372  14.383  14.582   7.981 -0.1425  0.0725  0.2593
  836loPI   C1B13373  13.616  14.937   5.914  0.0137 -0.0218  0.1279
  836loPI   C2B13374  13.807  14.763   6.287 -0.4206  0.0719  0.0845
  836loPI   C3B13375  13.887  14.338   6.604 -0.3587 -0.0873  0.1876
  836loPI   C4B13376  13.913  13.972   6.764 -0.0527  0.0513  0.2360
  837loPI    C113377  15.564  17.186   4.943 -0.1547 -0.1772 -0.0460
  837loPI    C213378  15.215  17.369   4.876 -0.0755 -0.0144 -0.0194
  837loPI    C313379  15.473  17.314   4.575 -0.0796 -0.0415 -0.0180
  837loPI   PO413380  15.582  17.330   5.256 -0.1315 -0.2138  0.0288
  837loPI   GL113381  15.355  17.405   5.577  0.1068  0.1202 -0.3697
  837loPI   GL213382  15.568  17.198   5.780  0.2116  0.3768 -0.0110
  837loPI   C1A13383  15.146  17.272   6.030  0.0987 -0.1018  0.0397
  837loPI   C2A13384  14.960  17.353   6.457  0.2073 -0.0280  0.0624
  837loPI   C3A13385  14.993  17.718   6.768  0.1749  0.1323 -0.1068
  837loPI   C4A13386  15.292  17.801   7.103 -0.1826  0.1401  0.2384
  837loPI   C5A13387  15.419  18.014   7.549 -0.0342 -0.3833  0.2460
  837loPI   C6A13388  15.145  17.971   7.778  0.2008 -0.0712 -0.1132
  837loPI   C1B13389  15.951  17.212   6.024 -0.4853  0.0456  0.1410
  837loPI   C2B13390  16.270  17.378   6.300  0.3043 -0.4161  0.2074
  837loPI   C3B13391  16.373  17.364   6.742  0.2792 -0.2694 -0.3630
  837loPI   C4B13392  16.303  17.498   7.248  0.2101 -0.0041 -0.0552
  838loPI    C113393  11.835  18.491   4.550  0.0689  0.1043 -0.1678
  838loPI    C213394  12.039  18.835   4.564  0.3027 -0.0360 -0.0555
  838loPI    C313395  12.076  18.593   4.247  0.0876  0.0703 -0.1643
  838loPI   PO413396  11.840  18.439   4.824  0.0150 -0.0410 -0.0643
  838loPI   GL113397  11.860  18.640   5.170  0.2243  0.0407 -0.1100
  838loPI   GL213398  12.027  18.506   5.343  0.1848  0.2677  0.3654
  838loPI   C1A13399  11.657  18.682   5.664 -0.1209 -0.1716 -0.1182
  838loPI   C2A13400  11.759  18.557   6.057 -0.0771 -0.0237  0.2330
  838loPI   C3A13401  11.687  18.522   6.525 -0.2134  0.1146  0.2864
  838loPI   C4A13402  11.271  18.365   6.765 -0.0211  0.0963  0.0070
  838loPI   C5A13403  10.983  18.158   7.074  0.1446  0.0006  0.2474
  838loPI   C6A13404  10.623  18.025   7.417 -0.0674  0.2301 -0.1165
  838loPI   C1B13405  12.089  18.378   5.775 -0.0369 -0.0829 -0.1571
  838loPI   C2B13406  12.078  18.145   6.226  0.3733  0.1677 -0.0285
  838loPI   C3B13407  12.331  18.119   6.571 -0.0206 -0.0891  0.2919
  838loPI   C4B13408  12.407  18.032   7.068  0.1547  0.2082 -0.0730
  839loPI    C113409   1.723  12.173   4.926  0.3648  0.0448  0.1276
  839loPI    C213410   1.736  12.091   4.535  0.1269 -0.0960  0.1468
  839loPI    C313411   1.663  12.464   4.659 -0.1573 -0.1190  0.0548
  839loPI   PO413412   1.883  12.166   5.109  0.0471 -0.0440  0.1922
  839loPI   GL113413   1.959  12.455   5.404 -0.1950 -0.1215  0.3517
  839loPI   GL213414   2.217  12.628   5.492 -0.2148  0.0621 -0.0178
  839loPI   C1A13415   1.772  12.302   5.795  0.1194 -0.1726  0.0407
  839loPI   C2A13416   1.777  12.362   6.283 -0.1297 -0.1293  0.0019
  839loPI   C3A13417   1.828  12.365   6.732 -0.2324  0.1477 -0.2984
  839loPI   C4A13418   1.925  12.401   7.126  0.1374  0.0490 -0.3021
  839loPI   C5A13419   2.116  12.052   7.379 -0.2824 -0.2395 -0.2430
  839loPI   C6A13420   1.855  11.851   7.694 -0.0948 -0.0249 -0.2204
  839loPI   C1B13421   2.223  12.545   5.999 -0.1951  0.1077 -0.0300
  839loPI   C2B13422   2.210  12.724   6.388 -0.1292 -0.0306  0.3183
  839loPI   C3B13423   2.240  12.769   6.830  0.2564  0.0189 -0.0476
  839loPI   C4B13424   2.172  12.834   7.223 -0.1336 -0.0324  0.0319
  840loPI    C113425  12.778  11.072   5.000 -0.1200 -0.0065  0.0115
  840loPI    C213426  13.049  10.897   4.762  0.0328  0.1746  0.0498
  840loPI    C313427  12.725  11.070   4.603 -0.1275 -0.1512  0.0126
  840loPI   PO413428  12.876  10.959   5.242 -0.1430 -0.0181 -0.0018
  840loPI   GL113429  12.789  10.749   5.644  0.2601  0.0452 -0.1163
  840loPI   GL213430  12.522  10.925   5.696  0.1421 -0.0416  0.0601
  840loPI   C1A13431  12.746  10.568   6.028 -0.1209  0.5087 -0.1080
  840loPI   C2A13432  12.732  10.542   6.447 -0.0683 -0.0158 -0.0210
  840loPI   C3A13433  12.993  10.606   6.813  0.2182 -0.2755 -0.1093
  840loPI   C4A13434  12.818  10.652   7.197  0.0675 -0.0413  0.1808
  840loPI   C5A13435  12.920  10.756   7.540  0.2882 -0.0685 -0.1374
  840loPI   C6A13436  13.167  10.507   7.712  0.0567 -0.0341  0.1320
  840loPI   C1B13437  12.442  11.076   6.196 -0.0796  0.0505  0.1387
  840loPI   C2B13438  12.490  10.898   6.727 -0.2593 -0.2271 -0.1049
  840loPI   C3B13439  12.323  10.625   7.029 -0.2880 -0.1208 -0.1608
  840loPI   C4B13440  12.180  10.247   7.365  0.3516  0.2318  0.1292
  841loPI    C113441  11.745  15.275   5.096  0.1418  0.3452  0.0851
  841loPI    C213442  12.123  15.347   4.991  0.1287 -0.1075 -0.3072
  841loPI    C313443  11.860  15.221   4.717 -0.3016  0.1657 -0.0314
  841loPI   PO413444  11.743  15.207   5.407  0.0210  0.1604  0.2396
  841loPI   GL113445  11.611  15.186   5.789 -0.1279 -0.2143  0.3381
  841loPI   GL213446  11.390  14.994   5.657  0.0582  0.0494 -0.1877
  841loPI   C1A13447  11.319  15.605   5.887 -0.0862 -0.1336 -0.2128
  841loPI   C2A13448  11.146  15.756   6.252 -0.1267 -0.0559 -0.0486
  841loPI   C3A13449  11.207  15.862   6.728 -0.0862  0.0327  0.1360
  841loPI   C4A13450  11.211  15.971   7.095 -0.3927  0.1148  0.0294
  841loPI   C5A13451  11.017  16.065   7.502 -0.2370  0.0689  0.1286
  841loPI   C6A13452  10.998  16.229   7.937  0.0396 -0.1801 -0.2092
  841loPI   C1B13453  11.075  14.767   5.954  0.1459 -0.1001 -0.0372
  841loPI   C2B13454  11.111  14.911   6.366 -0.1138 -0.0815  0.0986
  841loPI   C3B13455  11.327  15.308   6.434 -0.3542  0.1156 -0.1701
  841loPI   C4B13456  11.409  15.416   6.787  0.0025 -0.2013 -0.1003
  842loPI    C113457   3.562  17.913   4.796 -0.1630 -0.2974  0.0889
  842loPI    C213458   3.343  17.765   4.496  0.0009 -0.3077 -0.0266
  842loPI    C313459   3.707  17.914   4.423 -0.0874 -0.0150  0.1170
  842loPI   PO413460   3.297  17.980   4.985  0.1267 -0.1266  0.2780
  842loPI   GL113461   3.285  18.189   5.279  0.0776  0.1730  0.3406
  842loPI   GL213462   2.948  18.287   5.233 -0.0979 -0.0162 -0.1638
  842loPI   C1A13463   3.437  17.956   5.668 -0.0871 -0.2492  0.1406
  842loPI   C2A13464   3.328  18.029   6.086 -0.0947 -0.1658  0.1253
  842loPI   C3A13465   3.438  17.928   6.552  0.0841 -0.1116  0.6442
  842loPI   C4A13466   3.475  17.973   6.958 -0.0105 -0.0754  0.1087
  842loPI   C5A13467   3.356  18.048   7.307 -0.1309 -0.2939 -0.0898
  842loPI   C6A13468   3.625  18.187   7.643 -0.0364  0.3570 -0.4754
  842loPI   C1B13469   2.996  18.185   5.701 -0.0549 -0.1887 -0.1674
  842loPI   C2B13470   2.852  18.139   6.110 -0.1794  0.1239  0.0686
  842loPI   C3B13471   2.906  18.086   6.552 -0.0203  0.1647 -0.0321
  842loPI   C4B13472   2.946  18.129   7.061  0.0096  0.2477 -0.1755
  843loPI    C113473   9.075  12.312   4.838 -0.0716 -0.2046  0.0723
  843loPI    C213474   9.199  12.509   4.513 -0.1759 -0.0771  0.1091
  843loPI    C313475   9.031  12.148   4.476 -0.0852 -0.1117  0.0315
  843loPI   PO413476   8.947  12.419   4.975  0.0567  0.0791  0.1132
  843loPI   GL113477   9.038  12.657   5.370  0.1841  0.2293 -0.0337
  843loPI   GL213478   8.693  12.812   5.315 -0.0294  0.0660  0.0560
  843loPI   C1A13479   9.193  12.706   5.840  0.3055  0.0988  0.0913
  843loPI   C2A13480   9.151  12.657   6.307 -0.0450 -0.0059 -0.1637
  843loPI   C3A13481   9.131  12.684   6.678  0.2258 -0.1337  0.0260
  843loPI   C4A13482   9.088  12.765   7.097 -0.2088  0.1061 -0.0165
  843loPI   C5A13483   9.013  12.737   7.395  0.1282 -0.0017 -0.0076
  843loPI   C6A13484   8.868  12.844   7.727  0.0062 -0.0521 -0.3182
  843loPI   C1B13485   8.563  12.664   5.680  0.0504  0.4344  0.1227
  843loPI   C2B13486   8.729  12.765   6.136  0.0656 -0.3423 -0.2658
  843loPI   C3B13487   8.635  12.763   6.573 -0.2098 -0.0215 -0.0294
  843loPI   C4B13488   8.595  12.851   7.067  0.1913  0.1907 -0.2278
  844loPI    C113489   6.783   2.257   4.727 -0.1138  0.0922  0.1130
  844loPI    C213490   6.812   2.608   4.537  0.1220  0.0613  0.0894
  844loPI    C313491   6.867   2.266   4.336 -0.2750  0.0006  0.0751
  844loPI   PO413492   7.003   2.240   4.941 -0.3038 -0.2183 -0.1706
  844loPI   GL113493   7.084   2.318   5.381 -0.1451 -0.0183 -0.1608
  844loPI   GL213494   6.978   2.037   5.449 -0.2837  0.1486 -0.1188
  844loPI   C1A13495   7.095   2.289   5.859 -0.0824  0.2397 -0.2520
  844loPI   C2A13496   7.142   2.302   6.326 -0.2258  0.2208  0.0750
  844loPI   C3A13497   7.198   2.262   6.715  0.1840  0.3949 -0.1538
  844loPI   C4A13498   7.231   2.115   7.063 -0.2358 -0.1080 -0.1575
  844loPI   C5A13499   7.077   1.817   7.289  0.1706 -0.0072  0.1840
  844loPI   C6A13500   7.109   1.711   7.670  0.3847  0.0681 -0.1110
  844loPI   C1B13501   7.018   1.741   5.795 -0.3269  0.0704 -0.1474
  844loPI   C2B13502   6.985   1.596   6.098  0.4442 -0.0123 -0.6146
  844loPI   C3B13503   6.982   1.459   6.532 -0.0819  0.1843 -0.1033
  844loPI   C4B13504   7.147   1.076   6.687 -0.1540  0.1683 -0.2333
  845loPI    C113505   7.666  12.664   4.930  0.0167  0.1419 -0.0983
  845loPI    C213506   7.606  12.903   4.615 -0.1720  0.2680  0.0311
  845loPI    C313507   7.681  12.514   4.559 -0.1899  0.2922 -0.1694
  845loPI   PO413508   7.825  12.899   5.101  0.1575 -0.0911  0.1851
  845loPI   GL113509   7.917  12.961   5.472  0.4317 -0.1884  0.1646
  845loPI   GL213510   8.232  13.006   5.507 -0.0645 -0.0031 -0.1661
  845loPI   C1A13511   7.891  13.152   5.908  0.0834 -0.0469  0.0812
  845loPI   C2A13512   7.764  13.269   6.267  0.1026  0.2285  0.1879
  845loPI   C3A13513   7.963  13.269   6.756  0.2538  0.1371  0.0833
  845loPI   C4A13514   7.902  13.392   7.119 -0.1089 -0.0094 -0.1324
  845loPI   C5A13515   7.577  13.693   7.305 -0.0016 -0.2182 -0.4531
  845loPI   C6A13516   7.644  14.070   7.611 -0.0450 -0.1143  0.0054
  845loPI   C1B13517   8.434  13.172   5.853  0.0277  0.1431 -0.1082
  845loPI   C2B13518   8.348  13.221   6.257 -0.0928 -0.0725  0.1515
  845loPI   C3B13519   8.485  13.264   6.652  0.2401  0.1175 -0.0786
  845loPI   C4B13520   8.494  13.342   7.071 -0.2370  0.0056 -0.2013
  846loPI    C113521  14.271  18.582   4.713 -0.0521 -0.1216  0.0086
  846loPI    C213522  14.041  18.689   4.404  0.1307  0.1346 -0.0421
  846loPI    C313523  14.429  18.784   4.407  0.1655 -0.0050  0.1946
  846loPI   PO413524  14.051  18.651   4.958  0.0990 -0.2719  0.0581
  846loPI   GL113525  13.941  18.667   5.472 -0.0964 -0.2606  0.2446
  846loPI   GL213526  13.817  18.954   5.542 -0.0802  0.2398 -0.1334
  846loPI   C1A13527  14.215  18.388   5.790  0.1483  0.1835  0.0748
  846loPI   C2A13528  14.232  18.219   6.137 -0.1940  0.2010 -0.3032
  846loPI   C3A13529  14.139  18.221   6.583  0.0027 -0.1498  0.2041
  846loPI   C4A13530  14.272  18.406   6.981 -0.1370  0.2414 -0.0216
  846loPI   C5A13531  14.308  18.284   7.387 -0.0160 -0.1537  0.2965
  846loPI   C6A13532  14.742  18.156   7.557 -0.0754  0.0798  0.0353
  846loPI   C1B13533  13.680  19.103   5.920  0.1444  0.1152  0.2432
  846loPI   C2B13534  13.646  19.020   6.382  0.2791  0.3104  0.0056
  846loPI   C3B13535  13.630  18.923   6.793  0.1950 -0.1748  0.1683
  846loPI   C4B13536  13.715  18.929   7.153  0.1538  0.2433 -0.0964
  847loPI    C113537  17.067  18.546   5.074 -0.2396  0.0355 -0.1155
  847loPI    C213538  17.463  18.510   5.031 -0.2245 -0.1871  0.1817
  847loPI    C313539  17.235  18.595   4.714  0.0481 -0.1686 -0.0129
  847loPI   PO413540  17.001  18.397   5.214  0.2754  0.1127  0.0101
  847loPI   GL113541  16.945  18.224   5.616  0.0250  0.1936  0.2194
  847loPI   GL213542  16.631  18.118   5.659  0.0442 -0.1203  0.1588
  847loPI   C1A13543  16.946  18.065   6.039 -0.0031  0.2620  0.0736
  847loPI   C2A13544  17.056  18.125   6.433 -0.1205 -0.1748 -0.0650
  847loPI   C3A13545  17.198  18.169   6.823 -0.0546 -0.2930  0.0177
  847loPI   C4A13546  17.142  18.111   7.346  0.1965 -0.0009 -0.1587
  847loPI   C5A13547  16.982  17.796   7.658 -0.0878 -0.1347 -0.0297
  847loPI   C6A13548  16.535  17.707   7.752  0.1937  0.3363  0.2407
  847loPI   C1B13549  16.429  18.294   6.013 -0.2597  0.3961 -0.2746
  847loPI   C2B13550  16.542  18.201   6.373 -0.0691 -0.1726  0.0464
  847loPI   C3B13551  16.679  18.156   6.760 -0.0102 -0.2695 -0.0417
  847loPI   C4B13552  16.663  18.371   7.220  0.1248 -0.1214 -0.1685
  848loPI    C113553   4.388  11.043   5.198  0.0553 -0.0946  0.0030
  848loPI    C213554   4.667  11.113   4.920 -0.0074 -0.0061 -0.0382
  848loPI    C313555   4.286  11.056   4.812 -0.0424  0.0879  0.0338
  848loPI   PO413556   4.591  11.014   5.389 -0.2002  0.0966  0.2207
  848loPI   GL113557   4.689  10.978   5.793 -0.0353  0.0386  0.2742
  848loPI   GL213558   4.807  11.301   5.750 -0.0179 -0.1281 -0.1641
  848loPI   C1A13559   4.721  11.151   6.241 -0.4948  0.0702  0.4743
  848loPI   C2A13560   4.890  11.399   6.462  0.2434 -0.0899 -0.0121
  848loPI   C3A13561   5.082  11.534   6.796 -0.2196 -0.0594  0.1664
  848loPI   C4A13562   5.064  11.355   7.160  0.0014 -0.0072 -0.3084
  848loPI   C5A13563   5.203  11.023   7.453 -0.3109 -0.1834 -0.0032
  848loPI   C6A13564   5.699  11.070   7.497 -0.0025  0.0986 -0.0075
  848loPI   C1B13565   5.111  11.529   6.037 -0.1085  0.2085  0.2202
  848loPI   C2B13566   5.070  11.878   6.322 -0.0458 -0.3642 -0.1938
  848loPI   C3B13567   5.024  12.290   6.420  0.0878 -0.0636 -0.0371
  848loPI   C4B13568   4.782  12.385   6.767 -0.0262 -0.1756  0.2352
  849loPI    C113569   1.477   7.266   5.049  0.0981  0.0911 -0.0993
  849loPI    C213570   1.103   7.391   4.982  0.1185  0.1699 -0.0671
  849loPI    C313571   1.413   7.606   4.850  0.1526  0.1021 -0.0983
  849loPI   PO413572   1.445   7.136   5.277 -0.0295  0.1313 -0.0898
  849loPI   GL113573   1.510   7.346   5.688  0.0492 -0.1962 -0.1285
  849loPI   GL213574   1.847   7.439   5.908 -0.0848 -0.2512 -0.0260
  849loPI   C1A13575   1.424   7.133   6.055 -0.0278  0.1824  0.1216
  849loPI   C2A13576   1.522   6.952   6.484 -0.2552 -0.0487  0.0171
  849loPI   C3A13577   1.505   6.684   6.897 -0.1498 -0.0051  0.1553
  849loPI   C4A13578   1.430   6.498   7.249  0.1907  0.0932  0.1317
  849loPI   C5A13579   1.310   6.526   7.690 -0.2196  0.2158  0.0480
  849loPI   C6A13580   1.465   6.428   8.085 -0.3334 -0.0526  0.0159
  849loPI   C1B13581   1.654   7.745   6.172  0.0192 -0.0248 -0.3119
  849loPI   C2B13582   1.349   7.990   6.265 -0.0550 -0.0216  0.1696
  849loPI   C3B13583   1.197   8.214   6.718 -0.0791  0.2236  0.1801
  849loPI   C4B13584   1.149   8.283   7.136  0.0024 -0.1250 -0.4323
  850loPI    C113585  17.305   2.961   5.354  0.0402 -0.0125  0.1853
  850loPI    C213586  17.330   3.322   5.525 -0.3247  0.0126  0.1950
  850loPI    C313587  17.348   3.287   5.127 -0.0730  0.0163  0.2044
  850loPI   PO413588  17.121   2.846   5.474  0.0930  0.1551  0.1780
  850loPI   GL113589  17.255   2.773   5.854  0.2362 -0.0872  0.2231
  850loPI   GL213590  17.280   3.069   5.921 -0.0788  0.0570 -0.4902
  850loPI   C1A13591  17.348   2.614   6.308  0.0678 -0.0859  0.2093
  850loPI   C2A13592  17.356   2.609   6.727 -0.0925  0.0887  0.2362
  850loPI   C3A13593  17.468   2.594   7.198 -0.2346  0.1582 -0.0361
  850loPI   C4A13594  17.734   2.339   7.562 -0.2890  0.0416 -0.1037
  850loPI   C5A13595  18.159   2.120   7.797 -0.0728 -0.2394 -0.0724
  850loPI   C6A13596  18.202   1.987   8.139 -0.1590  0.0619 -0.1861
  850loPI   C1B13597  17.278   3.151   6.351  0.2320  0.0718  0.0338
  850loPI   C2B13598  17.311   3.153   6.746 -0.0258 -0.0274  0.1409
  850loPI   C3B13599  17.442   3.076   7.170  0.0488  0.1918 -0.4614
  850loPI   C4B13600  17.521   3.144   7.638 -0.1155  0.2286  0.2141
  851loPI    C113601  12.716  17.135   4.992  0.1000 -0.0669 -0.1751
  851loPI    C213602  12.759  17.136   4.594 -0.1472 -0.0557 -0.2029
  851loPI    C313603  12.400  17.067   4.757 -0.0366 -0.1139  0.0200
  851loPI   PO413604  12.764  17.337   5.148  0.0696 -0.0537  0.2082
  851loPI   GL113605  12.537  17.322   5.537  0.2081  0.1977 -0.1343
  851loPI   GL213606  12.479  17.015   5.511 -0.0042 -0.0442  0.0408
  851loPI   C1A13607  12.508  17.505   5.958 -0.1677  0.0732 -0.1189
  851loPI   C2A13608  12.381  17.653   6.372  0.1015  0.1637  0.0016
  851loPI   C3A13609  12.333  17.649   6.762 -0.1814  0.0921 -0.2565
  851loPI   C4A13610  12.530  17.546   7.047  0.2007 -0.0125  0.0572
  851loPI   C5A13611  12.822  17.828   7.402  0.2205 -0.2378 -0.0822
  851loPI   C6A13612  12.932  18.055   7.736  0.0293 -0.2146 -0.0963
  851loPI   C1B13613  12.404  17.033   5.958  0.1527 -0.1717 -0.1455
  851loPI   C2B13614  12.595  17.174   6.318 -0.1197  0.0113  0.1424
  851loPI   C3B13615  12.667  17.101   6.798 -0.1498  0.2676 -0.2684
  851loPI   C4B13616  12.855  16.834   7.174  0.1862  0.1004 -0.0364
  852loPI    C113617  17.352   5.778   5.445 -0.1208 -0.1888 -0.1728
  852loPI    C213618  17.624   6.034   5.304 -0.0085 -0.0970  0.1982
  852loPI    C313619  17.662   5.642   5.233  0.0446 -0.0534 -0.0217
  852loPI   PO413620  17.326   5.899   5.695  0.2204 -0.1947  0.0521
  852loPI   GL113621  17.538   6.040   6.008  0.3922 -0.2204 -0.0827
  852loPI   GL213622  17.278   5.931   6.265  0.2512  0.2106 -0.0220
  852loPI   C1A13623  17.670   6.377   6.303 -0.3217  0.0683  0.1581
  852loPI   C2A13624  17.747   6.880   6.513 -0.0321 -0.0003 -0.2243
  852loPI   C3A13625  17.655   7.370   6.594  0.0557  0.0773 -0.1031
  852loPI   C4A13626  18.072   7.434   6.872 -0.0093  0.0741  0.0229
  852loPI   C5A13627  18.455   7.300   7.155 -0.0095  0.5262 -0.0957
  852loPI   C6A13628  18.500   6.887   7.292  0.1768 -0.0815  0.3764
  852loPI   C1B13629  17.307   5.980   6.726 -0.1513 -0.1461 -0.0869
  852loPI   C2B13630  17.090   6.255   6.950 -0.0114 -0.0015  0.0925
  852loPI   C3B13631  16.702   6.255   7.208 -0.0445  0.1487  0.2925
  852loPI   C4B13632  16.569   5.925   7.581 -0.0719 -0.0785  0.0628
  853loPI    C113633  10.158   3.667   4.521  0.0333  0.0443 -0.0639
  853loPI    C213634   9.849   3.609   4.274  0.0109  0.1178 -0.0534
  853loPI    C313635   9.938   3.978   4.399  0.0324  0.0828  0.0351
  853loPI   PO413636  10.080   3.609   4.800  0.2702  0.2722 -0.0071
  853loPI   GL113637   9.953   3.843   5.215 -0.3129 -0.1462  0.0012
  853loPI   GL213638  10.257   3.669   5.317  0.1148  0.1009 -0.1913
  853loPI   C1A13639   9.992   3.823   5.698  0.0744  0.0699  0.1388
  853loPI   C2A13640   9.966   3.789   6.079  0.0981 -0.0128  0.1098
  853loPI   C3A13641   9.963   3.746   6.537 -0.0333 -0.1011 -0.1489
  853loPI   C4A13642   9.877   3.669   6.936 -0.0600 -0.3320 -0.0206
  853loPI   C5A13643   9.636   3.795   7.356  0.1681 -0.0042 -0.0518
  853loPI   C6A13644   9.511   3.979   7.695 -0.1490  0.1484 -0.0703
  853loPI   C1B13645  10.405   3.548   5.660 -0.0417 -0.0739  0.1998
  853loPI   C2B13646  10.340   3.435   6.036 -0.2444 -0.2652 -0.0315
  853loPI   C3B13647  10.416   3.533   6.426  0.0206 -0.1889  0.1774
  853loPI   C4B13648  10.318   3.439   6.914 -0.0346  0.1311 -0.0142
  854loPI    C113649  14.011   7.784   5.126 -0.1032 -0.1546  0.2051
  854loPI    C213650  13.908   8.070   5.386  0.0113  0.1413 -0.0674
  854loPI    C313651  13.991   8.166   5.007  0.0597 -0.2560 -0.1616
  854loPI   PO413652  14.235   7.595   5.268  0.1878 -0.2046  0.1516
  854loPI   GL113653  14.236   7.249   5.594 -0.1274  0.1388 -0.1169
  854loPI   GL213654  14.383   7.462   5.724 -0.2092 -0.2388 -0.3121
  854loPI   C1A13655  14.315   7.081   6.042  0.1532  0.1082  0.0272
  854loPI   C2A13656  14.403   7.007   6.489 -0.1562  0.1406  0.2062
  854loPI   C3A13657  14.370   7.026   6.972 -0.2249  0.0562 -0.0114
  854loPI   C4A13658  14.303   7.016   7.429 -0.0998 -0.2616  0.0179
  854loPI   C5A13659  14.431   7.304   7.780 -0.0588  0.4238  0.0052
  854loPI   C6A13660  14.262   7.406   8.127 -0.0331 -0.1637  0.2091
  854loPI   C1B13661  14.316   7.564   6.148 -0.2745 -0.2317 -0.0585
  854loPI   C2B13662  14.095   7.826   6.298  0.0706 -0.2973  0.2651
  854loPI   C3B13663  13.984   7.801   6.827 -0.1301 -0.0825  0.0090
  854loPI   C4B13664  13.858   7.690   7.249  0.0478  0.1877 -0.1639
  855loPI    C113665  17.011   1.885   5.217  0.1976  0.0379  0.0585
  855loPI    C213666  17.324   2.117   5.130 -0.0279  0.2659 -0.1630
  855loPI    C313667  17.167   1.879   4.849 -0.0398  0.1343 -0.0460
  855loPI   PO413668  16.875   2.077   5.406 -0.3581  0.1119 -0.0362
  855loPI   GL113669  16.652   2.019   5.722 -0.1821 -0.1577  0.2640
  855loPI   GL213670  16.592   1.697   5.719 -0.0243  0.0061 -0.2479
  855loPI   C1A13671  16.826   2.174   6.130 -0.2934 -0.0751  0.0550
  855loPI   C2A13672  17.006   2.272   6.513 -0.1032  0.0957 -0.0300
  855loPI   C3A13673  17.076   2.303   7.032  0.0200 -0.0872  0.3775
  855loPI   C4A13674  17.147   2.328   7.517  0.0889  0.1163 -0.2225
  855loPI   C5A13675  17.094   2.484   7.978  0.0801 -0.0692 -0.2855
  855loPI   C6A13676  16.898   2.156   8.269  0.2106  0.3722  0.0930
  855loPI   C1B13677  16.584   1.431   6.129  0.0387 -0.0009  0.3525
  855loPI   C2B13678  16.665   1.468   6.605 -0.1284  0.3329  0.2443
  855loPI   C3B13679  16.812   1.511   7.028  0.0426  0.1282  0.2183
  855loPI   C4B13680  16.860   1.530   7.467 -0.2931  0.0847  0.0059
  856loPI    C113681   6.808  15.640   4.306 -0.2045 -0.0304  0.0389
  856loPI    C213682   6.622  15.841   4.015  0.0811  0.0650 -0.0817
  856loPI    C313683   6.987  15.691   3.952 -0.0132 -0.2512  0.1008
  856loPI   PO413684   6.747  15.749   4.481  0.0253 -0.2319 -0.2534
  856loPI   GL113685   6.869  15.798   4.869  0.1349  0.0547 -0.4247
  856loPI   GL213686   7.034  16.122   4.969  0.0666 -0.2057  0.0074
  856loPI   C1A13687   6.882  15.786   5.367  0.2873  0.1171  0.1794
  856loPI   C2A13688   6.520  15.918   5.545 -0.2205  0.0382 -0.1751
  856loPI   C3A13689   6.534  16.156   5.872  0.0545  0.0964 -0.3133
  856loPI   C4A13690   6.687  16.219   6.332 -0.1173  0.0676  0.1688
  856loPI   C5A13691   6.496  16.133   6.766 -0.3779  0.0761  0.0724
  856loPI   C6A13692   6.387  16.143   7.165  0.0443 -0.1903 -0.2666
  856loPI   C1B13693   7.130  16.227   5.406 -0.0011 -0.0222  0.1755
  856loPI   C2B13694   7.141  16.099   5.793  0.3310  0.1677 -0.1148
  856loPI   C3B13695   7.162  16.130   6.225 -0.3869  0.2261  0.1779
  856loPI   C4B13696   7.095  16.115   6.684  0.2571 -0.0376  0.3472
  857loPI    C113697  18.019   2.578   5.020 -0.0954  0.0219 -0.1662
  857loPI    C213698  18.142   2.675   4.652 -0.1645  0.1287 -0.1617
  857loPI    C313699  17.751   2.637   4.729 -0.1471  0.0376 -0.1157
  857loPI   PO413700  18.236   2.472   5.102  0.0528  0.2724 -0.1229
  857loPI   GL113701  18.603   2.632   5.461  0.1499  0.2603  0.3311
  857loPI   GL213702  18.685   2.890   5.699 -0.1421 -0.1454 -0.1083
  857loPI   C1A13703  18.510   2.377   5.769 -0.0774 -0.0386 -0.0026
  857loPI   C2A13704  18.287   2.376   6.198 -0.1172 -0.0082  0.1494
  857loPI   C3A13705  18.341   2.298   6.598  0.1353  0.3741 -0.0841
  857loPI   C4A13706  18.416   2.207   7.007  0.0596  0.2091 -0.0093
  857loPI   C5A13707  18.537   2.099   7.500 -0.1024  0.2459  0.2248
  857loPI   C6A13708  18.641   2.094   7.909  0.2320  0.0091  0.2115
  857loPI   C1B13709  18.675   2.737   6.106  0.0534 -0.0681  0.0355
  857loPI   C2B13710  18.761   2.628   6.521  0.1809 -0.1370 -0.3217
  857loPI   C3B13711  18.791   2.611   6.850  0.1544 -0.0085  0.2237
  857loPI   C4B13712  18.722   2.558   7.370  0.2214 -0.0464 -0.0635
  858loPI    C113713   6.823  15.075   4.418 -0.2095 -0.1827  0.1410
  858loPI    C213714   7.135  14.831   4.359  0.1002  0.2560 -0.0882
  858loPI    C313715   6.850  14.862   4.080  0.0161  0.0957 -0.0211
  858loPI   PO413716   6.968  15.268   4.585  0.0430  0.1702  0.1179
  858loPI   GL113717   7.241  15.449   4.971 -0.0904 -0.0713 -0.2194
  858loPI   GL213718   7.578  15.368   5.149  0.6122 -0.0650  0.2177
  858loPI   C1A13719   7.101  15.321   5.484  0.1538 -0.2189 -0.3536
  858loPI   C2A13720   7.044  15.147   5.959 -0.1437 -0.0173 -0.2962
  858loPI   C3A13721   7.016  15.163   6.413 -0.0191 -0.0279  0.0968
  858loPI   C4A13722   7.019  15.218   6.852  0.1439  0.3083 -0.0554
  858loPI   C5A13723   6.779  15.396   7.095  0.1209  0.0619  0.0640
  858loPI   C6A13724   6.861  15.879   7.096 -0.0092 -0.0395 -0.2855
  858loPI   C1B13725   7.528  15.139   5.368 -0.3801 -0.4404 -0.1706
  858loPI   C2B13726   7.523  15.041   5.765  0.0773 -0.1407  0.1318
  858loPI   C3B13727   7.572  15.149   6.237  0.0692  0.2129 -0.0533
  858loPI   C4B13728   7.578  15.129   6.685  0.0735 -0.0390 -0.1256
  859loPI    C113729   3.800   9.056   4.814  0.0544 -0.0609  0.0482
  859loPI    C213730   4.069   9.290   4.632 -0.0198 -0.0451 -0.0420
  859loPI    C313731   4.184   9.043   4.925  0.0747  0.0370 -0.0093
  859loPI   PO413732   3.623   9.209   4.926  0.3141  0.0087 -0.0636
  859loPI   GL113733   3.775   9.163   5.334  0.1217  0.3822  0.0435
  859loPI   GL213734   4.010   9.437   5.282 -0.1555 -0.0427  0.0473
  859loPI   C1A13735   3.471   9.151   5.677  0.0114 -0.0429 -0.1985
  859loPI   C2A13736   3.194   9.373   5.859  0.0710 -0.1357 -0.2981
  859loPI   C3A13737   3.182   9.377   6.286  0.0590 -0.1324  0.1660
  859loPI   C4A13738   3.057   9.357   6.618  0.3943  0.1861 -0.1350
  859loPI   C5A13739   2.903   9.257   7.031  0.2566  0.1047 -0.1894
  859loPI   C6A13740   3.094   9.400   7.466  0.1433 -0.3518 -0.0704
  859loPI   C1B13741   3.771   9.593   5.610  0.1565  0.1957  0.1000
  859loPI   C2B13742   3.687   9.439   6.094  0.0536  0.2391  0.0290
  859loPI   C3B13743   3.690   9.415   6.535  0.2618  0.3856  0.0319
  859loPI   C4B13744   3.877   9.571   6.997  0.1000  0.1417 -0.1263
  860loPI    C113745   9.272   5.296   4.896 -0.1768 -0.0003 -0.0063
  860loPI    C213746   9.535   5.307   5.197 -0.0957  0.1051 -0.0802
  860loPI    C313747   9.654   5.196   4.831 -0.1734  0.0685 -0.0946
  860loPI   PO413748   9.004   5.206   4.978 -0.1637  0.2153 -0.1711
  860loPI   GL113749   8.846   5.339   5.333  0.1211 -0.1310 -0.1481
  860loPI   GL213750   9.105   5.360   5.462 -0.2293  0.1258  0.0896
  860loPI   C1A13751   8.638   5.153   5.732  0.0264  0.1339 -0.1117
  860loPI   C2A13752   8.641   5.001   6.080  0.1156  0.0409 -0.1770
  860loPI   C3A13753   8.561   5.145   6.485 -0.1847 -0.1160 -0.2103
  860loPI   C4A13754   8.549   5.002   6.909  0.2089 -0.0910 -0.0362
  860loPI   C5A13755   8.645   4.921   7.371 -0.1181  0.1681  0.0867
  860loPI   C6A13756   8.943   5.018   7.716  0.2130 -0.1002  0.0876
  860loPI   C1B13757   9.493   5.067   5.614  0.0208 -0.1545 -0.1772
  860loPI   C2B13758   9.544   5.060   6.065  0.0748 -0.0249 -0.0440
  860loPI   C3B13759   9.403   5.052   6.537  0.0200 -0.2175  0.3089
  860loPI   C4B13760   9.426   4.957   6.905 -0.0393  0.0928 -0.2070
  861loPI    C113761   9.539  15.179   4.379 -0.1668 -0.0401 -0.1144
  861loPI    C213762   9.802  15.477   4.338 -0.0966 -0.1081 -0.1611
  861loPI    C313763   9.507  15.434   4.072 -0.2783  0.0909  0.0047
  861loPI   PO413764   9.513  15.178   4.591  0.1777  0.0383 -0.1286
  861loPI   GL113765   9.418  15.237   5.030 -0.1488  0.3692  0.2836
  861loPI   GL213766   9.545  15.043   5.217  0.0465 -0.1479  0.1150
  861loPI   C1A13767   9.222  15.371   5.481  0.2178  0.0589  0.1593
  861loPI   C2A13768   9.383  15.456   5.958  0.3367  0.4542  0.2299
  861loPI   C3A13769   9.330  15.495   6.426  0.0026  0.5249 -0.0560
  861loPI   C4A13770   9.388  15.587   6.870  0.0554  0.1034  0.2306
  861loPI   C5A13771   9.369  15.721   7.257  0.2441 -0.1451  0.0112
  861loPI   C6A13772   9.167  16.035   7.615  0.2588 -0.2324 -0.1270
  861loPI   C1B13773   9.523  14.855   5.583  0.1940 -0.2037 -0.1349
  861loPI   C2B13774   9.583  14.972   5.975  0.0416  0.0056 -0.0437
  861loPI   C3B13775   9.643  15.021   6.358  0.2366 -0.2225  0.1021
  861loPI   C4B13776   9.692  15.143   6.753 -0.1063  0.2589  0.0099
  862loPI    C113777   8.865  17.841   4.564 -0.0684 -0.0073  0.0186
  862loPI    C213778   9.030  17.548   4.347 -0.0024  0.0387  0.0064
  862loPI    C313779   8.698  17.730   4.218 -0.1077 -0.1071  0.0691
  862loPI   PO413780   8.840  17.762   4.791 -0.2299 -0.0232 -0.5315
  862loPI   GL113781   8.958  17.755   5.230 -0.3802 -0.0729  0.3483
  862loPI   GL213782   8.731  17.907   5.501 -0.0564  0.1184  0.0870
  862loPI   C1A13783   9.170  17.810   5.660  0.0546  0.2473 -0.2961
  862loPI   C2A13784   9.318  17.748   6.049  0.2137 -0.0457 -0.0100
  862loPI   C3A13785   9.297  17.789   6.529 -0.1319  0.1353  0.1333
  862loPI   C4A13786   9.346  17.772   6.883  0.0109 -0.0953  0.0875
  862loPI   C5A13787   9.075  17.761   7.335  0.2592  0.0181  0.0263
  862loPI   C6A13788   8.831  18.096   7.455  0.4398 -0.1937  0.0582
  862loPI   C1B13789   8.761  17.793   6.017  0.2028  0.4654  0.2393
  862loPI   C2B13790   8.841  17.826   6.338  0.4035  0.0209 -0.1790
  862loPI   C3B13791   8.819  17.783   6.788 -0.2852  0.1153 -0.1377
  862loPI   C4B13792   8.603  17.797   7.137  0.0061  0.0733  0.1348
  863loPI    C113793   9.622   3.994   4.780  0.0246 -0.2502  0.3502
  863loPI    C213794   9.504   3.694   5.017  0.0447 -0.3346  0.2540
  863loPI    C313795   9.443   3.673   4.622 -0.2460 -0.0688  0.2806
  863loPI   PO413796   9.601   4.246   4.847  0.1728  0.0102 -0.2298
  863loPI   GL113797   9.353   4.366   5.195  0.2039  0.0827 -0.0256
  863loPI   GL213798   9.516   4.129   5.314  0.0666  0.3344  0.1157
  863loPI   C1A13799   9.406   4.570   5.584  0.0256  0.2508 -0.0228
  863loPI   C2A13800   9.564   4.589   5.895 -0.1164  0.2542 -0.2684
  863loPI   C3A13801   9.488   4.547   6.323 -0.1647  0.0406 -0.3381
  863loPI   C4A13802   9.502   4.454   6.776  0.1472 -0.0261 -0.3636
  863loPI   C5A13803   9.430   4.391   7.197 -0.0356  0.5221 -0.1997
  863loPI   C6A13804   9.542   4.716   7.413 -0.0100 -0.0484 -0.1129
  863loPI   C1B13805   9.546   4.075   5.696  0.2967  0.3639  0.0522
  863loPI   C2B13806   9.504   4.050   6.091  0.1481 -0.1265 -0.3134
  863loPI   C3B13807   9.416   4.022   6.475 -0.2025 -0.2877 -0.1242
  863loPI   C4B13808   9.386   3.976   6.930  0.3221  0.1035  0.0494
  864loPI    C113809  15.743   1.921   5.083 -0.0618  0.0966 -0.2948
  864loPI    C213810  15.640   1.540   5.018  0.0381  0.0318 -0.0791
  864loPI    C313811  15.366   1.829   4.984 -0.1299 -0.0998  0.1259
  864loPI   PO413812  15.845   1.890   5.276 -0.2414 -0.1221  0.0222
  864loPI   GL113813  15.734   1.945   5.584 -0.0153 -0.3067  0.1777
  864loPI   GL213814  15.708   2.264   5.748  0.0323 -0.1148 -0.1954
  864loPI   C1A13815  15.706   1.756   5.981  0.0049 -0.0659 -0.1417
  864loPI   C2A13816  15.728   1.788   6.462  0.0543  0.0226 -0.1991
  864loPI   C3A13817  15.782   1.887   6.901  0.0128  0.1132 -0.1735
  864loPI   C4A13818  15.807   1.887   7.361 -0.0120  0.0843  0.1704
  864loPI   C5A13819  15.986   1.910   7.799 -0.3248 -0.0339  0.0777
  864loPI   C6A13820  16.020   1.630   8.148 -0.0703 -0.1036  0.1339
  864loPI   C1B13821  15.959   2.149   6.169  0.1006 -0.0704 -0.0351
  864loPI   C2B13822  16.171   2.205   6.635 -0.0400  0.1222 -0.2639
  864loPI   C3B13823  16.181   2.163   7.057 -0.1540  0.1865  0.2045
  864loPI   C4B13824  16.247   2.165   7.489  0.0282 -0.1161 -0.0645
  865loPI    C113825  12.448   2.281   4.466 -0.0045 -0.0448 -0.0784
  865loPI    C213826  12.445   2.342   4.071  0.0072  0.0044 -0.0711
  865loPI    C313827  12.129   2.173   4.249 -0.0744  0.1497 -0.0756
  865loPI   PO413828  12.706   2.163   4.556  0.1200 -0.2931  0.3922
  865loPI   GL113829  12.901   2.097   4.960  0.1754 -0.0854 -0.2757
  865loPI   GL213830  13.122   1.973   5.019 -0.0777  0.0577  0.0919
  865loPI   C1A13831  12.875   2.417   5.317  0.0194  0.1237  0.2186
  865loPI   C2A13832  12.701   2.412   5.720  0.1662  0.0807  0.2807
  865loPI   C3A13833  12.669   2.280   6.118 -0.0231  0.1832 -0.1015
  865loPI   C4A13834  12.636   2.361   6.520 -0.0429  0.2736  0.0516
  865loPI   C5A13835  12.642   2.205   6.832 -0.1949 -0.2099 -0.2512
  865loPI   C6A13836  12.698   2.171   7.243 -0.0374 -0.2895  0.0379
  865loPI   C1B13837  13.191   2.080   5.547  0.0159  0.0361  0.1238
  865loPI   C2B13838  13.083   2.185   5.932  0.2587  0.0794  0.1036
  865loPI   C3B13839  13.149   2.099   6.329  0.0509  0.0470 -0.0400
  865loPI   C4B13840  13.090   2.055   6.807 -0.0257  0.0011 -0.0185
  866loPI    C113841   0.494   4.294   4.916  0.0797 -0.1428 -0.2007
  866loPI    C213842   0.832   4.406   4.734  0.1542  0.0863  0.0710
  866loPI    C313843   0.551   4.678   4.818  0.0058 -0.0628  0.0622
  866loPI   PO413844   0.524   4.135   5.161  0.2723 -0.1357  0.4585
  866loPI   GL113845   0.508   4.148   5.500 -0.1891  0.1533 -0.1088
  866loPI   GL213846   0.174   4.119   5.486  0.4272 -0.3855  0.0778
  866loPI   C1A13847   0.361   4.111   5.912  0.5253  0.1508 -0.1819
  866loPI   C2A13848   0.329   4.062   6.322 -0.1870  0.1250 -0.2342
  866loPI   C3A13849   0.424   3.993   6.706 -0.1016  0.0205 -0.1432
  866loPI   C4A13850   0.493   4.098   7.086  0.1759  0.1354  0.1429
  866loPI   C5A13851   0.409   4.379   7.458 -0.0714 -0.1713  0.1315
  866loPI   C6A13852   0.549   4.316   7.963 -0.3002  0.0796  0.2537
  866loPI   C1B13853  -0.151   4.178   5.840  0.0721  0.0392  0.1390
  866loPI   C2B13854  -0.113   4.248   6.325 -0.2228  0.2322  0.1307
  866loPI   C3B13855  -0.143   4.291   6.712 -0.0348 -0.1747 -0.0468
  866loPI   C4B13856  -0.286   4.641   7.019 -0.1696 -0.0002  0.0678
  867loPI    C113857   0.765   3.333   5.099  0.1330  0.1205 -0.1062
  867loPI    C213858   0.655   3.332   4.714 -0.0991  0.1543 -0.0418
  867loPI    C313859   0.496   3.598   4.967  0.0766  0.1534  0.0716
  867loPI   PO413860   0.826   3.028   5.146  0.4021 -0.0341  0.1309
  867loPI   GL113861   0.909   2.849   5.536 -0.0987  0.2367  0.0868
  867loPI   GL213862   0.878   2.516   5.396  0.1750  0.0107 -0.0851
  867loPI   C1A13863   0.825   2.594   5.925 -0.0224  0.3394  0.2020
  867loPI   C2A13864   1.016   2.345   6.248  0.2227  0.2483 -0.2134
  867loPI   C3A13865   0.982   2.286   6.696 -0.1717 -0.3896  0.2444
  867loPI   C4A13866   0.899   2.278   7.164  0.0354 -0.0312 -0.0550
  867loPI   C5A13867   0.672   1.984   7.389 -0.1014 -0.0225  0.0574
  867loPI   C6A13868   0.364   1.927   7.635 -0.0099 -0.0168 -0.0285
  867loPI   C1B13869   0.743   2.171   5.661 -0.1635  0.2080  0.2247
  867loPI   C2B13870   0.522   1.891   6.057 -0.0772  0.0298 -0.2832
  867loPI   C3B13871   0.511   2.047   6.446 -0.2033  0.1132  0.0431
  867loPI   C4B13872   0.610   2.012   6.858  0.1538 -0.0875 -0.1816
  868loPI    C113873  10.596  17.014   4.666 -0.0014 -0.1398  0.0418
  868loPI    C213874  10.406  17.157   4.344 -0.1047  0.0052  0.1654
  868loPI    C313875  10.311  16.796   4.489 -0.2210  0.0376  0.1706
  868loPI   PO413876  10.608  17.176   4.863 -0.1715 -0.4034  0.2815
  868loPI   GL113877  10.771  17.254   5.264 -0.0261  0.2423  0.2528
  868loPI   GL213878  10.485  17.186   5.422 -0.0495  0.3134  0.2430
  868loPI   C1A13879  10.835  17.423   5.691  0.2899  0.1462 -0.0320
  868loPI   C2A13880  10.881  17.536   6.141 -0.0424 -0.3857  0.2512
  868loPI   C3A13881  10.809  17.674   6.605 -0.3682  0.1715 -0.0899
  868loPI   C4A13882  10.792  17.671   7.069  0.0652 -0.0089  0.1080
  868loPI   C5A13883  11.121  17.638   7.438  0.3046  0.2589 -0.0221
  868loPI   C6A13884  11.085  17.675   7.833 -0.0572  0.1046  0.1893
  868loPI   C1B13885  10.468  17.079   5.813  0.2029 -0.0589 -0.0791
  868loPI   C2B13886  10.551  17.051   6.274 -0.3634  0.1178  0.1243
  868loPI   C3B13887  10.487  17.199   6.768 -0.1491  0.0041 -0.2755
  868loPI   C4B13888  10.392  17.308   7.119 -0.1738 -0.3763  0.1662
  869loPI    C113889  11.680   0.373   5.257 -0.1885 -0.2204 -0.1058
  869loPI    C213890  11.492   0.128   5.002 -0.2175 -0.3087 -0.0002
  869loPI    C313891  11.385   0.512   5.025 -0.1277 -0.2698 -0.2135
  869loPI   PO413892  11.976   0.362   5.110  0.0398  0.1086  0.3410
  869loPI   GL113893  12.246   0.409   5.496  0.0245  0.2011 -0.1618
  869loPI   GL213894  12.096   0.166   5.656  0.0218  0.2780  0.1198
  869loPI   C1A13895  12.374   0.563   5.908 -0.0544 -0.2999 -0.0114
  869loPI   C2A13896  12.314   0.510   6.379 -0.0288  0.3258  0.0847
  869loPI   C3A13897  12.427   0.325   6.870 -0.1450 -0.2518  0.2728
  869loPI   C4A13898  12.314   0.384   7.193 -0.0113 -0.3575 -0.3726
  869loPI   C5A13899  12.418   0.567   7.531 -0.0270  0.0677  0.1060
  869loPI   C6A13900  12.549   0.835   7.758 -0.0672 -0.2953  0.3109
  869loPI   C1B13901  11.933   0.362   5.974 -0.0413  0.4080 -0.1178
  869loPI   C2B13902  11.865   0.240   6.413  0.0512  0.1240 -0.0979
  869loPI   C3B13903  11.560   0.353   6.817 -0.1736  0.0890 -0.0748
  869loPI   C4B13904  11.507   0.198   7.232 -0.1757 -0.1491 -0.0424
  870loPI    C113905   7.900  10.864   5.030  0.2330  0.0471 -0.0847
  870loPI    C213906   7.744  10.721   4.690  0.1663  0.0403 -0.0513
  870loPI    C313907   8.040  10.524   4.872 -0.0780 -0.1798  0.1158
  870loPI   PO413908   7.685  11.075   5.051  0.2099  0.0662  0.0486
  870loPI   GL113909   7.300  11.072   5.380 -0.1876 -0.3247  0.1632
  870loPI   GL213910   7.382  11.344   5.390  0.1930  0.2669  0.2298
  870loPI   C1A13911   7.560  11.217   5.805 -0.0958 -0.2194  0.2325
  870loPI   C2A13912   7.674  11.313   6.276 -0.1890 -0.0032  0.2623
  870loPI   C3A13913   7.592  11.252   6.628  0.2591 -0.0555  0.1858
  870loPI   C4A13914   7.397  11.032   7.066  0.1316 -0.3236 -0.0761
  870loPI   C5A13915   7.320  10.926   7.568  0.1116 -0.1420 -0.0510
  870loPI   C6A13916   7.408  10.914   8.051  0.1643  0.3627  0.0939
  870loPI   C1B13917   7.448  11.707   5.697 -0.3203 -0.1394  0.2912
  870loPI   C2B13918   7.376  11.656   6.144 -0.0477 -0.2761  0.2314
  870loPI   C3B13919   7.541  11.763   6.626 -0.0647  0.0576 -0.0089
  870loPI   C4B13920   7.634  12.070   6.982 -0.0475  0.0488  0.1916
  871loPI    C113921   9.458  16.180   4.887  0.1727 -0.1885  0.1734
  871loPI    C213922   9.063  16.242   4.873  0.2312  0.1998  0.1400
  871loPI    C313923   9.258  16.120   4.546  0.1357 -0.0273  0.1660
  871loPI   PO413924   9.582  16.415   5.039 -0.0543 -0.0868  0.0895
  871loPI   GL113925   9.666  16.741   5.459  0.0836 -0.0688  0.1760
  871loPI   GL213926   9.569  16.391   5.564 -0.1360  0.1595  0.1256
  871loPI   C1A13927   9.710  16.725   5.905  0.2118 -0.0351  0.2676
  871loPI   C2A13928   9.759  16.812   6.329 -0.0527 -0.1374 -0.0270
  871loPI   C3A13929   9.712  16.843   6.745 -0.0714  0.2758  0.0199
  871loPI   C4A13930   9.627  16.852   7.145 -0.0511 -0.2238 -0.2109
  871loPI   C5A13931   9.354  16.906   7.463 -0.2195 -0.3092  0.1242
  871loPI   C6A13932   9.042  17.111   7.638 -0.4191 -0.1107  0.0182
  871loPI   C1B13933   9.465  16.291   6.027  0.1569 -0.2014  0.1467
  871loPI   C2B13934   9.417  16.372   6.425 -0.1546 -0.0986 -0.0115
  871loPI   C3B13935   9.374  16.360   6.884  0.0171 -0.1274 -0.0585
  871loPI   C4B13936   9.391  16.347   7.268 -0.1513  0.5079 -0.0051
  872loPI    C113937   4.739   5.092   4.268 -0.2511 -0.0693 -0.2605
  872loPI    C213938   4.865   5.439   4.422  0.3350 -0.2773 -0.2453
  872loPI    C313939   4.687   5.431   4.063 -0.1437  0.0901 -0.0274
  872loPI   PO413940   4.643   4.960   4.499  0.1322 -0.2047  0.1344
  872loPI   GL113941   4.648   4.717   4.830 -0.3474  0.2711 -0.0041
  872loPI   GL213942   4.619   4.433   4.948 -0.0321  0.1630  0.0797
  872loPI   C1A13943   4.516   5.030   5.149 -0.1479 -0.3137  0.0905
  872loPI   C2A13944   4.571   5.073   5.561  0.2926 -0.1970  0.2574
  872loPI   C3A13945   4.587   5.023   5.981  0.3064 -0.2194  0.5702
  872loPI   C4A13946   4.720   4.941   6.347  0.3442 -0.1257  0.0651
  872loPI   C5A13947   4.556   4.970   6.805  0.1919  0.0410 -0.1043
  872loPI   C6A13948   4.236   5.275   7.087  0.2160 -0.0516  0.3180
  872loPI   C1B13949   4.668   4.588   5.399 -0.0041  0.0764 -0.1088
  872loPI   C2B13950   4.585   4.556   5.881 -0.2754 -0.3248 -0.1287
  872loPI   C3B13951   4.654   4.467   6.326 -0.1998 -0.2092  0.2510
  872loPI   C4B13952   4.525   4.427   6.784  0.0112  0.4212  0.0731
  873loPI    C113953   4.038  11.588   5.073 -0.0996 -0.0998  0.0158
  873loPI    C213954   3.720  11.446   4.876 -0.0550  0.1011 -0.2042
  873loPI    C313955   4.064  11.509   4.682  0.0722  0.0376 -0.0014
  873loPI   PO413956   4.007  11.539   5.290 -0.0265 -0.0863 -0.1092
  873loPI   GL113957   4.011  11.783   5.662 -0.0984  0.2771  0.2054
  873loPI   GL213958   3.935  12.139   5.614  0.1416 -0.1152 -0.1625
  873loPI   C1A13959   4.169  11.809   6.083  0.0108  0.0404  0.0291
  873loPI   C2A13960   4.041  11.999   6.409  0.2878 -0.2636  0.0542
  873loPI   C3A13961   3.843  12.466   6.371  0.2004 -0.1535  0.0901
  873loPI   C4A13962   3.460  12.707   6.613  0.0940  0.1160 -0.0191
  873loPI   C5A13963   3.007  12.733   6.815  0.1695 -0.0246  0.2830
  873loPI   C6A13964   2.653  12.576   6.568  0.2489 -0.0569  0.2108
  873loPI   C1B13965   3.729  12.275   5.931  0.1486  0.0440  0.1314
  873loPI   C2B13966   3.612  12.706   6.033  0.1711  0.0415  0.0500
  873loPI   C3B13967   3.492  13.140   5.919 -0.1765 -0.0815 -0.1259
  873loPI   C4B13968   3.605  13.671   5.725 -0.0862 -0.2224  0.1868
  874loPI    C113969  -0.021  18.711   4.414 -0.0422 -0.0335 -0.0292
  874loPI    C213970  -0.137  18.513   4.086 -0.1185 -0.3828  0.2034
  874loPI    C313971   0.252  18.582   4.151 -0.1155 -0.1352 -0.0559
  874loPI   PO413972  -0.203  18.624   4.694  0.0413 -0.0424  0.2983
  874loPI   GL113973  -0.184  18.502   5.126 -0.1289 -0.2402  0.2860
  874loPI   GL213974  -0.101  18.756   5.191  0.1960 -0.0768 -0.0834
  874loPI   C1A13975  -0.135  18.418   5.516 -0.2709  0.2586  0.3171
  874loPI   C2A13976   0.021  18.524   5.949 -0.2636 -0.1186  0.0476
  874loPI   C3A13977   0.061  18.493   6.391  0.0472  0.1820 -0.1721
  874loPI   C4A13978   0.078  18.486   6.844 -0.1371  0.0139 -0.0086
  874loPI   C5A13979  -0.119  18.777   7.264 -0.0262 -0.1431  0.0820
  874loPI   C6A13980   0.162  19.012   7.521 -0.0548  0.2415  0.1116
  874loPI   C1B13981  -0.139  18.903   5.643 -0.3399 -0.0014 -0.0751
  874loPI   C2B13982  -0.144  19.051   6.078  0.4293 -0.4220  0.2128
  874loPI   C3B13983  -0.045  19.017   6.449  0.0711  0.1126  0.2240
  874loPI   C4B13984   0.042  18.997   6.804  0.1168 -0.0817 -0.1132
  875loPI    C113985  12.391   1.913   4.825 -0.0296  0.0373  0.0842
  875loPI    C213986  12.096   1.810   4.575  0.0735 -0.2754  0.0872
  875loPI    C313987  12.478   1.742   4.474  0.1282 -0.1764  0.2249
  875loPI   PO413988  12.419   1.827   5.062  0.0448  0.1225  0.0170
  875loPI   GL113989  12.561   2.026   5.312 -0.1408  0.0002  0.4242
  875loPI   GL213990  12.778   1.823   5.549  0.0091 -0.1094 -0.1984
  875loPI   C1A13991  12.307   2.043   5.713 -0.2082  0.3604 -0.0784
  875loPI   C2A13992  12.150   2.010   6.151 -0.1129  0.0676  0.3432
  875loPI   C3A13993  12.175   2.052   6.625 -0.0378  0.0229  0.0811
  875loPI   C4A13994  12.292   1.952   7.051 -0.1042  0.1778  0.4262
  875loPI   C5A13995  12.387   1.872   7.496  0.0432 -0.0750 -0.0210
  875loPI   C6A13996  12.698   2.067   7.779  0.2591 -0.2093 -0.0917
  875loPI   C1B13997  12.612   1.764   6.014  0.2264 -0.0635  0.4460
  875loPI   C2B13998  12.722   1.814   6.471  0.1397 -0.2488 -0.0795
  875loPI   C3B13999  12.719   1.739   6.852 -0.0239 -0.3302  0.0033
  875loPI   C4B14000  12.817   1.700   7.117  0.0697  0.1154 -0.0801
  876loPI    C114001   4.976  13.195   4.876  0.0692 -0.1620 -0.0652
  876loPI    C214002   4.586  13.157   4.794  0.0740 -0.1226 -0.1063
  876loPI    C314003   4.839  13.287   4.512  0.1157 -0.1407 -0.0774
  876loPI   PO414004   4.991  13.247   5.086  0.1629  0.3548 -0.0413
  876loPI   GL114005   5.084  13.453   5.362 -0.0312 -0.4352  0.1372
  876loPI   GL214006   4.725  13.438   5.507  0.2378 -0.2418  0.1127
  876loPI   C1A14007   5.239  13.609   5.639  0.1189 -0.4339 -0.1357
  876loPI   C2A14008   5.359  13.602   6.136 -0.0898  0.1684 -0.3003
  876loPI   C3A14009   5.429  13.671   6.458  0.0261 -0.1867 -0.2668
  876loPI   C4A14010   5.268  13.712   6.955 -0.0249  0.1671 -0.0090
  876loPI   C5A14011   5.358  13.575   7.417  0.0189 -0.1716 -0.1128
  876loPI   C6A14012   5.270  13.628   7.782 -0.0419  0.1540 -0.5945
  876loPI   C1B14013   4.856  13.523   5.897 -0.1461 -0.0008 -0.0924
  876loPI   C2B14014   4.917  13.804   6.181  0.2777  0.2626  0.1604
  876loPI   C3B14015   5.099  14.015   6.565  0.0448  0.1428  0.1932
  876loPI   C4B14016   5.250  14.212   6.960 -0.0113  0.1748 -0.0010
  877loPI    C114017   5.153   1.410   4.904  0.1134  0.1101  0.1968
  877loPI    C214018   5.241   1.149   4.613  0.0943  0.0967  0.2029
  877loPI    C314019   5.332   1.536   4.569 -0.3207  0.1750 -0.0175
  877loPI   PO414020   4.921   1.335   4.972  0.1400 -0.1979  0.1045
  877loPI   GL114021   4.789   1.081   5.380 -0.0789  0.0874 -0.1438
  877loPI   GL214022   5.162   1.262   5.367 -0.1116  0.2399 -0.0413
  877loPI   C1A14023   4.702   1.112   5.769 -0.5707  0.1805 -0.3696
  877loPI   C2A14024   4.660   1.058   6.149  0.1216 -0.0167 -0.1675
  877loPI   C3A14025   4.824   1.096   6.554  0.0972  0.2237  0.0801
  877loPI   C4A14026   5.246   1.289   6.702 -0.2324 -0.0182 -0.0328
  877loPI   C5A14027   5.546   1.314   7.146 -0.2353  0.0447  0.0195
  877loPI   C6A14028   5.831   1.671   7.313 -0.2727  0.1591 -0.0343
  877loPI   C1B14029   5.277   1.093   5.808 -0.0269 -0.0150  0.0574
  877loPI   C2B14030   5.236   0.896   6.204 -0.0854 -0.0638 -0.1104
  877loPI   C3B14031   5.183   0.750   6.639 -0.2300 -0.2486 -0.0553
  877loPI   C4B14032   5.001   0.962   6.953  0.1066 -0.1322 -0.3082
  878loPI    C114033  14.165  12.784   5.176  0.0834 -0.0044 -0.2957
  878loPI    C214034  14.474  13.037   5.188 -0.0199  0.1146 -0.0961
  878loPI    C314035  14.304  12.947   4.838  0.0699  0.2577 -0.1777
  878loPI   PO414036  14.273  12.512   5.344 -0.0695  0.1665  0.0652
  878loPI   GL114037  14.203  12.104   5.631 -0.0628 -0.0680 -0.0491
  878loPI   GL214038  13.926  12.321   5.645  0.0747  0.0496 -0.0133
  878loPI   C1A14039  14.354  12.367   6.085  0.0550  0.1973  0.1281
  878loPI   C2A14040  14.454  12.539   6.529 -0.0613 -0.3051 -0.0717
  878loPI   C3A14041  14.478  12.497   7.027  0.2885 -0.1775 -0.2195
  878loPI   C4A14042  14.325  12.608   7.422 -0.1104  0.0880  0.0087
  878loPI   C5A14043  14.032  12.427   7.760  0.0066  0.2455  0.0377
  878loPI   C6A14044  14.004  12.522   8.142  0.1739  0.2149  0.0571
  878loPI   C1B14045  13.550  12.172   5.876  0.0403 -0.0378  0.0292
  878loPI   C2B14046  13.360  12.389   6.149 -0.1394  0.1878  0.3658
  878loPI   C3B14047  13.511  12.708   6.564  0.0609 -0.1957  0.0907
  878loPI   C4B14048  13.473  12.983   6.964 -0.0389  0.0171 -0.0289
  879loPI    C114049  13.624   6.994   5.368 -0.1461  0.2017 -0.1058
  879loPI    C214050  13.984   7.084   5.219 -0.0859  0.0517 -0.0530
  879loPI    C314051  13.720   6.884   4.995 -0.0635 -0.0116 -0.0229
  879loPI   PO414052  13.764   6.946   5.658 -0.1870 -0.0977 -0.0988
  879loPI   GL114053  13.856   7.188   5.945  0.0362  0.1017  0.4216
  879loPI   GL214054  13.524   7.052   6.082  0.1547  0.1567 -0.2406
  879loPI   C1A14055  13.902   7.210   6.416  0.2832 -0.0257 -0.2057
  879loPI   C2A14056  13.983   7.271   6.816 -0.0990  0.0542 -0.1957
  879loPI   C3A14057  13.840   7.197   7.211 -0.0505  0.0489 -0.1110
  879loPI   C4A14058  13.886   7.143   7.620  0.3083  0.2380  0.0137
  879loPI   C5A14059  14.174   6.904   7.926 -0.1663 -0.2251 -0.0411
  879loPI   C6A14060  14.283   6.677   8.254  0.2097  0.2035  0.1437
  879loPI   C1B14061  13.369   7.035   6.455  0.1347  0.1108  0.0248
  879loPI   C2B14062  13.489   6.927   6.850  0.0424 -0.0013 -0.0060
  879loPI   C3B14063  13.454   6.930   7.387 -0.0657  0.1345  0.3493
  879loPI   C4B14064  13.557   6.886   7.904  0.2480  0.1205 -0.4075
  880loPI    C114065   8.913   4.725   4.799 -0.2383 -0.2247  0.3000
  880loPI    C214066   8.831   4.615   4.423 -0.1585 -0.0073  0.2176
  880loPI    C314067   8.559   4.817   4.636  0.0077  0.3754  0.0764
  880loPI   PO414068   8.942   4.546   4.978  0.0355 -0.1802  0.0379
  880loPI   GL114069   8.855   4.161   5.163 -0.1351  0.0324  0.0118
  880loPI   GL214070   9.086   3.932   5.107 -0.3178 -0.2507 -0.0443
  880loPI   C1A14071   9.010   4.187   5.612  0.2187 -0.0672  0.0062
  880loPI   C2A14072   9.109   4.303   6.020 -0.2631 -0.0510  0.0811
  880loPI   C3A14073   8.953   4.201   6.458  0.2223 -0.1839 -0.1173
  880loPI   C4A14074   8.962   4.231   6.923  0.1368  0.2005  0.0116
  880loPI   C5A14075   9.016   4.027   7.347  0.0122  0.0078 -0.1902
  880loPI   C6A14076   8.832   3.526   7.591  0.3819 -0.1963  0.2243
  880loPI   C1B14077   9.223   3.702   5.423 -0.5048 -0.0526 -0.0200
  880loPI   C2B14078   9.483   3.567   5.896 -0.0915 -0.0881  0.1817
  880loPI   C3B14079   9.507   3.556   6.332 -0.0496 -0.0634  0.3043
  880loPI   C4B14080   9.480   3.463   6.794  0.1009  0.1600 -0.2293
  881loPI    C114081   0.668  16.404   5.399  0.0178  0.0409 -0.0379
  881loPI    C214082   0.535  16.067   5.231  0.0942  0.0364 -0.0896
  881loPI    C314083   0.922  16.166   5.202  0.1096  0.0315  0.0910
  881loPI   PO414084   0.380  16.540   5.284 -0.1177  0.0820  0.0594
  881loPI   GL114085   0.069  16.605   5.585 -0.1641 -0.0025  0.0298
  881loPI   GL214086   0.377  16.727   5.737 -0.2430  0.1254 -0.3981
  881loPI   C1A14087   0.031  16.535   6.006  0.0106  0.4377 -0.0717
  881loPI   C2A14088   0.008  16.635   6.387  0.2324  0.0517 -0.1657
  881loPI   C3A14089   0.182  16.523   6.781  0.0670  0.1330  0.0244
  881loPI   C4A14090   0.462  16.437   7.131  0.1907 -0.3403  0.3676
  881loPI   C5A14091   0.853  16.234   7.362 -0.0041  0.1092  0.1495
  881loPI   C6A14092   1.284  16.109   7.493  0.2128 -0.1395  0.0165
  881loPI   C1B14093   0.409  17.091   6.104  0.0895  0.1793  0.0641
  881loPI   C2B14094   0.362  17.023   6.513 -0.1733 -0.1558 -0.3273
  881loPI   C3B14095   0.430  17.012   6.941 -0.1196 -0.3195 -0.0108
  881loPI   C4B14096   0.706  16.822   7.328 -0.1963 -0.2968 -0.2927
  882loPI    C114097   2.662  17.325   4.548  0.2940 -0.0081 -0.0555
  882loPI    C214098   2.849  17.660   4.436  0.0203  0.2213  0.1571
  882loPI    C314099   2.517  17.543   4.246  0.2629 -0.0799 -0.0927
  882loPI   PO414100   2.667  17.419   4.871 -0.0298  0.0899 -0.1055
  882loPI   GL114101   2.843  17.210   5.175  0.0667  0.1251  0.0340
  882loPI   GL214102   2.552  17.136   5.376  0.2878  0.0514  0.0010
  882loPI   C1A14103   3.089  17.192   5.539 -0.0516 -0.0852  0.0680
  882loPI   C2A14104   3.122  17.195   5.932  0.1897  0.4314 -0.1571
  882loPI   C3A14105   3.134  17.146   6.336  0.0713 -0.3117 -0.0793
  882loPI   C4A14106   3.204  17.094   6.767  0.0129 -0.1705  0.0260
  882loPI   C5A14107   3.376  17.101   7.191 -0.3877 -0.0565  0.0912
  882loPI   C6A14108   3.344  16.858   7.622  0.0523  0.0292  0.0043
  882loPI   C1B14109   2.593  17.207   5.680 -0.0648 -0.0560  0.0651
  882loPI   C2B14110   2.631  17.209   6.139 -0.1487 -0.2589  0.0038
  882loPI   C3B14111   2.705  17.228   6.571  0.0774 -0.1435 -0.3130
  882loPI   C4B14112   2.707  17.219   6.957  0.0141  0.1156 -0.0001
  883loPI    C114113  18.686  10.762   4.917  0.0920  0.0184 -0.0879
  883loPI    C214114  18.599  10.742   4.527 -0.0066 -0.1473 -0.0587
  883loPI    C314115  18.317  10.850   4.789  0.0393 -0.1085 -0.0251
  883loPI   PO414116  18.873  10.566   4.964  0.0696  0.0313 -0.0254
  883loPI   GL114117  18.818  10.442   5.382  0.1041 -0.0551 -0.0096
  883loPI   GL214118  19.136  10.585   5.458 -0.3204 -0.1847 -0.0185
  883loPI   C1A14119  18.752  10.418   5.832 -0.1988 -0.0224  0.3365
  883loPI   C2A14120  18.477  10.691   6.185 -0.1441  0.0109 -0.1694
  883loPI   C3A14121  18.467  10.705   6.677  0.0251 -0.1195  0.1363
  883loPI   C4A14122  18.436  10.704   7.030 -0.0083 -0.2281 -0.0497
  883loPI   C5A14123  18.623  10.878   7.341  0.0712 -0.1321 -0.1150
  883loPI   C6A14124  18.367  11.042   7.556  0.1354  0.2083 -0.0617
  883loPI   C1B14125  19.127  10.912   5.757  0.0654  0.1866 -0.1876
  883loPI   C2B14126  18.970  10.941   6.146 -0.3108  0.1243  0.1316
  883loPI   C3B14127  18.951  10.969   6.497  0.1826 -0.1351  0.1385
  883loPI   C4B14128  18.923  11.013   6.959 -0.0402  0.0276  0.0389
  884loPI    C114129   1.263  16.595   4.875 -0.0256  0.0820  0.1259
  884loPI    C214130   1.579  16.404   4.722 -0.0988  0.1983 -0.1775
  884loPI    C314131   1.556  16.803   4.699 -0.2484  0.1937 -0.1207
  884loPI   PO414132   1.236  16.591   5.074 -0.3659 -0.0991 -0.0069
  884loPI   GL114133   1.092  16.599   5.490  0.0798 -0.0710 -0.2211
  884loPI   GL214134   1.414  16.802   5.533  0.1832 -0.3339  0.0458
  884loPI   C1A14135   0.898  16.449   5.866  0.5009  0.0245 -0.0680
  884loPI   C2A14136   1.002  16.385   6.312 -0.0077 -0.0950  0.0925
  884loPI   C3A14137   1.230  16.134   6.622  0.1342 -0.0035 -0.1209
  884loPI   C4A14138   1.148  16.022   7.027  0.2092 -0.0243  0.2460
  884loPI   C5A14139   1.331  15.674   7.232 -0.2170  0.1699 -0.0751
  884loPI   C6A14140   1.144  15.393   7.406 -0.0287  0.2611 -0.1808
  884loPI   C1B14141   1.346  16.754   5.951 -0.3333 -0.2223 -0.0546
  884loPI   C2B14142   1.466  16.623   6.383 -0.0959  0.0800 -0.0871
  884loPI   C3B14143   1.383  16.669   6.833  0.0230 -0.0442 -0.3542
  884loPI   C4B14144   1.407  16.557   7.181  0.0132  0.0209  0.2356
  885loPI    C114145  17.809   5.128   5.750 -0.0105  0.0761  0.0487
  885loPI    C214146  17.500   5.283   5.549  0.0057  0.1041  0.0451
  885loPI    C314147  17.840   5.198   5.357  0.0073  0.0925  0.0531
  885loPI   PO414148  17.796   5.033   5.892  0.3032 -0.0848  0.3557
  885loPI   GL114149  17.703   5.160   6.287 -0.4875  0.1866 -0.0812
  885loPI   GL214150  17.819   4.825   6.412 -0.3807 -0.1058 -0.1621
  885loPI   C1A14151  17.288   5.415   6.494 -0.1775  0.1032  0.0986
  885loPI   C2A14152  16.900   5.270   6.720  0.0205 -0.4137 -0.0479
  885loPI   C3A14153  16.606   4.980   6.623  0.2283  0.0611 -0.1285
  885loPI   C4A14154  16.178   5.063   6.787 -0.1761 -0.0177 -0.1110
  885loPI   C5A14155  15.787   5.200   7.014 -0.0584  0.1672 -0.3112
  885loPI   C6A14156  15.420   5.174   7.281 -0.0415  0.2101 -0.1302
  885loPI   C1B14157  17.913   4.546   6.847 -0.0178 -0.1665 -0.0277
  885loPI   C2B14158  17.839   4.424   7.192  0.2977 -0.1096  0.1993
  885loPI   C3B14159  17.585   4.344   7.592  0.2573 -0.1647  0.3293
  885loPI   C4B14160  17.290   4.482   7.984  0.0675  0.0927  0.2368
  886loPI    C114161  10.040   6.013   4.877  0.1032  0.1388 -0.0222
  886loPI    C214162  10.193   6.307   4.654  0.1725  0.1869  0.0879
  886loPI    C314163   9.953   6.394   4.961  0.0880  0.1214  0.0409
  886loPI   PO414164  10.166   5.919   5.023 -0.2155 -0.0163  0.2780
  886loPI   GL114165  10.271   5.715   5.364  0.0087 -0.1357  0.4459
  886loPI   GL214166  10.535   5.764   5.545 -0.1487  0.0265 -0.0537
  886loPI   C1A14167   9.969   5.436   5.601  0.1427 -0.0907  0.0290
  886loPI   C2A14168   9.910   5.376   6.024 -0.2050  0.0052 -0.1819
  886loPI   C3A14169   9.875   5.288   6.469 -0.0295 -0.0576  0.0121
  886loPI   C4A14170   9.875   5.146   6.860 -0.0687  0.1233  0.1634
  886loPI   C5A14171   9.879   5.110   7.344 -0.0346  0.1105 -0.2127
  886loPI   C6A14172   9.881   4.888   7.804 -0.0727  0.0270  0.0311
  886loPI   C1B14173  10.562   5.652   6.009 -0.0503  0.0360 -0.0039
  886loPI   C2B14174  10.445   5.666   6.434 -0.0365 -0.1258 -0.1419
  886loPI   C3B14175  10.288   5.476   6.769 -0.0178  0.2473 -0.2075
  886loPI   C4B14176  10.230   5.462   7.249  0.0266  0.2039  0.0699
  887loPI    C114177  11.364  18.512   4.403  0.3588 -0.1275  0.0533
  887loPI    C214178  11.528  18.872   4.467  0.0939  0.0157 -0.0554
  887loPI    C314179  11.514  18.722   4.097  0.1619 -0.0877 -0.0169
  887loPI   PO414180  11.333  18.402   4.667  0.0242 -0.1725  0.1641
  887loPI   GL114181  11.193  18.489   5.136 -0.1727 -0.0866 -0.1512
  887loPI   GL214182  11.212  18.201   5.474 -0.1061 -0.1532  0.0009
  887loPI   C1A14183  11.029  18.649   5.599  0.0542 -0.0492  0.0164
  887loPI   C2A14184  10.949  18.918   5.935 -0.1067  0.2858  0.0135
  887loPI   C3A14185  10.950  19.247   6.196  0.3493  0.2268 -0.0753
  887loPI   C4A14186  11.012  19.353   6.641 -0.1151 -0.0821  0.4171
  887loPI   C5A14187  11.186  19.317   7.017 -0.0847 -0.0025  0.3366
  887loPI   C6A14188  11.210  19.400   7.434  0.1534  0.2595 -0.0304
  887loPI   C1B14189  11.277  18.355   5.889  0.3199 -0.0722  0.0143
  887loPI   C2B14190  11.309  18.650   6.256  0.0310 -0.0999  0.0609
  887loPI   C3B14191  11.260  18.861   6.497  0.2291  0.1267  0.0875
  887loPI   C4B14192  11.130  18.836   6.877 -0.3733  0.1965  0.0841
  888loPI    C114193   3.345   0.366   4.710  0.0582  0.0121 -0.1274
  888loPI    C214194   3.180   0.014   4.613  0.3208 -0.0598 -0.3234
  888loPI    C314195   3.462   0.175   4.379  0.1825  0.2971 -0.2512
  888loPI   PO414196   3.439   0.372   4.926 -0.0078  0.3411  0.0088
  888loPI   GL114197   3.380   0.682   5.295  0.0785  0.0777  0.1492
  888loPI   GL214198   3.026   0.824   5.345  0.0036 -0.2074 -0.0112
  888loPI   C1A14199   3.506   0.643   5.691 -0.0264  0.4711  0.1605
  888loPI   C2A14200   3.463   0.623   6.080 -0.1214  0.2180 -0.1494
  888loPI   C3A14201   3.442   0.626   6.544 -0.1130  0.1349 -0.0292
  888loPI   C4A14202   3.278   0.732   6.883  0.1340 -0.1480  0.0816
  888loPI   C5A14203   3.058   0.741   7.296  0.1980  0.3899 -0.1683
  888loPI   C6A14204   2.818   0.781   7.685 -0.3328 -0.2338  0.1146
  888loPI   C1B14205   2.980   0.746   5.704  0.0637  0.2475 -0.1265
  888loPI   C2B14206   2.996   0.774   6.121 -0.0044  0.0623 -0.0615
  888loPI   C3B14207   2.836   0.724   6.509  0.0661 -0.1313 -0.1895
  888loPI   C4B14208   2.720   0.788   6.932 -0.0161 -0.1198 -0.0306
  889loPI    C114209   0.398   2.343   4.677  0.1824 -0.0576  0.0901
  889loPI    C214210   0.200   2.631   4.483  0.0117  0.0279  0.3857
  889loPI    C314211   0.590   2.577   4.416  0.0000  0.1922  0.1758
  889loPI   PO414212   0.372   2.355   4.909 -0.0479  0.2526 -0.0323
  889loPI   GL114213   0.356   2.327   5.369  0.0281  0.3126  0.0869
  889loPI   GL214214   0.142   2.087   5.502  0.1358  0.0756 -0.0768
  889loPI   C1A14215   0.308   2.518   5.815 -0.1393 -0.0809 -0.1094
  889loPI   C2A14216   0.464   2.488   6.248  0.1985 -0.0251  0.2013
  889loPI   C3A14217   0.513   2.520   6.595  0.0436  0.1344 -0.1919
  889loPI   C4A14218   0.465   2.490   7.042  0.2049  0.0438 -0.0027
  889loPI   C5A14219   0.510   2.411   7.454  0.1787 -0.1060 -0.0329
  889loPI   C6A14220   0.324   2.437   7.898  0.2212  0.0061  0.3767
  889loPI   C1B14221   0.097   2.048   5.902 -0.0217 -0.0752  0.0721
  889loPI   C2B14222   0.030   2.138   6.328  0.1286 -0.1867  0.4743
  889loPI   C3B14223   0.078   2.142   6.773 -0.0278  0.0122  0.2854
  889loPI   C4B14224   0.151   2.137   7.133 -0.1821  0.1086  0.4494
  890loPI    C114225  10.244   8.313   5.448 -0.0131 -0.3016 -0.0031
  890loPI    C214226  10.484   8.023   5.311  0.1432 -0.0433 -0.2881
  890loPI    C314227  10.108   8.051   5.177  0.0039 -0.3400  0.0254
  890loPI   PO414228  10.375   8.373   5.654 -0.2332  0.0714 -0.0934
  890loPI   GL114229  10.287   8.543   5.948  0.0007 -0.0819  0.4790
  890loPI   GL214230  10.522   8.526   6.280  0.0665  0.0669  0.0434
  890loPI   C1A14231   9.961   8.594   6.348  0.2723  0.1935 -0.0233
  890loPI   C2A14232   9.622   8.593   6.622 -0.1330 -0.1080  0.0651
  890loPI   C3A14233   9.643   8.602   7.047 -0.0525 -0.0159 -0.0860
  890loPI   C4A14234   9.998   8.611   7.299 -0.0286 -0.3148  0.0665
  890loPI   C5A14235  10.073   8.366   7.639 -0.3735  0.0858 -0.0003
  890loPI   C6A14236  10.508   8.383   7.950 -0.0879 -0.0898 -0.1957
  890loPI   C1B14237  10.490   8.767   6.653  0.2645 -0.1937  0.1452
  890loPI   C2B14238  10.797   8.878   6.945 -0.0948  0.4304  0.1029
  890loPI   C3B14239  10.938   8.885   7.360  0.0236 -0.1080 -0.2335
  890loPI   C4B14240  10.884   8.597   7.587 -0.1206  0.2479  0.1419
  891loPI    C114241  17.965  14.414   5.450 -0.1201 -0.2075  0.0255
  891loPI    C214242  17.606  14.579   5.387  0.0726  0.0990 -0.3078
  891loPI    C314243  17.783  14.368   5.097  0.0466 -0.2877 -0.0511
  891loPI   PO414244  17.981  14.262   5.738 -0.0447 -0.0807  0.2678
  891loPI   GL114245  18.271  14.160   5.969 -0.0991 -0.0426 -0.1152
  891loPI   GL214246  18.439  13.911   5.905  0.1755 -0.3517 -0.4816
  891loPI   C1A14247  18.260  13.985   6.395 -0.2214  0.1798  0.1957
  891loPI   C2A14248  17.919  13.701   6.539  0.2487 -0.0148 -0.2025
  891loPI   C3A14249  17.527  13.761   6.693 -0.0705 -0.0971  0.2318
  891loPI   C4A14250  17.375  14.188   6.686  0.0714  0.1073 -0.1358
  891loPI   C5A14251  16.965  14.479   6.682  0.0034  0.0698 -0.3084
  891loPI   C6A14252  16.764  14.686   6.927  0.3022  0.0252 -0.2038
  891loPI   C1B14253  18.735  13.868   6.312 -0.2040  0.2574  0.1477
  891loPI   C2B14254  18.904  13.728   6.703 -0.1707 -0.0521 -0.0246
  891loPI   C3B14255  19.111  13.736   7.158  0.1011  0.0820  0.2905
  891loPI   C4B14256  19.339  13.791   7.503 -0.0639 -0.4055  0.1419
  892loPI    C114257  18.405  16.226   5.164 -0.0553  0.2459  0.2960
  892loPI    C214258  18.801  16.194   5.124 -0.0793 -0.0579  0.2806
  892loPI    C314259  18.577  16.294   4.809 -0.0627 -0.3945  0.1575
  892loPI   PO414260  18.385  16.311   5.432  0.0746  0.1494 -0.2484
  892loPI   GL114261  18.357  16.155   5.834  0.0242  0.1457  0.2303
  892loPI   GL214262  18.145  15.938   5.582 -0.0516  0.1988 -0.2227
  892loPI   C1A14263  18.350  16.088   6.281  0.5351 -0.0642  0.3833
  892loPI   C2A14264  18.404  16.338   6.614  0.3119  0.0942 -0.0496
  892loPI   C3A14265  18.436  16.700   6.895 -0.1583 -0.0588  0.0548
  892loPI   C4A14266  18.253  16.916   7.142 -0.1542  0.3386 -0.0168
  892loPI   C5A14267  18.381  17.098   7.525  0.0016 -0.2183  0.2628
  892loPI   C6A14268  18.622  17.208   7.803 -0.0768  0.0728 -0.0968
  892loPI   C1B14269  17.879  15.952   5.964 -0.0396 -0.0528 -0.0737
  892loPI   C2B14270  18.054  15.684   6.262  0.0323 -0.0472  0.2626
  892loPI   C3B14271  18.050  15.675   6.792  0.1112 -0.1217 -0.3360
  892loPI   C4B14272  17.990  15.566   7.246  0.1683 -0.0116 -0.2120
  893loPI    C114273   3.018   1.413   5.130  0.1899 -0.0670 -0.1270
  893loPI    C214274   2.864   1.254   4.798 -0.1205 -0.1602  0.0574
  893loPI    C314275   2.881   1.651   4.839 -0.0501 -0.1479 -0.0826
  893loPI   PO414276   3.219   1.249   5.194 -0.0137 -0.1248 -0.0026
  893loPI   GL114277   3.362   1.112   5.570  0.0953  0.1019 -0.0713
  893loPI   GL214278   3.232   1.474   5.640 -0.2352 -0.1526  0.1852
  893loPI   C1A14279   3.345   1.098   5.982 -0.1154  0.0581 -0.0888
  893loPI   C2A14280   3.250   1.139   6.375 -0.2660  0.0641 -0.3069
  893loPI   C3A14281   3.159   1.213   6.709  0.0720  0.0055  0.0819
  893loPI   C4A14282   2.959   1.187   7.068 -0.0565 -0.1664  0.0165
  893loPI   C5A14283   2.555   0.988   7.331 -0.1024  0.3511  0.2041
  893loPI   C6A14284   2.277   0.574   7.482  0.0701 -0.2150 -0.1901
  893loPI   C1B14285   3.239   1.619   6.133 -0.0315 -0.2928 -0.2823
  893loPI   C2B14286   3.468   1.597   6.488  0.1869  0.3216  0.0502
  893loPI   C3B14287   3.544   1.541   6.937  0.1326  0.1494 -0.0385
  893loPI   C4B14288   3.420   1.239   7.240 -0.0475  0.2207  0.0111
  894loPI    C114289   3.654   6.702   4.696  0.1275  0.4341 -0.0192
  894loPI    C214290   3.384   6.478   4.888  0.1431  0.4511  0.0226
  894loPI    C314291   3.332   6.566   4.501  0.3310  0.0505 -0.0990
  894loPI   PO414292   3.879   6.525   4.725  0.1769  0.1415  0.0972
  894loPI   GL114293   4.066   6.526   5.157  0.1388 -0.2113 -0.0710
  894loPI   GL214294   4.184   6.233   5.180 -0.3969 -0.1213 -0.0830
  894loPI   C1A14295   4.168   6.457   5.661  0.3690  0.0101 -0.0901
  894loPI   C2A14296   4.148   6.436   6.121 -0.0023  0.0869  0.2147
  894loPI   C3A14297   4.237   6.198   6.544  0.0261  0.1685  0.0831
  894loPI   C4A14298   4.057   6.147   7.027  0.3555 -0.0866 -0.0904
  894loPI   C5A14299   4.301   6.209   7.413  0.0040 -0.1731 -0.2153
  894loPI   C6A14300   4.310   6.395   7.857  0.2441 -0.0238  0.3635
  894loPI   C1B14301   4.205   5.906   5.510  0.3251  0.0105 -0.0529
  894loPI   C2B14302   4.146   5.818   5.934  0.1317 -0.0681 -0.1331
  894loPI   C3B14303   4.220   5.750   6.388 -0.0515 -0.1262  0.3061
  894loPI   C4B14304   4.251   5.710   6.800 -0.1604  0.1216 -0.0351
  895loPI    C114305   0.841  10.924   4.664 -0.0804 -0.3177  0.1349
  895loPI    C214306   0.521  10.767   4.483 -0.1061 -0.0809 -0.0295
  895loPI    C314307   0.640  11.138   4.392  0.0411 -0.0586  0.2454
  895loPI   PO414308   0.878  10.819   4.900  0.2173  0.4775  0.1094
  895loPI   GL114309   0.757  10.918   5.328 -0.1168 -0.1524 -0.1439
  895loPI   GL214310   0.600  11.177   5.438 -0.4249  0.1988 -0.1079
  895loPI   C1A14311   0.819  10.648   5.772 -0.1223 -0.0298 -0.0243
  895loPI   C2A14312   0.758  10.702   6.133 -0.0080 -0.2208  0.0560
  895loPI   C3A14313   0.742  10.902   6.559 -0.1579  0.0487 -0.0009
  895loPI   C4A14314   0.779  10.840   6.976 -0.2222 -0.0198 -0.1671
  895loPI   C5A14315   0.743  10.740   7.344  0.1354  0.1531  0.1748
  895loPI   C6A14316   0.742  10.567   7.802  0.0287 -0.0318 -0.0948
  895loPI   C1B14317   0.707  11.258   5.920 -0.1843  0.0534  0.0859
  895loPI   C2B14318   0.696  11.374   6.344 -0.1328  0.1326  0.0122
  895loPI   C3B14319   0.577  11.318   6.766 -0.1811  0.3092  0.0622
  895loPI   C4B14320   0.581  11.240   7.195  0.1026 -0.0364  0.1297
  896loPI    C114321   6.476  18.418   4.674  0.2446 -0.3511  0.1539
  896loPI    C214322   6.320  18.052   4.710 -0.1073 -0.2252 -0.0371
  896loPI    C314323   6.082  18.364   4.636  0.1661  0.0740  0.3091
  896loPI   PO414324   6.744  18.352   4.777 -0.3120 -0.1428  0.1522
  896loPI   GL114325   6.696  18.229   5.162  0.2427 -0.0254  0.0857
  896loPI   GL214326   6.362  18.215   5.258 -0.2742 -0.1677  0.2109
  896loPI   C1A14327   6.771  17.949   5.413  0.0653 -0.0727  0.0794
  896loPI   C2A14328   6.689  18.051   5.798 -0.0381  0.1217  0.0259
  896loPI   C3A14329   6.727  17.878   6.221 -0.1944  0.0649 -0.1523
  896loPI   C4A14330   6.729  17.926   6.643 -0.4333  0.0159 -0.3352
  896loPI   C5A14331   6.626  17.863   7.049 -0.1139 -0.0060  0.1675
  896loPI   C6A14332   6.797  18.058   7.466 -0.2156  0.0566 -0.1177
  896loPI   C1B14333   6.241  18.040   5.602  0.0558  0.1082  0.0657
  896loPI   C2B14334   6.201  17.988   6.040  0.0941  0.1589 -0.1560
  896loPI   C3B14335   6.099  18.058   6.396  0.1074  0.0270 -0.1349
  896loPI   C4B14336   6.112  17.864   6.780  0.1059  0.0257  0.0250
  897loPI    C114337  13.287   8.170   5.298  0.0549  0.3353  0.2013
  897loPI    C214338  12.919   8.042   5.206  0.1746  0.0176  0.1506
  897loPI    C314339  13.080   8.349   5.006  0.0445 -0.0219 -0.0171
  897loPI   PO414340  13.261   8.260   5.526 -0.3005  0.1765 -0.1529
  897loPI   GL114341  13.176   8.112   5.891  0.1994  0.1283  0.1124
  897loPI   GL214342  13.016   8.255   6.063 -0.1432  0.2075 -0.2927
  897loPI   C1A14343  13.547   8.049   6.282  0.2672 -0.1632  0.3797
  897loPI   C2A14344  13.552   7.989   6.657  0.1382 -0.2106  0.0285
  897loPI   C3A14345  13.498   8.066   7.090  0.3798 -0.2582  0.1544
  897loPI   C4A14346  13.518   8.124   7.593  0.0194  0.0442 -0.2916
  897loPI   C5A14347  13.376   7.974   7.983  0.0017  0.0450 -0.2180
  897loPI   C6A14348  13.505   7.736   8.310  0.0749  0.1650  0.0107
  897loPI   C1B14349  13.081   8.186   6.481  0.1226 -0.2025  0.1007
  897loPI   C2B14350  13.032   8.182   6.892  0.1321 -0.2599 -0.0719
  897loPI   C3B14351  13.113   8.247   7.325  0.0388 -0.1187 -0.2620
  897loPI   C4B14352  12.984   8.289   7.713  0.0272 -0.3637 -0.4436
  898loPI    C114353   4.708   2.118   4.522  0.0457  0.0138  0.0739
  898loPI    C214354   4.635   1.864   4.221  0.0367  0.0254  0.0664
  898loPI    C314355   4.984   1.849   4.416  0.0948  0.1045 -0.0308
  898loPI   PO414356   4.529   2.050   4.675  0.1385 -0.1738  0.0443
  898loPI   GL114357   4.469   2.089   5.045 -0.0634  0.3058  0.2687
  898loPI   GL214358   4.253   2.119   5.289  0.1963  0.1435 -0.1225
  898loPI   C1A14359   4.834   2.213   5.423  0.0102 -0.1640  0.4906
  898loPI   C2A14360   4.777   2.103   5.853  0.1229 -0.0722 -0.2027
  898loPI   C3A14361   4.847   2.008   6.272 -0.1173  0.0123  0.2785
  898loPI   C4A14362   5.155   1.907   6.682  0.4305  0.0499 -0.1634
  898loPI   C5A14363   5.455   1.800   6.973  0.1082 -0.2726  0.1538
  898loPI   C6A14364   5.273   1.658   7.389 -0.2878 -0.0210  0.0700
  898loPI   C1B14365   4.153   2.223   5.732 -0.0417  0.0504 -0.0014
  898loPI   C2B14366   4.129   2.231   6.187 -0.0013  0.2424 -0.2081
  898loPI   C3B14367   4.488   2.332   6.404 -0.2526  0.0695  0.2689
  898loPI   C4B14368   4.697   2.163   6.770  0.2324  0.1184 -0.1198
  899loPI    C114369  14.663  16.779   5.396  0.1735 -0.2501  0.1954
  899loPI    C214370  14.832  16.639   5.062 -0.1912  0.0796 -0.1369
  899loPI    C314371  14.703  16.384   5.341  0.1607 -0.1980 -0.2190
  899loPI   PO414372  14.566  16.988   5.336  0.0767 -0.1246  0.1436
  899loPI   GL114373  14.340  17.206   5.651  0.0607 -0.1595 -0.2186
  899loPI   GL214374  14.408  17.483   5.531  0.1866 -0.1033  0.0503
  899loPI   C1A14375  14.403  17.227   6.147 -0.0161  0.3328  0.1002
  899loPI   C2A14376  14.448  17.238   6.598 -0.0216  0.1523  0.1854
  899loPI   C3A14377  14.585  17.416   6.950 -0.0427 -0.0630 -0.2340
  899loPI   C4A14378  14.669  17.175   7.342 -0.2920  0.0669  0.0661
  899loPI   C5A14379  15.006  16.853   7.561  0.1835  0.1746  0.3999
  899loPI   C6A14380  15.448  16.782   7.549  0.0912  0.1434  0.1472
  899loPI   C1B14381  14.514  17.960   5.735  0.1079 -0.2747 -0.2422
  899loPI   C2B14382  14.750  18.166   6.110  0.0597  0.1899  0.0286
  899loPI   C3B14383  15.022  18.128   6.422  0.1610  0.2048  0.3352
  899loPI   C4B14384  15.114  18.384   6.661  0.1975  0.1853  0.2495
  900loPI    C114385   7.330  17.423   4.662  0.2422  0.0797 -0.0962
  900loPI    C214386   7.095  17.436   4.339  0.0529  0.4204  0.0499
  900loPI    C314387   7.473  17.311   4.306 -0.0545  0.1595 -0.2436
  900loPI   PO414388   7.158  17.563   4.806  0.1351  0.0401 -0.2200
  900loPI   GL114389   7.173  17.807   5.197  0.0707  0.0341  0.1522
  900loPI   GL214390   7.153  18.051   4.993 -0.0757 -0.2870  0.0523
  900loPI   C1A14391   7.283  17.832   5.657 -0.1239 -0.2099 -0.0347
  900loPI   C2A14392   7.180  17.902   6.088 -0.1873  0.3753  0.0694
  900loPI   C3A14393   7.215  17.910   6.540  0.1528 -0.0178  0.0783
  900loPI   C4A14394   7.145  17.913   6.933  0.0183  0.0564 -0.2131
  900loPI   C5A14395   7.126  17.656   7.268 -0.1869  0.0692  0.1233
  900loPI   C6A14396   6.800  17.372   7.295 -0.1381 -0.0507  0.0500
  900loPI   C1B14397   7.214  18.313   5.377  0.1578 -0.1492  0.1115
  900loPI   C2B14398   7.085  18.295   5.777  0.1136  0.1156  0.0993
  900loPI   C3B14399   6.985  18.411   6.178 -0.2933  0.0969 -0.3774
  900loPI   C4B14400   7.003  18.403   6.651 -0.0007  0.2983 -0.2009
  901loPI    C114401   4.360  14.688   4.907 -0.0323  0.0558  0.0051
  901loPI    C214402   4.108  14.380   4.948 -0.1386  0.1131 -0.2025
  901loPI    C314403   4.100  14.682   5.211  0.0668 -0.1284  0.0879
  901loPI   PO414404   4.594  14.602   4.885  0.0536 -0.0825  0.0320
  901loPI   GL114405   4.781  14.463   5.276  0.1919  0.2313 -0.3693
  901loPI   GL214406   4.474  14.419   5.352  0.0807 -0.0339  0.1319
  901loPI   C1A14407   4.978  14.524   5.636 -0.0612  0.0853  0.1663
  901loPI   C2A14408   5.202  14.646   5.981  0.0540  0.4401  0.0322
  901loPI   C3A14409   5.231  14.883   6.319 -0.0142  0.0927 -0.0133
  901loPI   C4A14410   5.073  15.167   6.616  0.0156 -0.1267  0.2623
  901loPI   C5A14411   4.980  15.069   7.065  0.2499 -0.1269  0.0742
  901loPI   C6A14412   4.777  15.075   7.458  0.5330 -0.2153  0.1873
  901loPI   C1B14413   4.340  14.710   5.659  0.2518 -0.0264 -0.4196
  901loPI   C2B14414   4.560  14.774   6.126  0.0847 -0.1725  0.2270
  901loPI   C3B14415   4.575  14.886   6.595  0.0157 -0.0901  0.1029
  901loPI   C4B14416   4.477  15.149   6.992  0.1281  0.2672  0.1349
  902loPI    C114417   6.902   9.408   5.070  0.1036  0.0562  0.0211
  902loPI    C214418   7.287   9.298   5.081  0.0493 -0.1451 -0.0539
  902loPI    C314419   7.154   9.531   4.785  0.0911 -0.1633 -0.0870
  902loPI   PO414420   6.879   9.529   5.313  0.1931 -0.1574 -0.2785
  902loPI   GL114421   6.819   9.409   5.778  0.2929 -0.1268  0.0404
  902loPI   GL214422   7.067   9.478   6.043 -0.1544 -0.0540 -0.0738
  902loPI   C1A14423   6.575   9.235   6.104 -0.1009  0.1338  0.0483
  902loPI   C2A14424   6.350   9.003   6.323  0.2076  0.0342 -0.0507
  902loPI   C3A14425   6.243   8.549   6.507 -0.1795  0.0171  0.0007
  902loPI   C4A14426   6.136   8.163   6.728  0.3477  0.0950 -0.0290
  902loPI   C5A14427   6.407   7.977   7.103 -0.0598  0.2215  0.2336
  902loPI   C6A14428   6.694   7.787   7.502  0.0210  0.1030  0.0233
  902loPI   C1B14429   7.024   9.305   6.440 -0.0909  0.1085 -0.2813
  902loPI   C2B14430   6.971   9.534   6.859  0.0101 -0.2646 -0.2842
  902loPI   C3B14431   6.863   9.701   7.245  0.0843 -0.1903  0.3153
  902loPI   C4B14432   7.029   9.411   7.595 -0.1256  0.0207  0.2555
  903loPI    C114433   4.512  17.189   4.690  0.1234 -0.0351 -0.1516
  903loPI    C214434   4.207  16.945   4.604  0.1040 -0.0936  0.0780
  903loPI    C314435   4.190  17.330   4.499 -0.0077 -0.1180  0.0057
  903loPI   PO414436   4.597  17.070   4.869 -0.0173 -0.2026  0.1227
  903loPI   GL114437   4.295  16.918   5.193 -0.1981 -0.1085 -0.3525
  903loPI   GL214438   4.183  16.689   5.361  0.0464 -0.2932 -0.2647
  903loPI   C1A14439   4.379  17.157   5.481  0.0639  0.0863 -0.1219
  903loPI   C2A14440   4.547  17.478   5.768 -0.0297 -0.0501  0.0648
  903loPI   C3A14441   4.296  17.761   6.072  0.1613 -0.2236 -0.2662
  903loPI   C4A14442   4.417  17.730   6.441 -0.2395 -0.0306 -0.2283
  903loPI   C5A14443   4.390  17.744   6.970 -0.2881 -0.1061 -0.1098
  903loPI   C6A14444   4.524  17.513   7.377 -0.0881 -0.1810 -0.2109
  903loPI   C1B14445   4.062  16.964   5.768  0.1676 -0.1399 -0.2150
  903loPI   C2B14446   4.094  16.881   6.263 -0.0020 -0.1202  0.1467
  903loPI   C3B14447   4.226  16.901   6.692 -0.2096  0.0439 -0.3047
  903loPI   C4B14448   4.240  16.785   7.029 -0.0398  0.0160  0.0739
  904loPI    C114449  10.835  17.738   4.674 -0.2400 -0.0544  0.0931
  904loPI    C214450  10.572  17.989   4.508  0.0870  0.1429 -0.1376
  904loPI    C314451  10.675  17.653   4.318 -0.1272 -0.0223  0.0342
  904loPI   PO414452  10.814  17.689   4.880  0.2596  0.0223 -0.1731
  904loPI   GL114453  10.472  17.621   5.167  0.1351 -0.1882  0.2422
  904loPI   GL214454  10.173  17.488   5.133  0.0241 -0.0826 -0.4648
  904loPI   C1A14455  10.330  17.632   5.584  0.1892  0.4376 -0.0147
  904loPI   C2A14456  10.325  17.497   5.986 -0.0637 -0.1518 -0.3174
  904loPI   C3A14457  10.345  17.622   6.379 -0.1782  0.1037 -0.1108
  904loPI   C4A14458  10.312  17.764   6.852  0.2162 -0.1747  0.2535
  904loPI   C5A14459  10.232  17.719   7.365  0.0560 -0.2526  0.2788
  904loPI   C6A14460   9.887  17.820   7.629 -0.1413 -0.1286 -0.1389
  904loPI   C1B14461   9.983  17.201   5.480 -0.1949  0.0247  0.1021
  904loPI   C2B14462   9.951  17.120   6.006  0.0252  0.1427  0.5772
  904loPI   C3B14463  10.017  17.266   6.348 -0.1125  0.3691  0.3317
  904loPI   C4B14464  10.008  17.308   6.818  0.3580 -0.3540 -0.0031
  905loPI    C114465  15.403  14.323   5.419  0.2391 -0.3181 -0.1498
  905loPI    C214466  15.128  14.194   5.158  0.0147  0.0630 -0.1093
  905loPI    C314467  15.014  14.387   5.490  0.3151 -0.1222  0.1060
  905loPI   PO414468  15.585  14.163   5.458  0.4059 -0.0694 -0.1313
  905loPI   GL114469  15.775  14.302   5.795  0.2160  0.1952 -0.0330
  905loPI   GL214470  15.371  14.215   5.908 -0.2804 -0.0124  0.1414
  905loPI   C1A14471  15.764  14.608   6.049 -0.1094 -0.0384 -0.1299
  905loPI   C2A14472  15.813  14.858   6.464 -0.2503 -0.1205 -0.1085
  905loPI   C3A14473  15.674  15.094   6.786  0.0534  0.2004 -0.2706
  905loPI   C4A14474  15.491  15.323   7.126  0.0719 -0.1330 -0.0163
  905loPI   C5A14475  15.390  15.537   7.433 -0.0129 -0.2254 -0.2035
  905loPI   C6A14476  15.190  15.863   7.698 -0.3085 -0.1002  0.1540
  905loPI   C1B14477  15.617  14.163   6.378 -0.1215  0.1398 -0.5420
  905loPI   C2B14478  15.630  14.052   6.816 -0.0547 -0.1251 -0.0679
  905loPI   C3B14479  15.772  14.132   7.224  0.0652  0.0824  0.1171
  905loPI   C4B14480  15.885  14.093   7.591 -0.1624  0.1479 -0.1658
  906loPI    C114481  13.422   0.458   4.589  0.2340 -0.1313  0.0819
  906loPI    C214482  13.192   0.704   4.805  0.2042 -0.0385 -0.0538
  906loPI    C314483  13.039   0.515   4.487  0.2911 -0.0472 -0.0906
  906loPI   PO414484  13.533   0.334   4.825  0.0173  0.1700 -0.3436
  906loPI   GL114485  13.551   0.482   5.235  0.1163 -0.0214 -0.0654
  906loPI   GL214486  13.274   0.343   5.367  0.0370  0.0944  0.1680
  906loPI   C1A14487  13.645   0.802   5.635 -0.2394  0.0274 -0.0844
  906loPI   C2A14488  13.658   0.923   6.068 -0.3346  0.0603 -0.0785
  906loPI   C3A14489  13.611   0.780   6.451 -0.0442 -0.2305 -0.0494
  906loPI   C4A14490  13.679   0.740   6.900  0.2555  0.2604 -0.0369
  906loPI   C5A14491  13.527   0.667   7.331  0.0182 -0.1003 -0.4376
  906loPI   C6A14492  13.422   0.710   7.850  0.0681 -0.1588  0.1073
  906loPI   C1B14493  13.210   0.527   5.728 -0.3446 -0.5020  0.1583
  906loPI   C2B14494  13.232   0.626   6.156  0.0517  0.0227  0.1831
  906loPI   C3B14495  13.221   0.502   6.518  0.0326 -0.0894 -0.0718
  906loPI   C4B14496  13.265   0.447   6.962 -0.0217  0.2908 -0.0380
  907loPI    C114497   8.306  15.123   4.799 -0.2928 -0.2524 -0.0230
  907loPI    C214498   8.211  15.268   4.439  0.0112 -0.0627 -0.0302
  907loPI    C314499   7.969  15.333   4.750 -0.1328 -0.0210 -0.1494
  907loPI   PO414500   8.547  15.290   4.904  0.2335  0.0387 -0.2972
  907loPI   GL114501   8.360  15.438   5.269  0.1850 -0.2611  0.1427
  907loPI   GL214502   8.731  15.518   5.341 -0.2389  0.2231 -0.0691
  907loPI   C1A14503   8.283  15.607   5.698  0.0917 -0.1548  0.0982
  907loPI   C2A14504   8.238  15.549   6.123 -0.1393  0.0966  0.0580
  907loPI   C3A14505   8.287  15.561   6.571  0.4024 -0.1803 -0.0012
  907loPI   C4A14506   8.224  15.486   7.073  0.2457 -0.3914 -0.2342
  907loPI   C5A14507   8.436  15.414   7.530 -0.3143 -0.0223  0.3489
  907loPI   C6A14508   8.667  15.122   7.746 -0.2055 -0.1825  0.0650
  907loPI   C1B14509   8.804  15.492   5.797 -0.3722  0.0704 -0.2239
  907loPI   C2B14510   8.876  15.430   6.181 -0.1057 -0.2314  0.1473
  907loPI   C3B14511   8.777  15.549   6.598  0.0283 -0.1675  0.2016
  907loPI   C4B14512   8.748  15.491   7.062 -0.0334 -0.1753  0.0281
  908loPI    C114513   7.797   1.424   5.061 -0.1614 -0.0228  0.0113
  908loPI    C214514   7.682   1.716   4.813  0.0539  0.0512 -0.0039
  908loPI    C314515   7.747   1.348   4.672 -0.0428  0.0388 -0.0167
  908loPI   PO414516   7.674   1.497   5.305  0.2306 -0.1983  0.1178
  908loPI   GL114517   7.606   1.315   5.667 -0.1109 -0.0125  0.0485
  908loPI   GL214518   7.448   0.941   5.657 -0.2062 -0.0298  0.0610
  908loPI   C1A14519   7.812   1.512   5.985  0.1881  0.0412  0.4237
  908loPI   C2A14520   7.902   1.761   6.405  0.3315 -0.0780 -0.2563
  908loPI   C3A14521   7.768   1.970   6.801  0.2824 -0.2799  0.1712
  908loPI   C4A14522   7.672   1.858   7.240 -0.0457 -0.1650  0.2813
  908loPI   C5A14523   7.724   1.641   7.562  0.0676  0.1310 -0.2111
  908loPI   C6A14524   7.580   1.474   7.889  0.1947 -0.2096 -0.1574
  908loPI   C1B14525   7.758   0.862   6.056 -0.2731 -0.2741  0.0052
  908loPI   C2B14526   7.617   0.831   6.500  0.1521 -0.1099 -0.3104
  908loPI   C3B14527   7.567   1.022   6.961  0.0482  0.1227  0.2120
  908loPI   C4B14528   7.834   1.062   7.437  0.1696  0.2055 -0.3125
  909loPI    C114529   5.943   9.031   4.818  0.1721  0.0577 -0.0501
  909loPI    C214530   5.948   9.422   4.903  0.0302  0.0776 -0.1298
  909loPI    C314531   6.221   9.267   4.655  0.2017  0.0911  0.0479
  909loPI   PO414532   5.607   9.047   4.941 -0.3440 -0.0829 -0.1058
  909loPI   GL114533   5.466   8.953   5.367  0.0593 -0.0005 -0.2553
  909loPI   GL214534   5.117   8.858   5.396 -0.0595 -0.0623  0.0886
  909loPI   C1A14535   5.270   8.951   5.872 -0.0244  0.3602  0.1577
  909loPI   C2A14536   5.300   8.864   6.300 -0.1322 -0.0160  0.0261
  909loPI   C3A14537   5.279   8.725   6.660  0.1139 -0.0403 -0.1398
  909loPI   C4A14538   4.859   8.569   6.955 -0.1334  0.1865  0.0578
  909loPI   C5A14539   4.708   8.449   7.386  0.1446 -0.0776  0.1663
  909loPI   C6A14540   4.858   8.401   7.841 -0.0089  0.2074  0.1548
  909loPI   C1B14541   4.850   8.666   5.693 -0.2999 -0.2321  0.2479
  909loPI   C2B14542   4.772   8.627   6.111 -0.0512  0.0569 -0.0138
  909loPI   C3B14543   4.798   8.444   6.509  0.2000  0.3281  0.2013
  909loPI   C4B14544   4.768   8.035   6.759  0.3621  0.0223  0.0668
  910loPI    C114545   5.441  16.081   4.471 -0.0648 -0.3355 -0.0991
  910loPI    C214546   5.259  16.429   4.547  0.1367 -0.2514  0.0035
  910loPI    C314547   5.205  16.249   4.195 -0.2657 -0.3052  0.0881
  910loPI   PO414548   5.497  15.996   4.725  0.1690 -0.1059 -0.4197
  910loPI   GL114549   5.673  16.028   5.147  0.1929  0.0576 -0.1626
  910loPI   GL214550   5.903  15.754   5.247  0.0049  0.3707  0.0523
  910loPI   C1A14551   5.580  16.266   5.506 -0.2280 -0.1246  0.0555
  910loPI   C2A14552   5.606  16.283   5.940 -0.1341  0.0753 -0.1776
  910loPI   C3A14553   5.636  16.244   6.427  0.2447  0.0524 -0.4282
  910loPI   C4A14554   5.573  16.336   6.903  0.0855  0.4778  0.3484
  910loPI   C5A14555   5.330  16.249   7.202  0.1448 -0.0127  0.0702
  910loPI   C6A14556   5.262  16.117   7.588 -0.2954 -0.2071  0.1432
  910loPI   C1B14557   6.107  15.741   5.671 -0.0535  0.1014 -0.0096
  910loPI   C2B14558   6.265  15.726   5.996  0.0243 -0.1725 -0.0159
  910loPI   C3B14559   6.449  15.790   6.381  0.0403  0.0903  0.3060
  910loPI   C4B14560   6.803  15.686   6.632  0.1848 -0.1417 -0.0969
  911loPI    C114561  15.552   9.635   4.835  0.0208 -0.0750 -0.0317
  911loPI    C214562  15.321   9.539   4.522  0.0050  0.2893 -0.1368
  911loPI    C314563  15.692   9.678   4.462  0.1108  0.0799  0.0189
  911loPI   PO414564  15.541   9.460   5.031 -0.1202  0.0328 -0.0890
  911loPI   GL114565  15.669   9.575   5.354 -0.1358 -0.3365  0.1803
  911loPI   GL214566  15.496   9.667   5.563 -0.0845 -0.2469  0.0065
  911loPI   C1A14567  15.816   9.219   5.728  0.0028  0.0523 -0.0641
  911loPI   C2A14568  15.680   9.147   6.202 -0.0613 -0.0424  0.0789
  911loPI   C3A14569  15.491   9.159   6.585  0.0985 -0.0422 -0.2217
  911loPI   C4A14570  15.471   9.270   7.048 -0.0519  0.0677  0.1393
  911loPI   C5A14571  15.524   9.315   7.472 -0.2241  0.2966 -0.0731
  911loPI   C6A14572  15.760   9.063   7.891 -0.0018  0.1160 -0.4278
  911loPI   C1B14573  15.640   9.708   5.896 -0.0781 -0.2984  0.0280
  911loPI   C2B14574  15.459   9.716   6.335  0.0064  0.3650 -0.1456
  911loPI   C3B14575  15.424   9.806   6.804 -0.0479  0.4155 -0.0329
  911loPI   C4B14576  15.346   9.775   7.281 -0.1579  0.0074  0.2873
  912loPI    C114577  16.110  14.604   5.589  0.1010 -0.2341  0.0544
  912loPI    C214578  15.852  14.602   5.283 -0.0470  0.1740  0.1691
  912loPI    C314579  15.757  14.790   5.623  0.3369  0.1883  0.2731
  912loPI   PO414580  16.186  14.307   5.568  0.1173 -0.1885  0.1616
  912loPI   GL114581  16.350  14.089   5.867 -0.0399 -0.4406 -0.0160
  912loPI   GL214582  16.118  13.878   6.152 -0.1283  0.1595  0.1638
  912loPI   C1A14583  16.125  14.375   6.226  0.1044 -0.1964  0.1033
  912loPI   C2A14584  16.037  14.458   6.698  0.2102  0.0615 -0.1874
  912loPI   C3A14585  15.755  14.615   6.963 -0.1131  0.2541  0.2105
  912loPI   C4A14586  15.734  14.950   7.322  0.0936 -0.0047 -0.2087
  912loPI   C5A14587  15.439  15.028   7.586  0.1240  0.0797 -0.0020
  912loPI   C6A14588  15.253  15.319   7.841  0.0594 -0.3230  0.4527
  912loPI   C1B14589  16.156  13.996   6.553 -0.1768  0.1521  0.0684
  912loPI   C2B14590  16.110  13.784   6.811 -0.2116  0.1149 -0.2117
  912loPI   C3B14591  15.942  13.685   7.166 -0.1602  0.0165  0.1382
  912loPI   C4B14592  15.730  13.607   7.572 -0.0286  0.2037 -0.0080
  913loPI    C114593  11.413   6.087   4.816  0.1945 -0.0146 -0.0777
  913loPI    C214594  11.256   6.038   4.452  0.0944 -0.1270 -0.0203
  913loPI    C314595  11.567   6.284   4.504  0.0531 -0.0425 -0.1661
  913loPI   PO414596  11.309   5.855   4.976  0.1820 -0.1068 -0.2699
  913loPI   GL114597  11.083   5.737   5.396  0.1498  0.3302 -0.2455
  913loPI   GL214598  11.169   6.014   5.471 -0.2513  0.1395  0.2248
  913loPI   C1A14599  11.315   5.245   5.503 -0.3373 -0.1187  0.0266
  913loPI   C2A14600  11.398   5.015   5.832 -0.3663 -0.0628 -0.2576
  913loPI   C3A14601  11.312   5.107   6.238 -0.2258 -0.1768 -0.1844
  913loPI   C4A14602  11.212   5.093   6.759 -0.1121 -0.0263 -0.1100
  913loPI   C5A14603  11.207   4.980   7.221  0.3001 -0.3555  0.2057
  913loPI   C6A14604  11.272   4.975   7.653  0.1499  0.2958  0.4065
  913loPI   C1B14605  10.997   5.887   5.844 -0.3082  0.1074 -0.1866
  913loPI   C2B14606  10.915   5.811   6.350  0.0053  0.1644 -0.0481
  913loPI   C3B14607  10.748   5.824   6.824  0.1961  0.1892  0.1308
  913loPI   C4B14608  10.621   5.775   7.252 -0.0438  0.1051  0.3146
  914loPI    C114609  18.681   8.024   4.952 -0.1572  0.0563  0.1587
  914loPI    C214610  18.542   8.356   4.778  0.0250  0.1614  0.2110
  914loPI    C314611  18.614   8.030   4.558 -0.0989  0.1744  0.1502
  914loPI   PO414612  18.603   8.065   5.185 -0.3168  0.1531 -0.1871
  914loPI   GL114613  18.374   8.010   5.612  0.0563 -0.0833  0.1375
  914loPI   GL214614  18.720   8.170   5.725  0.0321 -0.2038 -0.0410
  914loPI   C1A14615  18.475   7.982   6.131  0.1632 -0.0903 -0.0944
  914loPI   C2A14616  18.623   8.200   6.463  0.2985 -0.0166  0.1511
  914loPI   C3A14617  18.485   8.318   6.887 -0.1309 -0.1107 -0.1370
  914loPI   C4A14618  18.447   8.236   7.284 -0.1830  0.2656  0.2878
  914loPI   C5A14619  18.404   8.272   7.815 -0.0264 -0.0780 -0.0109
  914loPI   C6A14620  18.780   8.191   8.077  0.1510  0.0461 -0.0394
  914loPI   C1B14621  18.895   8.439   6.094 -0.0087 -0.2143 -0.0736
  914loPI   C2B14622  19.049   8.669   6.510  0.0197 -0.2966  0.3217
  914loPI   C3B14623  18.979   8.580   6.863 -0.0549 -0.3095  0.2282
  914loPI   C4B14624  18.835   8.602   7.246 -0.1508  0.1623 -0.1091
  915loPI    C114625  18.870  15.631   5.136  0.1575 -0.1473 -0.0702
  915loPI    C214626  18.536  15.764   5.311  0.2336 -0.0387 -0.0061
  915loPI    C314627  18.564  15.756   4.912  0.1198 -0.1366 -0.0128
  915loPI   PO414628  19.029  15.652   5.315 -0.1824 -0.2268 -0.0362
  915loPI   GL114629  19.252  15.647   5.633  0.0251 -0.0345  0.1413
  915loPI   GL214630  19.382  15.949   5.699 -0.2508 -0.2139 -0.0228
  915loPI   C1A14631  19.488  15.488   6.030 -0.0378 -0.2262 -0.1897
  915loPI   C2A14632  19.688  15.178   6.355 -0.5106  0.1950 -0.1808
  915loPI   C3A14633  19.511  15.014   6.795  0.3335  0.0871 -0.0241
  915loPI   C4A14634  19.556  15.131   7.173 -0.0188  0.0464  0.0072
  915loPI   C5A14635  19.459  14.804   7.557  0.3254 -0.2284  0.0107
  915loPI   C6A14636  19.834  14.705   7.876 -0.1628 -0.0533 -0.2941
  915loPI   C1B14637  19.152  16.210   5.942 -0.3770  0.3923 -0.0750
  915loPI   C2B14638  19.232  16.491   6.191  0.1925 -0.1612 -0.0743
  915loPI   C3B14639  19.330  16.502   6.535  0.0165  0.1448 -0.1554
  915loPI   C4B14640  19.435  16.095   6.780 -0.0607  0.2486 -0.1361
  916loPI    C114641  13.195   9.625   5.479 -0.2003  0.0057  0.2149
  916loPI    C214642  12.962   9.801   5.206 -0.2812 -0.1585  0.1769
  916loPI    C314643  13.278   9.584   5.090  0.0079  0.2223  0.2345
  916loPI   PO414644  13.096   9.665   5.648  0.2714  0.1249  0.0610
  916loPI   GL114645  13.149   9.627   6.134  0.0366  0.0909  0.3255
  916loPI   GL214646  13.454   9.841   6.213  0.1907  0.2293 -0.1157
  916loPI   C1A14647  13.201   9.558   6.558  0.1480  0.1275  0.0256
  916loPI   C2A14648  13.225   9.691   6.956  0.5056 -0.5281 -0.1339
  916loPI   C3A14649  13.108   9.851   7.390  0.0043  0.0776  0.2253
  916loPI   C4A14650  13.165   9.962   7.741  0.3161  0.1535 -0.3839
  916loPI   C5A14651  13.546  10.172   7.920 -0.0709  0.2734 -0.0227
  916loPI   C6A14652  13.654  10.606   8.067  0.3067  0.2561 -0.2628
  916loPI   C1B14653  13.629   9.899   6.585  0.1769  0.1724 -0.0571
  916loPI   C2B14654  13.623  10.003   7.048 -0.1822  0.1910 -0.0088
  916loPI   C3B14655  13.600  10.080   7.380  0.1929 -0.0291 -0.0318
  916loPI   C4B14656  13.680  10.419   7.514 -0.4027 -0.0041  0.3006
  917loPI    C114657   6.323  16.930   4.409 -0.0757 -0.0527 -0.0674
  917loPI    C214658   5.958  16.996   4.258 -0.1935 -0.1705  0.1608
  917loPI    C314659   6.281  17.030   4.024 -0.3272  0.2076  0.0244
  917loPI   PO414660   6.362  17.058   4.642 -0.0644 -0.0646  0.5557
  917loPI   GL114661   6.307  17.184   5.045  0.3653 -0.0091  0.0533
  917loPI   GL214662   6.581  17.328   5.118 -0.0775  0.2484 -0.0024
  917loPI   C1A14663   6.120  17.201   5.422 -0.0150 -0.3755  0.1347
  917loPI   C2A14664   6.169  17.125   5.750  0.2049 -0.0191  0.1596
  917loPI   C3A14665   6.163  17.114   6.086  0.3349 -0.0941  0.1274
  917loPI   C4A14666   6.136  17.100   6.451 -0.1919 -0.2768  0.1099
  917loPI   C5A14667   6.134  17.124   6.887 -0.1408 -0.0700 -0.1214
  917loPI   C6A14668   6.375  17.110   7.363 -0.0020 -0.1102  0.4480
  917loPI   C1B14669   6.967  17.435   5.409 -0.0725 -0.1803  0.3699
  917loPI   C2B14670   6.970  17.478   5.864 -0.1202  0.0095 -0.2904
  917loPI   C3B14671   6.955  17.476   6.432 -0.0699  0.1148 -0.2597
  917loPI   C4B14672   6.970  17.480   6.787 -0.0809 -0.2338 -0.3562
  918loPI    C114673   3.701  17.398   4.469  0.0994  0.0745  0.2387
  918loPI    C214674   3.328  17.255   4.448  0.1232  0.0256  0.1409
  918loPI    C314675   3.585  17.188   4.148  0.1300  0.2883  0.0854
  918loPI   PO414676   3.722  17.439   4.670 -0.1049 -0.0110  0.2605
  918loPI   GL114677   3.675  17.531   5.096 -0.1923 -0.0060  0.0369
  918loPI   GL214678   3.790  17.802   5.231 -0.1568 -0.0223 -0.0122
  918loPI   C1A14679   3.475  17.495   5.413 -0.1885  0.2209  0.0057
  918loPI   C2A14680   3.552  17.476   5.801  0.0146  0.0514  0.1096
  918loPI   C3A14681   3.504  17.502   6.282  0.2398 -0.1571 -0.3346
  918loPI   C4A14682   3.527  17.457   6.772 -0.1906 -0.1452 -0.3413
  918loPI   C5A14683   3.654  17.531   7.191  0.2636 -0.2012 -0.0296
  918loPI   C6A14684   3.962  17.648   7.385  0.4667 -0.1556  0.0238
  918loPI   C1B14685   3.960  17.982   5.655 -0.0829  0.1090 -0.1017
  918loPI   C2B14686   3.813  17.939   6.005  0.0549  0.1399 -0.1308
  918loPI   C3B14687   3.906  17.846   6.414 -0.3836 -0.2285 -0.0400
  918loPI   C4B14688   3.942  17.749   6.832 -0.0993 -0.0714 -0.0091
  919loPI    C114689   4.513  16.558   4.716 -0.0321  0.0310 -0.0613
  919loPI    C214690   4.418  16.224   4.516  0.0321 -0.1552  0.2142
  919loPI    C314691   4.775  16.397   4.459 -0.0764 -0.0203 -0.0743
  919loPI   PO414692   4.484  16.482   5.015  0.2726  0.0196  0.2727
  919loPI   GL114693   4.621  16.145   5.361  0.0000  0.2202  0.1547
  919loPI   GL214694   4.561  15.861   5.469  0.1000 -0.2083 -0.2431
  919loPI   C1A14695   4.673  16.445   5.612 -0.5629 -0.3557 -0.2590
  919loPI   C2A14696   4.588  16.848   5.797 -0.1934 -0.5449 -0.1363
  919loPI   C3A14697   4.533  17.151   6.113 -0.0615  0.1781 -0.1468
  919loPI   C4A14698   4.587  17.215   6.534 -0.0545  0.0862  0.2626
  919loPI   C5A14699   4.630  17.293   6.970  0.0387 -0.0611 -0.1433
  919loPI   C6A14700   4.912  17.600   7.030  0.2044 -0.1230 -0.0270
  919loPI   C1B14701   4.737  16.010   5.851  0.0661  0.0855 -0.2765
  919loPI   C2B14702   4.947  15.765   6.251 -0.1252  0.1263 -0.1883
  919loPI   C3B14703   5.025  15.706   6.688  0.0236 -0.0470  0.0465
  919loPI   C4B14704   4.954  15.585   7.075  0.1224  0.0970 -0.1602
  920loPI    C114705   0.744   9.199   4.850  0.1543  0.1732  0.3000
  920loPI    C214706   0.694   9.517   4.613 -0.2135 -0.0047  0.1304
  920loPI    C314707   0.985   9.516   4.887  0.0969  0.2819 -0.1871
  920loPI   PO414708   0.518   9.170   4.932 -0.1980 -0.2886 -0.1720
  920loPI   GL114709   0.324   9.306   5.421 -0.0711 -0.0108 -0.3327
  920loPI   GL214710   0.643   9.514   5.357 -0.2437  0.0558  0.1433
  920loPI   C1A14711   0.298   9.481   5.946  0.1024 -0.0434 -0.1022
  920loPI   C2A14712   0.041   9.545   6.307  0.0021 -0.0331 -0.0309
  920loPI   C3A14713  -0.055   9.669   6.785 -0.1189 -0.0990 -0.2226
  920loPI   C4A14714  -0.057   9.620   7.234 -0.0389 -0.0088  0.3403
  920loPI   C5A14715  -0.272   9.621   7.669  0.0124  0.0187  0.0190
  920loPI   C6A14716  -0.473  10.014   7.774 -0.4088 -0.0683  0.1925
  920loPI   C1B14717   0.679   9.248   5.787 -0.1892  0.1521  0.0135
  920loPI   C2B14718   0.807   9.362   6.152  0.2537 -0.1220  0.1384
  920loPI   C3B14719   0.535   9.445   6.438 -0.1176  0.1066 -0.1652
  920loPI   C4B14720   0.451   9.522   6.873  0.4552  0.0035 -0.0092
  921loPI    C114721   6.296   3.024   4.463 -0.3141 -0.0780  0.0589
  921loPI    C214722   6.564   2.934   4.179 -0.1637  0.1129  0.1380
  921loPI    C314723   6.173   2.935   4.093 -0.1319 -0.0401 -0.0121
  921loPI   PO414724   6.431   3.021   4.690  0.1691  0.3487  0.2379
  921loPI   GL114725   6.452   3.046   5.103  0.1072 -0.2392 -0.0372
  921loPI   GL214726   6.315   3.237   5.161 -0.0788 -0.1870 -0.0921
  921loPI   C1A14727   6.591   3.010   5.476  0.1911 -0.1950  0.3325
  921loPI   C2A14728   6.697   3.006   5.902 -0.4523  0.1768 -0.0355
  921loPI   C3A14729   6.763   3.095   6.355 -0.1329  0.2235 -0.0604
  921loPI   C4A14730   6.740   3.063   6.750 -0.2842 -0.3191  0.2583
  921loPI   C5A14731   6.776   3.090   7.163 -0.3204  0.2874 -0.0972
  921loPI   C6A14732   6.726   2.916   7.614  0.0726 -0.2718  0.1132
  921loPI   C1B14733   6.245   3.365   5.622  0.1651  0.2979 -0.0913
  921loPI   C2B14734   6.329   3.399   6.027  0.0626 -0.0070  0.1020
  921loPI   C3B14735   6.363   3.317   6.462 -0.3513 -0.1281 -0.0512
  921loPI   C4B14736   6.423   3.380   6.888 -0.1335  0.4160 -0.1470
  922loPI    C114737   6.951  11.140   4.759 -0.0936  0.0109 -0.0795
  922loPI    C214738   6.905  10.754   4.853 -0.0840  0.0650  0.1547
  922loPI    C314739   7.234  10.875   4.661 -0.1906 -0.0772 -0.1236
  922loPI   PO414740   6.879  11.255   5.021 -0.2713  0.0038 -0.0135
  922loPI   GL114741   6.826  11.189   5.420 -0.0811 -0.0402 -0.1337
  922loPI   GL214742   6.593  11.283   5.509 -0.0766 -0.1291  0.0052
  922loPI   C1A14743   7.078  11.254   5.738 -0.0548  0.1125 -0.0451
  922loPI   C2A14744   6.975  11.352   6.152  0.2597 -0.0320  0.0239
  922loPI   C3A14745   7.110  11.499   6.680  0.0275 -0.0412 -0.0672
  922loPI   C4A14746   7.174  11.652   7.011  0.1074 -0.1947 -0.0614
  922loPI   C5A14747   7.361  11.506   7.350 -0.2753 -0.0435 -0.0820
  922loPI   C6A14748   7.626  11.715   7.644  0.6100  0.0580 -0.1529
  922loPI   C1B14749   6.495  11.473   5.888  0.2984  0.0599  0.1125
  922loPI   C2B14750   6.615  11.558   6.303 -0.0747  0.1292 -0.4486
  922loPI   C3B14751   6.649  11.608   6.762 -0.0135 -0.1612  0.0358
  922loPI   C4B14752   6.686  11.918   7.103 -0.0736  0.1927 -0.1423
  923loPI    C114753   7.984   3.793   4.717  0.0574  0.2160  0.1416
  923loPI    C214754   7.918   4.068   4.434  0.0300 -0.0063 -0.0712
  923loPI    C314755   7.998   3.690   4.331  0.1233 -0.0680  0.2176
  923loPI   PO414756   7.833   3.963   4.918  0.1928 -0.2538 -0.5393
  923loPI   GL114757   7.554   3.954   5.313 -0.0231 -0.1217 -0.0940
  923loPI   GL214758   7.851   3.786   5.451 -0.0029  0.0122 -0.1488
  923loPI   C1A14759   7.559   4.038   5.762  0.1387 -0.2678 -0.0884
  923loPI   C2A14760   7.625   4.092   6.201 -0.0264 -0.0631 -0.1658
  923loPI   C3A14761   7.661   4.078   6.658 -0.0386 -0.1790 -0.1437
  923loPI   C4A14762   7.682   4.007   7.068 -0.2160 -0.0379 -0.0996
  923loPI   C5A14763   7.749   3.968   7.579  0.2033 -0.0483  0.0776
  923loPI   C6A14764   7.934   3.861   7.984  0.0816 -0.0398  0.0186
  923loPI   C1B14765   8.099   3.822   5.808 -0.3032 -0.0139  0.1065
  923loPI   C2B14766   8.127   3.790   6.184  0.3501  0.0170 -0.1380
  923loPI   C3B14767   8.119   3.791   6.574  0.2072 -0.0794  0.4006
  923loPI   C4B14768   8.105   3.746   6.955  0.0334 -0.0507 -0.3123
  924loPI    C114769   8.870   0.964   4.917 -0.1902  0.0029 -0.0853
  924loPI    C214770   8.907   0.605   4.745 -0.1659  0.0699 -0.2209
  924loPI    C314771   8.902   0.936   4.519 -0.2303  0.1522 -0.0999
  924loPI   PO414772   9.054   0.929   5.132 -0.2457 -0.3263 -0.0855
  924loPI   GL114773   9.263   0.781   5.581  0.0551  0.1971  0.0891
  924loPI   GL214774   8.949   0.895   5.593  0.2566 -0.1320 -0.2134
  924loPI   C1A14775   9.465   0.880   5.918  0.0641 -0.0315  0.0325
  924loPI   C2A14776   9.617   0.880   6.322  0.0224  0.1070 -0.2055
  924loPI   C3A14777   9.488   0.960   6.761 -0.0505  0.3175 -0.0298
  924loPI   C4A14778   9.488   0.879   7.194 -0.1490  0.3063  0.0809
  924loPI   C5A14779   9.464   1.269   7.436  0.1110 -0.1139 -0.0871
  924loPI   C6A14780   9.343   1.538   7.759 -0.1473  0.0340 -0.0401
  924loPI   C1B14781   8.896   0.793   6.119  0.0672  0.1476  0.1504
  924loPI   C2B14782   9.053   0.794   6.550 -0.0993  0.2239  0.1822
  924loPI   C3B14783   9.048   1.117   6.886 -0.0251 -0.0525  0.0122
  924loPI   C4B14784   9.437   1.427   6.965 -0.2701  0.3357  0.0451
  925loPI    C114785  18.769   9.199   5.021 -0.1521 -0.2499  0.1494
  925loPI    C214786  18.572   9.130   4.680 -0.1163 -0.0963  0.0967
  925loPI    C314787  18.861   8.880   4.798  0.1107  0.0374 -0.1651
  925loPI   PO414788  18.646   9.355   5.150 -0.0809  0.3556 -0.0771
  925loPI   GL114789  18.567   9.482   5.527 -0.1772 -0.3344  0.1838
  925loPI   GL214790  18.606   9.051   5.504  0.5362  0.1535 -0.2609
  925loPI   C1A14791  18.496   9.268   5.964 -0.0197  0.0297  0.0794
  925loPI   C2A14792  18.339   9.244   6.394 -0.0002 -0.0766 -0.2439
  925loPI   C3A14793  18.381   9.305   6.765  0.0700 -0.2132  0.1900
  925loPI   C4A14794  18.246   9.241   7.235 -0.1813 -0.0689 -0.1037
  925loPI   C5A14795  18.085   9.263   7.669 -0.0395  0.0102 -0.0776
  925loPI   C6A14796  18.124   9.532   8.046 -0.1142 -0.0906  0.0608
  925loPI   C1B14797  18.904   9.020   5.819  0.1104  0.2433  0.0934
  925loPI   C2B14798  19.020   9.043   6.216 -0.0921 -0.1740 -0.0863
  925loPI   C3B14799  18.835   9.166   6.727 -0.4340  0.1762  0.4676
  925loPI   C4B14800  18.805   9.143   7.102  0.1264  0.1725  0.3526
  926loPI    C114801  14.096   4.495   5.131 -0.3920  0.0772  0.0615
  926loPI    C214802  13.959   4.227   4.867 -0.3041  0.1164 -0.0247
  926loPI    C314803  13.819   4.229   5.242  0.0768 -0.3984  0.1323
  926loPI   PO414804  14.334   4.457   5.128  0.0618  0.0987  0.1103
  926loPI   GL114805  14.501   4.307   5.392  0.0209  0.0957  0.4280
  926loPI   GL214806  14.202   4.157   5.503  0.0339 -0.0464 -0.1869
  926loPI   C1A14807  14.413   4.403   5.871 -0.0200 -0.1940 -0.2277
  926loPI   C2A14808  14.489   4.369   6.246 -0.1715 -0.5356  0.0343
  926loPI   C3A14809  14.369   4.280   6.591  0.1525  0.1285  0.0877
  926loPI   C4A14810  14.446   4.308   7.022 -0.1372 -0.0116 -0.2692
  926loPI   C5A14811  14.431   4.310   7.357 -0.0386  0.0079 -0.0360
  926loPI   C6A14812  14.377   4.393   7.835 -0.1207  0.0799 -0.0749
  926loPI   C1B14813  13.940   4.227   5.841 -0.1218  0.1976  0.2169
  926loPI   C2B14814  13.996   4.174   6.263  0.0213  0.2243  0.2306
  926loPI   C3B14815  13.910   4.101   6.693 -0.0955  0.0802  0.1921
  926loPI   C4B14816  13.956   4.181   7.021 -0.0685 -0.1333  0.0470
  927loPI    C114817  17.204   4.376   5.285  0.1442 -0.1946 -0.0268
  927loPI    C214818  17.048   4.622   5.010 -0.0270  0.0243  0.2609
  927loPI    C314819  17.198   4.268   4.900 -0.3066  0.0078 -0.0826
  927loPI   PO414820  17.084   4.347   5.476 -0.0704 -0.0567 -0.0075
  927loPI   GL114821  17.303   4.292   5.950  0.3761  0.1434 -0.0695
  927loPI   GL214822  17.072   4.109   5.949 -0.0268  0.1237  0.1671
  927loPI   C1A14823  17.351   4.591   6.206 -0.1005 -0.0136 -0.1195
  927loPI   C2A14824  17.446   4.556   6.633 -0.0799 -0.0021  0.2013
  927loPI   C3A14825  17.453   5.004   6.772  0.2587 -0.1496  0.0793
  927loPI   C4A14826  17.776   5.160   6.997  0.1725  0.0045 -0.0515
  927loPI   C5A14827  18.160   4.932   7.347  0.2825 -0.3960  0.1527
  927loPI   C6A14828  18.515   4.662   7.479 -0.2413 -0.2219  0.0234
  927loPI   C1B14829  16.971   4.286   6.357 -0.1201 -0.3164  0.2314
  927loPI   C2B14830  17.065   4.220   6.799 -0.1349 -0.2270 -0.1207
  927loPI   C3B14831  17.164   4.150   7.271  0.1600  0.3008 -0.1067
  927loPI   C4B14832  17.176   4.079   7.708 -0.3052  0.3932  0.2405
  928loPI    C114833   1.386   0.649   4.567 -0.2159  0.1727 -0.1737
  928loPI    C214834   1.469   0.440   4.237 -0.1770  0.1836 -0.1708
  928loPI    C314835   1.646   0.793   4.300  0.0192  0.0589 -0.0100
  928loPI   PO414836   1.303   0.373   4.720 -0.0220  0.1734 -0.3285
  928loPI   GL114837   1.130   0.048   5.068 -0.2227  0.0295 -0.0154
  928loPI   GL214838   1.228   0.354   5.259  0.1462 -0.1099 -0.3039
  928loPI   C1A14839   1.376  -0.164   5.497 -0.4973  0.2103  0.0333
  928loPI   C2A14840   1.431  -0.204   5.899 -0.0495 -0.0756  0.0489
  928loPI   C3A14841   1.508  -0.201   6.370 -0.0276 -0.0420  0.0585
  928loPI   C4A14842   1.553  -0.138   6.772 -0.3156 -0.0599 -0.4238
  928loPI   C5A14843   1.642  -0.312   7.179  0.1177 -0.1624 -0.0228
  928loPI   C6A14844   1.425  -0.382   7.583 -0.0742 -0.1440  0.2503
  928loPI   C1B14845   1.130   0.691   5.547 -0.0399 -0.4857 -0.1920
  928loPI   C2B14846   1.169   0.710   5.910 -0.0963  0.0451  0.0279
  928loPI   C3B14847   1.173   0.757   6.318 -0.0621 -0.0657  0.0127
  928loPI   C4B14848   1.309   0.777   6.771 -0.1347  0.0233  0.1005
  929loPI    C114849  10.987  14.592   4.682 -0.0509  0.0545  0.0725
  929loPI    C214850  11.249  14.797   4.460 -0.0266  0.0984  0.1413
  929loPI    C314851  10.867  14.912   4.475 -0.0912 -0.0758 -0.1076
  929loPI   PO414852  11.218  14.500   4.923 -0.3766 -0.2789 -0.0730
  929loPI   GL114853  11.171  14.441   5.334  0.1383  0.1195  0.2130
  929loPI   GL214854  11.357  14.417   5.629 -0.3980  0.2145 -0.1695
  929loPI   C1A14855  10.760  14.377   5.590 -0.0353  0.0184  0.1233
  929loPI   C2A14856  10.765  14.370   5.987 -0.2409 -0.2080 -0.0308
  929loPI   C3A14857  10.853  14.441   6.347 -0.0685  0.2086  0.1015
  929loPI   C4A14858  11.066  14.490   6.754  0.0333 -0.1427 -0.1370
  929loPI   C5A14859  11.141  14.531   7.215 -0.1562  0.1211  0.0002
  929loPI   C6A14860  11.151  14.304   7.599  0.0635  0.1358  0.0858
  929loPI   C1B14861  11.284  14.325   6.033  0.1376 -0.1565  0.0482
  929loPI   C2B14862  11.445  14.460   6.482 -0.0074  0.0874  0.2706
  929loPI   C3B14863  11.614  14.511   6.888 -0.1129 -0.0085 -0.0275
  929loPI   C4B14864  11.776  14.665   7.304 -0.0165 -0.2123 -0.1472
  930loPI    C114865  18.011  11.667   5.057 -0.2384  0.1817  0.1177
  930loPI    C214866  17.840  12.027   5.092  0.1993  0.4369 -0.2583
  930loPI    C314867  17.770  11.803   4.768 -0.0694  0.1764 -0.0271
  930loPI   PO414868  17.942  11.607   5.337  0.0797  0.2187 -0.0444
  930loPI   GL114869  18.018  11.325   5.744  0.1006 -0.0329 -0.2578
  930loPI   GL214870  18.168  11.070   5.642 -0.0503 -0.2149 -0.0903
  930loPI   C1A14871  17.962  11.376   6.159  0.0948  0.5174  0.0982
  930loPI   C2A14872  17.916  11.357   6.564 -0.0320  0.2792 -0.2139
  930loPI   C3A14873  17.989  11.414   6.984 -0.0074 -0.0739 -0.0369
  930loPI   C4A14874  17.833  11.384   7.456 -0.0964  0.2374  0.0250
  930loPI   C5A14875  17.663  11.227   7.807 -0.1140  0.3064 -0.2785
  930loPI   C6A14876  17.691  11.283   8.213 -0.0682 -0.0910  0.5444
  930loPI   C1B14877  18.080  10.835   5.926  0.3366 -0.1989  0.0534
  930loPI   C2B14878  18.082  10.860   6.375 -0.3110  0.0041  0.0826
  930loPI   C3B14879  17.950  10.874   6.812  0.1616  0.2146  0.3596
  930loPI   C4B14880  17.914  10.955   7.204 -0.1047 -0.0796  0.3243
  931loPI    C114881  17.719  13.515   5.284  0.1593 -0.2074  0.0316
  931loPI    C214882  17.560  13.328   4.968  0.1372  0.0464 -0.1100
  931loPI    C314883  17.956  13.322   5.026  0.1112 -0.2976  0.0546
  931loPI   PO414884  17.537  13.498   5.423 -0.0185  0.1370  0.2605
  931loPI   GL114885  17.410  13.503   5.812 -0.0610  0.0040  0.2699
  931loPI   GL214886  17.329  13.797   5.884 -0.2608 -0.0275 -0.0105
  931loPI   C1A14887  17.599  13.384   6.277  0.2051  0.0486  0.1687
  931loPI   C2A14888  17.589  13.256   6.631 -0.0209 -0.2038  0.0299
  931loPI   C3A14889  17.645  13.521   7.072 -0.3180  0.0903 -0.0879
  931loPI   C4A14890  17.643  13.626   7.477  0.2671  0.1400 -0.4957
  931loPI   C5A14891  17.501  13.743   7.835  0.0782 -0.1703 -0.0777
  931loPI   C6A14892  17.608  13.893   8.138  0.0958 -0.3674  0.0727
  931loPI   C1B14893  17.155  14.020   6.287 -0.0074 -0.0299  0.3784
  931loPI   C2B14894  16.919  14.021   6.729 -0.0833  0.0059 -0.0009
  931loPI   C3B14895  16.796  14.143   7.138  0.0404 -0.3201 -0.2655
  931loPI   C4B14896  16.738  14.128   7.666 -0.0777  0.1719 -0.2655
  932loPI    C114897  15.608  13.648   5.345 -0.1388  0.0742 -0.1660
  932loPI    C214898  15.963  13.474   5.283 -0.0599  0.1057  0.1756
  932loPI    C314899  15.919  13.866   5.220 -0.0065  0.1209  0.2316
  932loPI   PO414900  15.530  13.542   5.545 -0.1483 -0.0686 -0.2949
  932loPI   GL114901  15.611  13.775   6.013  0.1827 -0.1290 -0.2581
  932loPI   GL214902  15.503  13.453   6.012  0.1480  0.2797 -0.2076
  932loPI   C1A14903  15.729  13.672   6.411  0.0636 -0.2370  0.2080
  932loPI   C2A14904  15.572  13.522   6.790  0.0167 -0.1542 -0.1776
  932loPI   C3A14905  15.375  13.709   7.148  0.0567 -0.4200 -0.0247
  932loPI   C4A14906  15.163  13.966   7.457  0.0618  0.2386 -0.1796
  932loPI   C5A14907  15.083  13.977   7.901 -0.0312  0.1148 -0.0296
  932loPI   C6A14908  15.282  14.012   8.359  0.0901 -0.1481 -0.0692
  932loPI   C1B14909  15.314  13.275   6.357 -0.1645 -0.0149 -0.2136
  932loPI   C2B14910  15.208  13.153   6.824 -0.3083  0.2599  0.1635
  932loPI   C3B14911  15.278  13.136   7.212  0.3038 -0.0001  0.0922
  932loPI   C4B14912  15.300  13.003   7.603 -0.1206  0.0165 -0.1879
  933loPI    C114913   8.874  15.762   4.721  0.2208  0.1315 -0.0664
  933loPI    C214914   8.623  15.580   4.468  0.0156  0.3706 -0.0385
  933loPI    C314915   8.864  15.872   4.336  0.2621  0.1608 -0.0591
  933loPI   PO414916   8.749  15.793   4.928  0.2064 -0.2528  0.0031
  933loPI   GL114917   8.968  15.930   5.305  0.1370  0.1079  0.3742
  933loPI   GL214918   9.268  16.050   5.326 -0.0333  0.0865  0.1712
  933loPI   C1A14919   8.640  15.984   5.592  0.1011 -0.1046  0.2360
  933loPI   C2A14920   8.639  15.909   6.035 -0.4023  0.0055  0.4883
  933loPI   C3A14921   8.625  16.032   6.374  0.4560 -0.5382  0.1670
  933loPI   C4A14922   8.536  15.972   6.766 -0.1348  0.0436 -0.1168
  933loPI   C5A14923   8.446  15.942   7.211 -0.1438  0.0740  0.2193
  933loPI   C6A14924   8.280  16.270   7.435  0.0321  0.1081 -0.0724
  933loPI   C1B14925   9.175  15.846   5.735  0.3153  0.0682  0.1160
  933loPI   C2B14926   9.161  15.856   6.150  0.0400 -0.1126 -0.0832
  933loPI   C3B14927   9.145  15.940   6.606  0.0413  0.0406  0.0997
  933loPI   C4B14928   8.979  15.931   7.018  0.0671 -0.1105 -0.0165
  934loPI    C114929   6.221  11.034   5.230  0.1643 -0.0505  0.0726
  934loPI    C214930   6.415  11.076   4.883 -0.0626 -0.0129 -0.0519
  934loPI    C314931   6.562  10.835   5.166  0.1535  0.0001 -0.1507
  934loPI   PO414932   6.144  11.260   5.300  0.1953  0.0215  0.1494
  934loPI   GL114933   5.982  11.231   5.664  0.1554 -0.0847  0.1763
  934loPI   GL214934   6.185  11.031   5.780 -0.0436  0.0093  0.1136
  934loPI   C1A14935   5.978  11.691   5.840 -0.1141  0.3002 -0.0030
  934loPI   C2A14936   6.120  11.720   6.274 -0.1020 -0.1258 -0.1402
  934loPI   C3A14937   6.016  11.881   6.704  0.0695  0.5102  0.1912
  934loPI   C4A14938   5.950  11.696   6.972 -0.2665 -0.1673 -0.0960
  934loPI   C5A14939   5.951  11.510   7.327 -0.0275  0.0357  0.0241
  934loPI   C6A14940   5.900  11.463   7.697  0.0144 -0.3376  0.1689
  934loPI   C1B14941   6.208  11.159   6.202 -0.2329  0.0471  0.3064
  934loPI   C2B14942   6.267  11.312   6.667  0.2241  0.1536  0.2313
  934loPI   C3B14943   6.366  11.400   7.125 -0.0422  0.0124  0.0922
  934loPI   C4B14944   6.231  11.970   7.261 -0.0404 -0.1607  0.2648
  935loPI    C114945   5.326  17.042   4.606  0.0914 -0.1685 -0.0754
  935loPI    C214946   5.300  16.875   4.244 -0.0044  0.2394 -0.2635
  935loPI    C314947   4.970  16.930   4.463  0.0438  0.0643 -0.1439
  935loPI   PO414948   5.513  16.928   4.722  0.3364 -0.1728 -0.0409
  935loPI   GL114949   5.887  16.896   5.020 -0.2929 -0.1788  0.1032
  935loPI   GL214950   5.991  16.742   4.777 -0.2484  0.1529  0.3386
  935loPI   C1A14951   5.762  16.816   5.502 -0.0923  0.1851  0.0834
  935loPI   C2A14952   5.919  16.676   5.832  0.1115  0.0484 -0.0386
  935loPI   C3A14953   5.865  16.656   6.290 -0.1980  0.2812 -0.0094
  935loPI   C4A14954   5.893  16.707   6.626 -0.0501  0.2205  0.1472
  935loPI   C5A14955   6.075  16.530   6.862 -0.1866  0.0826 -0.2882
  935loPI   C6A14956   6.385  16.604   7.196  0.4983 -0.1182 -0.2368
  935loPI   C1B14957   6.027  16.355   5.009 -0.1614 -0.2121 -0.3125
  935loPI   C2B14958   6.118  16.167   5.426  0.0895 -0.0955  0.0537
  935loPI   C3B14959   6.071  16.221   5.791  0.1175  0.1116 -0.0659
  935loPI   C4B14960   6.187  16.236   6.270  0.0814  0.5039 -0.0230
  936loPI    C114961   2.515   7.609   4.921  0.1212  0.0208 -0.1839
  936loPI    C214962   2.287   7.576   4.595  0.1649  0.1370 -0.2270
  936loPI    C314963   2.383   7.938   4.735 -0.2808  0.0948  0.2142
  936loPI   PO414964   2.306   7.583   5.161 -0.0781 -0.0149 -0.2558
  936loPI   GL114965   2.374   7.561   5.542  0.0863  0.3259  0.0001
  936loPI   GL214966   2.226   7.220   5.584  0.3149 -0.1390  0.0330
  936loPI   C1A14967   2.732   7.526   5.791  0.0989  0.0575  0.1283
  936loPI   C2A14968   3.069   7.625   6.022 -0.1745  0.1483 -0.2856
  936loPI   C3A14969   3.213   7.514   6.437 -0.1331 -0.1547  0.1751
  936loPI   C4A14970   3.317   7.303   6.877  0.4618  0.2584  0.0393
  936loPI   C5A14971   3.263   7.460   7.247 -0.0012 -0.1591  0.3626
  936loPI   C6A14972   3.269   7.501   7.652  0.3604 -0.1353  0.0075
  936loPI   C1B14973   2.306   7.373   5.972  0.0442 -0.1948  0.0552
  936loPI   C2B14974   2.319   7.421   6.402 -0.0783 -0.2363  0.1600
  936loPI   C3B14975   2.248   7.398   6.772 -0.3455  0.1974  0.0639
  936loPI   C4B14976   2.198   7.406   7.299  0.1165 -0.3659  0.1907
  937loPI    C114977  10.029   8.796   5.514  0.2452  0.2500  0.0342
  937loPI    C214978  10.075   8.673   5.137 -0.2026  0.0339  0.0438
  937loPI    C314979  10.026   9.062   5.216 -0.1413  0.0766 -0.1235
  937loPI   PO414980   9.867   8.641   5.669 -0.3638 -0.0619  0.1083
  937loPI   GL114981   9.826   8.250   5.934  0.2431  0.2940 -0.0485
  937loPI   GL214982  10.026   8.127   6.149  0.0770  0.0385 -0.2737
  937loPI   C1A14983   9.553   8.195   6.315 -0.3343  0.0593 -0.2811
  937loPI   C2A14984   9.494   8.099   6.792  0.0417  0.1198 -0.0167
  937loPI   C3A14985   9.703   8.181   7.206  0.0806 -0.2630 -0.2743
  937loPI   C4A14986   9.688   7.999   7.675 -0.1073 -0.0589 -0.0112
  937loPI   C5A14987   9.860   7.969   8.103  0.3549 -0.0634 -0.0062
  937loPI   C6A14988  10.267   7.941   8.155  0.2870 -0.3140 -0.0480
  937loPI   C1B14989  10.111   8.127   6.571  0.0626  0.1010  0.0587
  937loPI   C2B14990  10.283   8.374   6.803  0.0346  0.0265 -0.0408
  937loPI   C3B14991  10.486   8.455   7.137  0.1828  0.1581 -0.2318
  937loPI   C4B14992  10.516   8.164   7.469  0.0884  0.3602  0.1693
  938loPI    C114993   7.022   1.764   5.046  0.1169 -0.1223 -0.0576
  938loPI    C214994   6.973   1.725   4.651 -0.1180  0.2489 -0.0695
  938loPI    C314995   6.654   1.753   4.891  0.0198 -0.1463  0.1701
  938loPI   PO414996   7.326   1.828   5.135 -0.1122  0.1218  0.1571
  938loPI   GL114997   7.454   1.963   5.541 -0.1368 -0.2977  0.1578
  938loPI   GL214998   7.637   2.194   5.518  0.1444 -0.0161 -0.0329
  938loPI   C1A14999   7.456   1.843   5.992 -0.2189 -0.0060 -0.2708
  938loPI   C2A15000   7.375   1.825   6.426 -0.0096  0.0713  0.2398
  938loPI   C3A15001   7.332   1.699   6.797  0.0676  0.1975  0.2033
  938loPI   C4A15002   7.284   1.402   7.113 -0.0865  0.0593 -0.2997
  938loPI   C5A15003   7.343   1.277   7.505  0.0059  0.1190 -0.2205
  938loPI   C6A15004   7.147   1.285   7.961  0.0277 -0.0774 -0.0772
  938loPI   C1B15005   7.537   2.548   5.869 -0.0933  0.3991 -0.0980
  938loPI   C2B15006   7.643   2.918   6.196  0.0659  0.1545 -0.0769
  938loPI   C3B15007   7.603   2.957   6.657  0.0734 -0.2493 -0.0453
  938loPI   C4B15008   7.662   2.891   7.013 -0.0777 -0.2701  0.0899
  939loPI    C115009  13.405   9.184   5.562  0.1924 -0.0845  0.0144
  939loPI    C215010  13.715   9.352   5.373  0.2105 -0.1983 -0.0580
  939loPI    C315011  13.448   9.138   5.167  0.0056  0.0150 -0.0187
  939loPI   PO415012  13.574   8.995   5.770  0.0623 -0.1762  0.2453
  939loPI   GL115013  13.557   8.650   5.938 -0.4304 -0.0406  0.0984
  939loPI   GL215014  13.813   8.775   6.142 -0.0070  0.0249  0.0360
  939loPI   C1A15015  13.450   8.510   6.373 -0.0779  0.1037  0.2521
  939loPI   C2A15016  13.389   8.553   6.889 -0.4739 -0.0089  0.1823
  939loPI   C3A15017  13.237   8.760   7.203  0.2357 -0.1161 -0.0382
  939loPI   C4A15018  12.911   8.816   7.521 -0.2396  0.0848 -0.2717
  939loPI   C5A15019  13.037   8.765   8.022 -0.1477  0.1710  0.0093
  939loPI   C6A15020  13.247   8.452   8.131 -0.2031  0.0442 -0.0448
  939loPI   C1B15021  13.828   8.783   6.592 -0.0756 -0.0118  0.0953
  939loPI   C2B15022  13.771   8.949   6.998 -0.0207 -0.1131  0.1942
  939loPI   C3B15023  13.633   9.044   7.383  0.2353 -0.1243 -0.2117
  939loPI   C4B15024  13.392   9.103   7.838 -0.0034  0.0703  0.1959
  940loPI    C115025  13.233   2.744   5.047 -0.0010 -0.0262  0.2813
  940loPI    C215026  13.389   2.391   4.942  0.1345  0.0750  0.1384
  940loPI    C315027  13.195   2.612   4.671  0.1100  0.1413  0.2100
  940loPI   PO415028  13.363   2.832   5.152  0.0924 -0.2820 -0.0724
  940loPI   GL115029  13.161   2.825   5.542  0.1019 -0.0480 -0.3429
  940loPI   GL215030  13.122   3.179   5.769 -0.1239 -0.1639  0.1401
  940loPI   C1A15031  13.085   2.653   5.938 -0.1164  0.2170 -0.0561
  940loPI   C2A15032  13.073   2.618   6.415  0.2900 -0.0222 -0.0945
  940loPI   C3A15033  13.024   2.517   6.877 -0.2065  0.0780  0.0524
  940loPI   C4A15034  13.158   2.487   7.338 -0.5132  0.0937 -0.0159
  940loPI   C5A15035  13.153   2.277   7.718  0.2034 -0.0540  0.1829
  940loPI   C6A15036  13.153   2.018   8.119  0.0206 -0.2087 -0.4155
  940loPI   C1B15037  13.028   3.121   6.248  0.0393 -0.2421 -0.1643
  940loPI   C2B15038  13.127   3.042   6.633  0.3287 -0.3212 -0.0162
  940loPI   C3B15039  13.089   3.121   7.083 -0.1095  0.0735 -0.1966
  940loPI   C4B15040  12.937   3.045   7.516  0.2162  0.0891  0.1314
  941loPI    C115041   8.406  11.873   4.934 -0.3017  0.0200  0.0042
  941loPI    C215042   8.249  11.909   4.568 -0.0754 -0.0012 -0.0965
  941loPI    C315043   8.533  12.163   4.689 -0.0229 -0.1039 -0.0023
  941loPI   PO415044   8.225  11.833   5.051  0.2464 -0.0736 -0.1589
  941loPI   GL115045   8.016  11.886   5.336 -0.1226 -0.1000  0.3077
  941loPI   GL215046   7.772  11.685   5.242  0.3293 -0.0371 -0.3113
  941loPI   C1A15047   8.274  11.983   5.661  0.0924 -0.0583 -0.0328
  941loPI   C2A15048   8.214  12.216   5.996 -0.0778  0.2027  0.0626
  941loPI   C3A15049   8.336  12.390   6.373 -0.2711  0.1404  0.1075
  941loPI   C4A15050   8.393  12.398   6.765 -0.0001  0.2122 -0.2184
  941loPI   C5A15051   8.349  12.038   7.085 -0.6934 -0.1083  0.2135
  941loPI   C6A15052   8.094  11.962   7.517  0.1534  0.2342 -0.1208
  941loPI   C1B15053   7.887  11.555   5.678 -0.0097 -0.0787 -0.2179
  941loPI   C2B15054   8.158  11.688   6.004 -0.1398 -0.1480 -0.0151
  941loPI   C3B15055   8.533  11.732   6.230 -0.0821 -0.0372  0.1772
  941loPI   C4B15056   8.490  11.912   6.660  0.1945 -0.0112  0.3130
  942loPI    C115057  10.998  16.306   4.715  0.1054 -0.1230 -0.0585
  942loPI    C215058  10.825  16.558   4.458 -0.1542  0.0324  0.2612
  942loPI    C315059  11.220  16.496   4.442 -0.1258  0.2583  0.0121
  942loPI   PO415060  10.998  16.353   5.025  0.1894  0.0662 -0.2076
  942loPI   GL115061  11.145  16.342   5.417 -0.1950 -0.1349 -0.1516
  942loPI   GL215062  11.490  16.478   5.333  0.1798 -0.1034  0.0726
  942loPI   C1A15063  11.052  16.068   5.667 -0.0018  0.1469  0.2286
  942loPI   C2A15064  10.981  16.127   5.989  0.0058 -0.0538 -0.1498
  942loPI   C3A15065  10.894  16.227   6.374 -0.1375 -0.0358  0.1064
  942loPI   C4A15066  10.928  16.327   6.799  0.1313 -0.1935 -0.1271
  942loPI   C5A15067  10.720  16.348   7.220  0.3004 -0.0925 -0.0929
  942loPI   C6A15068  10.354  16.274   7.347  0.2536 -0.0183 -0.1225
  942loPI   C1B15069  11.361  16.604   5.796 -0.0277 -0.0857  0.2028
  942loPI   C2B15070  11.216  16.650   6.255  0.0815 -0.0563 -0.1185
  942loPI   C3B15071  11.279  16.733   6.679 -0.0802 -0.0542  0.1329
  942loPI   C4B15072  11.184  16.806   7.202  0.0123 -0.1871 -0.3177
  943loPI    C115073  11.481   8.231   5.254 -0.1487 -0.1775  0.0628
  943loPI    C215074  11.344   7.895   5.087  0.1719 -0.2772 -0.0074
  943loPI    C315075  11.678   8.066   4.948 -0.0377  0.1248 -0.0328
  943loPI   PO415076  11.541   8.200   5.450 -0.0940 -0.2860  0.1479
  943loPI   GL115077  11.809   8.012   5.725 -0.2039  0.0639  0.0897
  943loPI   GL215078  12.168   8.175   5.835 -0.1181  0.1269 -0.1024
  943loPI   C1A15079  11.668   8.341   6.144  0.0146  0.1801  0.1104
  943loPI   C2A15080  11.475   8.460   6.602 -0.2877 -0.0099 -0.0113
  943loPI   C3A15081  11.280   8.611   6.879  0.1378 -0.1004  0.1939
  943loPI   C4A15082  11.080   8.295   7.191  0.3056 -0.1804  0.0556
  943loPI   C5A15083  10.978   8.031   7.517 -0.0773  0.0655 -0.2678
  943loPI   C6A15084  10.749   7.912   7.877 -0.1254  0.0445 -0.0280
  943loPI   C1B15085  12.126   8.198   6.291  0.1580 -0.2276 -0.0145
  943loPI   C2B15086  12.042   8.236   6.749  0.0731  0.2456  0.0251
  943loPI   C3B15087  12.310   8.351   7.105  0.0400 -0.2060 -0.1087
  943loPI   C4B15088  12.607   8.437   7.454  0.2937 -0.0368  0.1795
  944loPI    C115089  12.272   3.154   4.750 -0.0858 -0.0359  0.1936
  944loPI    C215090  11.874   3.141   4.793 -0.0921 -0.0154  0.1424
  944loPI    C315091  12.036   3.129   4.428 -0.0512  0.1143  0.1556
  944loPI   PO415092  12.351   2.986   4.915 -0.2945 -0.0764  0.1303
  944loPI   GL115093  12.299   2.960   5.372 -0.0776  0.1313  0.1470
  944loPI   GL215094  12.595   2.881   5.578  0.1986 -0.0196 -0.3042
  944loPI   C1A15095  12.180   3.028   5.752  0.0641  0.3550  0.1201
  944loPI   C2A15096  12.200   3.093   6.164  0.2648 -0.0668 -0.3878
  944loPI   C3A15097  12.160   3.027   6.626  0.1248 -0.1951  0.3071
  944loPI   C4A15098  12.108   2.975   7.048 -0.3540 -0.2450  0.0324
  944loPI   C5A15099  11.918   2.936   7.445  0.4315 -0.0913 -0.1393
  944loPI   C6A15100  11.907   2.555   7.544 -0.0443 -0.0434 -0.0822
  944loPI   C1B15101  12.621   2.917   6.000 -0.1998  0.0507 -0.0065
  944loPI   C2B15102  12.600   2.874   6.461 -0.1035 -0.1527  0.1455
  944loPI   C3B15103  12.612   2.873   6.902 -0.2119  0.1773 -0.0266
  944loPI   C4B15104  12.695   2.647   7.328  0.3072  0.1958 -0.1561
  945loPI    C115105   3.004  16.066   4.819  0.4716 -0.0909  0.1668
  945loPI    C215106   3.170  16.324   4.563  0.1953 -0.0297  0.0461
  945loPI    C315107   3.036  15.971   4.432  0.1353 -0.0354  0.1225
  945loPI   PO415108   3.068  16.184   5.037  0.1115  0.1807 -0.2638
  945loPI   GL115109   3.114  16.155   5.445  0.0078 -0.1265 -0.0336
  945loPI   GL215110   3.406  16.252   5.441 -0.0579 -0.0599 -0.0413
  945loPI   C1A15111   2.874  16.215   5.833 -0.1788 -0.1027  0.0165
  945loPI   C2A15112   2.914  16.292   6.244  0.0071  0.1822 -0.3193
  945loPI   C3A15113   2.864  16.219   6.669  0.3647 -0.0944  0.1573
  945loPI   C4A15114   2.705  15.890   6.940  0.0731 -0.1417 -0.0658
  945loPI   C5A15115   2.428  15.739   7.247 -0.3678 -0.0116  0.2884
  945loPI   C6A15116   2.353  15.310   7.399  0.1318 -0.1083 -0.0693
  945loPI   C1B15117   3.398  16.203   5.867  0.0332  0.0841  0.4255
  945loPI   C2B15118   3.443  16.062   6.361 -0.0305  0.0017 -0.1671
  945loPI   C3B15119   3.437  16.122   6.797  0.0502  0.0936 -0.0331
  945loPI   C4B15120   3.210  16.109   7.306  0.2325  0.1812 -0.2041
  946loPI    C115121  17.144   6.225   5.370 -0.0485 -0.0559 -0.0988
  946loPI    C215122  16.826   6.170   5.135 -0.1191  0.0681 -0.0334
  946loPI    C315123  17.172   5.988   5.049 -0.1271  0.1591 -0.2662
  946loPI   PO415124  17.056   6.294   5.548  0.2626  0.2149 -0.1150
  946loPI   GL115125  17.082   6.297   5.994  0.1388 -0.0648 -0.1516
  946loPI   GL215126  16.808   6.103   5.976 -0.0225  0.2123 -0.0852
  946loPI   C1A15127  16.883   6.249   6.443 -0.0685  0.2392  0.1379
  946loPI   C2A15128  16.855   6.594   6.682  0.3742 -0.1582 -0.0206
  946loPI   C3A15129  16.935   6.775   6.983 -0.2770  0.1003  0.0341
  946loPI   C4A15130  17.069   6.703   7.373  0.0586 -0.2169 -0.0823
  946loPI   C5A15131  17.025   6.870   7.833 -0.0318 -0.1315  0.0688
  946loPI   C6A15132  16.901   7.231   8.158  0.1093  0.0150 -0.0573
  946loPI   C1B15133  16.361   6.146   6.119 -0.0139 -0.1209 -0.0892
  946loPI   C2B15134  16.220   5.860   6.339  0.0715  0.1238 -0.0393
  946loPI   C3B15135  15.995   5.715   6.720  0.1760  0.3102  0.1883
  946loPI   C4B15136  15.799   5.663   7.071 -0.0933 -0.0190  0.2735
  947loPI    C115137  11.034   1.465   4.723  0.0678 -0.0291 -0.1440
  947loPI    C215138  10.828   1.503   4.382 -0.1460  0.0652 -0.0067
  947loPI    C315139  11.180   1.688   4.425 -0.0020 -0.1416 -0.2637
  947loPI   PO415140  10.781   1.522   4.998 -0.0626  0.0199 -0.0713
  947loPI   GL115141  10.702   1.914   5.204  0.0345 -0.0366  0.2213
  947loPI   GL215142  10.600   2.170   5.064  0.1390 -0.3491  0.0535
  947loPI   C1A15143  10.712   1.935   5.673  0.3257  0.0753 -0.0528
  947loPI   C2A15144  10.785   2.163   6.085 -0.4145 -0.0935  0.2015
  947loPI   C3A15145  10.816   2.205   6.442  0.2000 -0.3943 -0.3692
  947loPI   C4A15146  10.930   2.248   6.812 -0.0663  0.1330 -0.0511
  947loPI   C5A15147  11.297   2.366   7.041  0.0455  0.1649  0.2166
  947loPI   C6A15148  11.470   2.375   7.524 -0.1127 -0.2064  0.0138
  947loPI   C1B15149  10.803   2.385   5.482 -0.1953 -0.1450  0.0357
  947loPI   C2B15150  11.130   2.488   5.735 -0.2468  0.0598  0.1256
  947loPI   C3B15151  11.180   2.467   6.168 -0.1008  0.2220  0.1105
  947loPI   C4B15152  11.351   2.557   6.527 -0.6534  0.2204  0.3479
  948loPI    C115153  10.377  13.286   4.465  0.1877 -0.1474  0.0190
  948loPI    C215154  10.075  13.272   4.203  0.2097  0.2471 -0.0331
  948loPI    C315155  10.392  13.034   4.154 -0.0571 -0.1219 -0.0161
  948loPI   PO415156  10.298  13.249   4.780  0.1957 -0.3257 -0.0939
  948loPI   GL115157  10.271  13.189   5.099 -0.1117  0.1486  0.0257
  948loPI   GL215158  10.166  12.930   5.366 -0.2402 -0.0491 -0.1967
  948loPI   C1A15159  10.363  13.414   5.500 -0.1416  0.0095  0.0485
  948loPI   C2A15160  10.269  13.487   5.949  0.0016 -0.3084 -0.2315
  948loPI   C3A15161  10.251  13.573   6.306  0.3365 -0.1179  0.0256
  948loPI   C4A15162  10.237  13.572   6.770 -0.2654  0.0429  0.2689
  948loPI   C5A15163  10.295  13.549   7.162  0.1727 -0.0598 -0.0611
  948loPI   C6A15164  10.330  13.375   7.534 -0.0605 -0.3689  0.0009
  948loPI   C1B15165   9.956  13.122   5.740 -0.2057 -0.1006  0.1179
  948loPI   C2B15166   9.980  13.124   6.106  0.1230  0.1569 -0.2606
  948loPI   C3B15167   9.927  13.139   6.549  0.0332 -0.2136 -0.0941
  948loPI   C4B15168   9.945  13.232   7.005 -0.1755  0.1195  0.0762
  949loPI    C115169  13.263  13.109   5.407  0.1082 -0.0314 -0.1412
  949loPI    C215170  13.335  12.888   5.082 -0.0701 -0.1425 -0.1064
  949loPI    C315171  13.324  13.286   5.054  0.2600 -0.1347 -0.1680
  949loPI   PO415172  13.050  12.918   5.526  0.1329 -0.5275 -0.3448
  949loPI   GL115173  12.948  12.850   5.909  0.2977 -0.0029 -0.2316
  949loPI   GL215174  12.836  13.219   5.901  0.0629  0.0215  0.0165
  949loPI   C1A15175  13.139  12.912   6.235 -0.2220 -0.1842  0.2090
  949loPI   C2A15176  12.996  12.856   6.681  0.2186 -0.1094 -0.0242
  949loPI   C3A15177  12.923  12.914   7.127 -0.0634 -0.1000  0.0152
  949loPI   C4A15178  13.174  13.038   7.426 -0.0811  0.0399 -0.1482
  949loPI   C5A15179  13.413  12.952   7.860  0.4329  0.1867  0.0534
  949loPI   C6A15180  13.762  12.943   8.156  0.0657  0.1626 -0.1821
  949loPI   C1B15181  12.686  13.251   6.399  0.0124  0.3034 -0.0289
  949loPI   C2B15182  12.805  13.355   6.830  0.2788  0.0754  0.1843
  949loPI   C3B15183  12.845  13.404   7.262  0.1955  0.0805 -0.1688
  949loPI   C4B15184  12.566  13.571   7.562 -0.0510  0.0372  0.3712
  950loPI    C115185  11.326  17.859   4.717 -0.0627  0.2677  0.3119
  950loPI    C215186  11.678  18.009   4.599 -0.0997  0.1844  0.0895
  950loPI    C315187  11.453  17.801   4.342 -0.1692 -0.0296  0.3188
  950loPI   PO415188  11.328  17.989   4.993  0.1694  0.0672 -0.1434
  950loPI   GL115189  11.253  17.764   5.307 -0.3148 -0.0088  0.0931
  950loPI   GL215190  10.954  17.813   5.324 -0.2773  0.0447 -0.0256
  950loPI   C1A15191  11.196  17.753   5.814  0.4533 -0.0627 -0.3451
  950loPI   C2A15192  11.130  17.977   6.151  0.2330  0.1506 -0.0775
  950loPI   C3A15193  10.999  18.226   6.395 -0.0290  0.0871  0.1226
  950loPI   C4A15194  10.766  18.521   6.721  0.2072 -0.1086 -0.0613
  950loPI   C5A15195  10.609  18.715   7.116 -0.1493 -0.0709 -0.0428
  950loPI   C6A15196  10.312  18.916   7.366  0.0348  0.1712  0.0592
  950loPI   C1B15197  10.751  17.907   5.727 -0.1692  0.0851 -0.1226
  950loPI   C2B15198  10.582  17.961   6.088  0.2412 -0.2843  0.1378
  950loPI   C3B15199  10.474  18.119   6.529  0.1240 -0.3518 -0.3388
  950loPI   C4B15200  10.413  18.260   6.973  0.0882 -0.0829 -0.2646
  951loPI    C115201   2.672   0.706   4.295  0.0740  0.0526 -0.4266
  951loPI    C215202   3.058   0.603   4.319  0.0561  0.0958  0.2141
  951loPI    C315203   2.781   0.323   4.251  0.1715  0.0189  0.0532
  951loPI   PO415204   2.592   0.850   4.614 -0.0816  0.0536  0.3061
  951loPI   GL115205   2.620   0.829   5.053 -0.2552  0.1921 -0.0080
  951loPI   GL215206   2.257   0.813   5.186 -0.2176 -0.1875  0.0630
  951loPI   C1A15207   2.701   0.443   5.316  0.0693 -0.0967  0.2447
  951loPI   C2A15208   2.626   0.401   5.772 -0.5503 -0.0915  0.0730
  951loPI   C3A15209   2.622   0.338   6.129 -0.0848 -0.2073 -0.0109
  951loPI   C4A15210   2.577   0.306   6.561 -0.0617  0.1578  0.2800
  951loPI   C5A15211   2.370   0.422   6.959  0.2587  0.0478 -0.1457
  951loPI   C6A15212   1.929   0.609   7.108 -0.0286 -0.0404  0.1810
  951loPI   C1B15213   2.482   0.843   5.598 -0.0660 -0.1790 -0.0463
  951loPI   C2B15214   2.534   0.834   6.023 -0.3518  0.1972  0.3787
  951loPI   C3B15215   2.381   0.891   6.464  0.1083 -0.4934  0.0747
  951loPI   C4B15216   2.261   0.942   6.890 -0.3284  0.3059 -0.1654
  952loPI    C115217   6.749   0.542   5.115  0.1803  0.0086 -0.0870
  952loPI    C215218   6.522   0.772   5.351  0.1950 -0.0445 -0.0205
  952loPI    C315219   6.577   0.871   4.967  0.0912 -0.0103 -0.0269
  952loPI   PO415220   6.673   0.339   5.125  0.1710 -0.0027  0.1699
  952loPI   GL115221   6.497   0.298   5.480 -0.1432 -0.1903 -0.0151
  952loPI   GL215222   6.804   0.246   5.635  0.0933  0.0985  0.2737
  952loPI   C1A15223   6.341   0.167   5.884  0.0793 -0.3051 -0.2462
  952loPI   C2A15224   6.406   0.136   6.337 -0.0806  0.1125 -0.0791
  952loPI   C3A15225   6.315   0.383   6.674  0.2570 -0.3486  0.3293
  952loPI   C4A15226   6.600   0.364   7.070 -0.1582 -0.0984 -0.0859
  952loPI   C5A15227   7.030   0.398   7.133 -0.0588 -0.0495 -0.1080
  952loPI   C6A15228   7.353   0.601   6.945 -0.2550  0.0293  0.1157
  952loPI   C1B15229   6.606   0.626   5.827 -0.0823 -0.1187  0.2047
  952loPI   C2B15230   6.356   0.991   5.793 -0.3432 -0.2160 -0.1055
  952loPI   C3B15231   6.194   1.136   6.070 -0.0390 -0.2549  0.1181
  952loPI   C4B15232   6.061   1.444   6.324 -0.0104 -0.1406 -0.4017
  953loPI    C115233  12.865  12.766   4.994  0.1617  0.0016 -0.2278
  953loPI    C215234  12.716  12.868   4.637  0.0556  0.0679 -0.1647
  953loPI    C315235  13.102  12.772   4.672  0.0283 -0.1067 -0.3293
  953loPI   PO415236  12.665  12.859   5.163  0.1520  0.3760 -0.3702
  953loPI   GL115237  12.481  12.953   5.612 -0.1489 -0.2421 -0.2879
  953loPI   GL215238  12.610  12.555   5.670 -0.0109  0.3323  0.1815
  953loPI   C1A15239  12.467  12.902   6.081 -0.0742  0.3587 -0.0460
  953loPI   C2A15240  12.371  12.844   6.415  0.1969  0.1834 -0.0543
  953loPI   C3A15241  12.526  12.814   6.795 -0.4472 -0.0694 -0.1131
  953loPI   C4A15242  12.717  12.494   6.979 -0.1866 -0.2859 -0.4586
  953loPI   C5A15243  12.800  12.179   7.385 -0.3209  0.0581  0.0501
  953loPI   C6A15244  12.485  12.047   7.754  0.0040 -0.0485  0.0373
  953loPI   C1B15245  12.818  12.376   5.990 -0.1332 -0.0630 -0.0070
  953loPI   C2B15246  12.748  12.454   6.417  0.0829 -0.0785  0.0238
  953loPI   C3B15247  13.093  12.377   6.610  0.1254 -0.0766 -0.1197
  953loPI   C4B15248  13.276  12.548   6.954 -0.2063  0.1807 -0.3451
  954loPI    C115249   2.977   8.474   4.494  0.1831 -0.2044 -0.1426
  954loPI    C215250   2.687   8.222   4.382  0.0638 -0.1051 -0.0600
  954loPI    C315251   2.688   8.598   4.246  0.1330 -0.0944 -0.0304
  954loPI   PO415252   3.053   8.580   4.850  0.0263  0.0127  0.0122
  954loPI   GL115253   3.051   8.618   5.222  0.0792  0.2528 -0.0871
  954loPI   GL215254   2.761   8.754   5.219  0.0329  0.1949  0.1822
  954loPI   C1A15255   3.309   8.603   5.562  0.3184  0.2710  0.2456
  954loPI   C2A15256   3.312   8.555   6.126  0.0724 -0.1380 -0.2316
  954loPI   C3A15257   3.333   8.500   6.559 -0.2008 -0.1706 -0.0935
  954loPI   C4A15258   3.288   8.379   7.017 -0.1725  0.1131 -0.3103
  954loPI   C5A15259   3.323   8.439   7.410  0.0445  0.2366  0.2442
  954loPI   C6A15260   3.482   8.571   7.792  0.0048  0.1869 -0.0285
  954loPI   C1B15261   2.871   8.870   5.653 -0.1225 -0.1374 -0.2156
  954loPI   C2B15262   2.974   8.935   5.990 -0.2017 -0.0726  0.1401
  954loPI   C3B15263   2.982   8.897   6.375 -0.1605  0.2034 -0.0741
  954loPI   C4B15264   3.046   8.831   6.818  0.1840  0.1201  0.1361
  955loPI    C115265   6.702   7.481   5.127 -0.0872  0.1118  0.0152
  955loPI    C215266   7.050   7.550   4.942 -0.0345  0.0405  0.0873
  955loPI    C315267   6.769   7.835   4.953 -0.0487  0.0357 -0.1258
  955loPI   PO415268   6.776   7.315   5.344  0.0804  0.1200  0.1758
  955loPI   GL115269   6.900   7.309   5.736 -0.1999 -0.1054  0.0004
  955loPI   GL215270   6.916   7.620   5.927 -0.1465 -0.0595 -0.1272
  955loPI   C1A15271   6.934   7.167   6.197 -0.0849  0.0441  0.0878
  955loPI   C2A15272   6.920   7.240   6.681  0.1852  0.1546 -0.0692
  955loPI   C3A15273   6.988   7.351   7.119 -0.0823 -0.2185  0.0900
  955loPI   C4A15274   7.167   7.411   7.493 -0.0421  0.1015  0.1337
  955loPI   C5A15275   7.203   7.369   7.881 -0.1656 -0.3951 -0.0155
  955loPI   C6A15276   7.123   7.422   8.267 -0.2094  0.1244 -0.0463
  955loPI   C1B15277   7.228   7.551   6.182 -0.3200 -0.0270  0.1373
  955loPI   C2B15278   7.404   7.365   6.466 -0.2238  0.0525  0.1388
  955loPI   C3B15279   7.835   7.164   6.666 -0.0036  0.2133  0.2869
  955loPI   C4B15280   8.234   7.382   6.711 -0.0758 -0.2569 -0.1269
  956loPI    C115281  15.143  14.715   5.148  0.1546 -0.1880 -0.1087
  956loPI    C215282  15.406  14.496   4.942  0.2304  0.0558 -0.2761
  956loPI    C315283  15.143  14.726   4.748  0.2044  0.1739 -0.1021
  956loPI   PO415284  15.300  14.805   5.370 -0.1554  0.3192  0.1651
  956loPI   GL115285  15.291  14.696   5.848  0.0728  0.1322  0.0165
  956loPI   GL215286  15.301  14.997   5.941  0.0289 -0.0482 -0.0540
  956loPI   C1A15287  15.275  14.530   6.268  0.3051  0.0629  0.0458
  956loPI   C2A15288  15.395  14.623   6.648 -0.0847  0.1413  0.1553
  956loPI   C3A15289  15.315  14.848   7.067 -0.0704 -0.0279 -0.2049
  956loPI   C4A15290  14.993  15.039   7.421  0.1455 -0.2899  0.1223
  956loPI   C5A15291  14.904  14.985   7.850  0.0922  0.1773 -0.0067
  956loPI   C6A15292  14.842  14.691   8.189 -0.1525 -0.1180  0.2273
  956loPI   C1B15293  15.260  15.042   6.260 -0.3148 -0.1818 -0.1667
  956loPI   C2B15294  15.120  15.010   6.620 -0.2411  0.1727 -0.1797
  956loPI   C3B15295  14.834  15.016   6.972  0.0451 -0.1115  0.1503
  956loPI   C4B15296  14.493  14.845   7.097 -0.0502 -0.3493 -0.0122
  957loPI    C115297   2.255  11.917   4.887  0.3064  0.0721  0.1244
  957loPI    C215298   2.202  12.230   4.643  0.1365 -0.0698 -0.0239
  957loPI    C315299   2.546  12.026   4.636  0.0643 -0.1865 -0.2804
  957loPI   PO415300   1.978  11.738   4.842 -0.1314 -0.0066  0.0559
  957loPI   GL115301   1.843  11.661   5.263 -0.1890  0.5243 -0.0809
  957loPI   GL215302   1.698  11.374   5.237 -0.3468 -0.2732  0.0301
  957loPI   C1A15303   1.870  11.802   5.651 -0.0244 -0.2402 -0.1805
  957loPI   C2A15304   1.892  11.674   6.170  0.1317  0.1281 -0.0816
  957loPI   C3A15305   1.892  11.866   6.519  0.4929 -0.3822 -0.0351
  957loPI   C4A15306   1.820  11.871   6.982 -0.0237  0.0475  0.1011
  957loPI   C5A15307   1.634  12.098   7.315  0.2892 -0.0321 -0.1363
  957loPI   C6A15308   1.501  12.197   7.759 -0.3818 -0.0338  0.1752
  957loPI   C1B15309   1.586  11.386   5.721 -0.2265  0.0024 -0.1715
  957loPI   C2B15310   1.501  11.310   6.131  0.3013  0.0684 -0.0157
  957loPI   C3B15311   1.539  11.474   6.457  0.0265 -0.3100  0.1988
  957loPI   C4B15312   1.530  11.419   6.852  0.3249 -0.1289  0.1717
  958loPI    C115313  15.200  13.253   5.332 -0.2144 -0.2131 -0.0453
  958loPI    C215314  15.084  13.605   5.183 -0.2344 -0.3246 -0.2982
  958loPI    C315315  15.374  13.398   5.003  0.3572 -0.0615  0.3085
  958loPI   PO415316  14.958  13.049   5.415  0.0864 -0.4141 -0.0075
  958loPI   GL115317  14.670  12.776   5.714  0.2390 -0.0505 -0.0110
  958loPI   GL215318  14.891  12.907   6.037 -0.1279 -0.2218  0.1574
  958loPI   C1A15319  14.303  12.858   6.027 -0.3690 -0.0470  0.4603
  958loPI   C2A15320  14.057  12.850   6.421 -0.0612 -0.4335 -0.0850
  958loPI   C3A15321  14.005  12.665   6.774 -0.0558 -0.3224 -0.0584
  958loPI   C4A15322  13.904  12.704   7.154 -0.0426 -0.1960  0.0383
  958loPI   C5A15323  13.523  12.586   7.367  0.1482  0.2727  0.1434
  958loPI   C6A15324  13.057  12.556   7.573 -0.0697  0.1616  0.1719
  958loPI   C1B15325  14.923  12.835   6.502 -0.0940 -0.2176 -0.0064
  958loPI   C2B15326  14.850  12.874   7.006 -0.0058  0.0492 -0.0063
  958loPI   C3B15327  14.801  12.903   7.433  0.2768 -0.2000 -0.0668
  958loPI   C4B15328  14.657  13.179   7.643 -0.1822  0.1393 -0.1498
  959loPI    C115329   8.427   2.123   4.938  0.0036  0.3899  0.0832
  959loPI    C215330   8.755   1.922   4.829 -0.3472 -0.1845  0.0464
  959loPI    C315331   8.684   2.286   4.679  0.1630 -0.1390 -0.1027
  959loPI   PO415332   8.424   2.107   5.170 -0.1514 -0.0466 -0.1923
  959loPI   GL115333   8.556   2.015   5.500 -0.0579 -0.2373  0.0214
  959loPI   GL215334   8.828   1.810   5.402  0.2144  0.1603 -0.3156
  959loPI   C1A15335   8.372   2.114   5.923 -0.2051 -0.0040 -0.0761
  959loPI   C2A15336   8.219   2.131   6.322  0.2978 -0.0600  0.1567
  959loPI   C3A15337   8.177   2.196   6.691 -0.2540  0.0663 -0.0861
  959loPI   C4A15338   8.284   2.161   7.091  0.4188  0.0124  0.0677
  959loPI   C5A15339   8.448   2.288   7.509 -0.1351 -0.4152 -0.1148
  959loPI   C6A15340   8.843   2.232   7.823  0.0595  0.2263  0.0643
  959loPI   C1B15341   8.782   1.763   5.859 -0.3322  0.2226  0.0122
  959loPI   C2B15342   8.788   1.820   6.331 -0.1217 -0.1227 -0.0547
  959loPI   C3B15343   8.646   1.840   6.719  0.3957 -0.0832 -0.2829
  959loPI   C4B15344   8.226   1.706   6.812  0.3202 -0.4080 -0.0730
  960loPI    C115345  14.000   1.286   4.726  0.1685  0.1847  0.0450
  960loPI    C215346  13.631   1.309   4.575  0.1717  0.2711  0.0500
  960loPI    C315347  13.884   1.615   4.532  0.3239  0.1177 -0.1659
  960loPI   PO415348  14.073   1.268   4.994  0.1960  0.2597 -0.1223
  960loPI   GL115349  14.204   1.089   5.389 -0.0050  0.1246 -0.1268
  960loPI   GL215350  14.438   1.162   5.527 -0.0010 -0.4134 -0.0608
  960loPI   C1A15351  14.082   1.060   5.809  0.2468  0.1010  0.1477
  960loPI   C2A15352  14.052   1.149   6.241  0.2247  0.1307 -0.0374
  960loPI   C3A15353  14.003   1.097   6.626  0.4486  0.2903  0.0040
  960loPI   C4A15354  14.125   0.986   7.076  0.5126  0.1476  0.3268
  960loPI   C5A15355  14.184   1.096   7.453  0.1420 -0.2236 -0.0391
  960loPI   C6A15356  14.451   1.243   7.698  0.1416  0.1894  0.0259
  960loPI   C1B15357  14.468   1.250   5.985  0.4715 -0.0248  0.1842
  960loPI   C2B15358  14.497   1.316   6.438 -0.4399 -0.0701 -0.0344
  960loPI   C3B15359  14.405   1.385   6.755  0.0358 -0.0225  0.2789
  960loPI   C4B15360  14.558   1.355   7.222 -0.1034 -0.1500 -0.0022
  961loPI    C115361   4.782  16.031   4.902 -0.0501  0.1421  0.0488
  961loPI    C215362   4.981  15.921   4.573 -0.0211 -0.0933  0.1430
  961loPI    C315363   4.623  15.761   4.653 -0.0040 -0.0771  0.2533
  961loPI   PO415364   5.050  16.205   5.009  0.1395  0.1727 -0.1658
  961loPI   GL115365   5.093  16.412   5.350  0.0173 -0.3515  0.5045
  961loPI   GL215366   5.307  16.757   5.211  0.2051 -0.1784 -0.2062
  961loPI   C1A15367   5.177  16.495   5.715  0.0449  0.0612  0.5298
  961loPI   C2A15368   5.347  16.687   6.108 -0.2010 -0.2961  0.2789
  961loPI   C3A15369   5.359  16.717   6.556  0.0704 -0.2149  0.0115
  961loPI   C4A15370   5.111  16.649   6.994 -0.2005 -0.2360 -0.1177
  961loPI   C5A15371   4.748  16.595   7.239 -0.1420  0.0929  0.0421
  961loPI   C6A15372   4.684  16.716   7.608 -0.1560  0.1890  0.0471
  961loPI   C1B15373   5.239  16.979   5.596  0.2605  0.0750 -0.1200
  961loPI   C2B15374   5.052  17.105   6.045  0.2206 -0.0062  0.0312
  961loPI   C3B15375   5.112  17.186   6.426  0.4542 -0.3525  0.0152
  961loPI   C4B15376   5.110  17.172   6.814 -0.1311  0.2816 -0.1960
  962loPI    C115377  13.841  11.670   5.112  0.1258  0.1308 -0.3012
  962loPI    C215378  13.863  11.271   5.114  0.0527  0.1266 -0.0540
  962loPI    C315379  13.608  11.455   4.867 -0.0824  0.0102 -0.0027
  962loPI   PO415380  13.823  11.806   5.429  0.0662 -0.2803 -0.1924
  962loPI   GL115381  13.893  11.747   5.823  0.1248 -0.0977 -0.1562
  962loPI   GL215382  14.167  11.448   5.751 -0.0551 -0.0962  0.0519
  962loPI   C1A15383  13.980  11.994   6.116  0.0143 -0.0907 -0.0364
  962loPI   C2A15384  14.090  12.104   6.534 -0.0713 -0.0777 -0.3847
  962loPI   C3A15385  14.125  12.198   6.832  0.0592  0.1675 -0.1016
  962loPI   C4A15386  13.847  12.165   7.223 -0.0774  0.2176 -0.1672
  962loPI   C5A15387  13.732  12.015   7.624 -0.0602  0.0471 -0.0871
  962loPI   C6A15388  13.459  11.962   8.038  0.0545 -0.1161  0.1076
  962loPI   C1B15389  14.371  11.400   6.133  0.1519  0.1962 -0.0526
  962loPI   C2B15390  14.290  11.597   6.511  0.0827 -0.1401  0.0147
  962loPI   C3B15391  14.120  11.683   6.855  0.2490 -0.4669  0.0874
  962loPI   C4B15392  13.773  11.704   7.106  0.0156  0.0267 -0.1410
  963loPI    C115393   8.997   2.384   4.316  0.0322 -0.0813 -0.1089
  963loPI    C215394   9.222   2.111   4.129 -0.0172 -0.0174 -0.2629
  963loPI    C315395   8.827   2.123   4.065 -0.0249  0.0460 -0.2038
  963loPI   PO415396   9.207   2.385   4.599 -0.0351  0.0073 -0.0399
  963loPI   GL115397   9.181   2.391   5.116 -0.1507  0.0633 -0.0519
  963loPI   GL215398   8.867   2.329   5.151 -0.2276  0.3382 -0.1209
  963loPI   C1A15399   9.387   2.386   5.507 -0.1371 -0.1847  0.2581
  963loPI   C2A15400   9.404   2.596   5.884  0.0487  0.0616 -0.1475
  963loPI   C3A15401   9.442   2.478   6.349 -0.0813  0.2324 -0.1227
  963loPI   C4A15402   9.538   2.423   6.764  0.2169  0.0705  0.1180
  963loPI   C5A15403   9.568   2.379   7.236 -0.2425  0.0835  0.0623
  963loPI   C6A15404   9.533   2.269   7.665  0.0164  0.1530 -0.0303
  963loPI   C1B15405   8.929   2.265   5.645  0.2949  0.1861  0.0238
  963loPI   C2B15406   8.994   2.214   6.006  0.1080  0.0802 -0.0718
  963loPI   C3B15407   9.081   2.193   6.458 -0.0986 -0.1292  0.0646
  963loPI   C4B15408   9.183   2.050   6.900 -0.0606  0.1279  0.2020
  964loPI    C115409  10.431   5.372   4.756 -0.1562 -0.0013 -0.0153
  964loPI    C215410  10.141   5.105   4.691 -0.0652 -0.0674 -0.1554
  964loPI    C315411  10.452   5.126   4.441  0.1101 -0.0772  0.0591
  964loPI   PO415412  10.465   5.312   4.993 -0.0869  0.0577 -0.0625
  964loPI   GL115413  10.217   5.129   5.324  0.0310 -0.1485  0.1346
  964loPI   GL215414   9.914   4.975   5.251  0.0006  0.0847 -0.1251
  964loPI   C1A15415  10.380   5.197   5.774  0.0270  0.3034 -0.1527
  964loPI   C2A15416  10.508   5.058   6.141 -0.1265 -0.1035 -0.2434
  964loPI   C3A15417  10.388   5.042   6.547 -0.1981  0.1195  0.1544
  964loPI   C4A15418  10.411   4.986   6.981 -0.0368 -0.0788  0.1226
  964loPI   C5A15419  10.356   4.939   7.394 -0.3363  0.1359  0.1421
  964loPI   C6A15420  10.294   5.250   7.689 -0.0068  0.2952  0.1395
  964loPI   C1B15421   9.994   4.870   5.675 -0.0395 -0.0864 -0.0106
  964loPI   C2B15422  10.044   4.887   6.061  0.0563 -0.1726 -0.1819
  964loPI   C3B15423   9.934   4.779   6.540 -0.1107 -0.1670 -0.1840
  964loPI   C4B15424   9.893   4.678   6.990  0.0499 -0.2252  0.1761
  965loPI    C115425   1.306  11.092   4.881 -0.0693 -0.1149  0.0426
  965loPI    C215426   1.451  10.731   4.787 -0.0019 -0.0546 -0.0871
  965loPI    C315427   1.328  10.979   4.498 -0.1829 -0.0293  0.0101
  965loPI   PO415428   1.331  11.046   5.189 -0.2884 -0.0897  0.0721
  965loPI   GL115429   1.130  11.050   5.620 -0.4288 -0.2150 -0.1031
  965loPI   GL215430   1.266  10.790   5.628  0.1579 -0.1171 -0.0205
  965loPI   C1A15431   1.086  11.036   6.111  0.1466 -0.0828  0.0192
  965loPI   C2A15432   1.196  11.122   6.483 -0.1844  0.1374  0.0314
  965loPI   C3A15433   1.067  11.270   6.907 -0.1470 -0.0418  0.1308
  965loPI   C4A15434   1.092  11.171   7.372  0.0084 -0.1504 -0.0407
  965loPI   C5A15435   0.832  11.382   7.712  0.0163  0.1124  0.1299
  965loPI   C6A15436   0.440  11.524   7.973 -0.1422 -0.0950  0.1623
  965loPI   C1B15437   1.262  10.601   6.012  0.2745  0.3024  0.0182
  965loPI   C2B15438   1.189  10.592   6.389 -0.4513  0.1166  0.4260
  965loPI   C3B15439   1.217  10.592   6.805 -0.2054  0.3295 -0.0190
  965loPI   C4B15440   1.208  10.647   7.159 -0.1432  0.0003  0.0176
  966loPI    C115441   4.565  17.802   4.244  0.2993 -0.1570 -0.0204
  966loPI    C215442   4.754  18.154   4.239  0.1125 -0.0554  0.0135
  966loPI    C315443   4.743  17.929   3.909  0.2070 -0.0162 -0.0168
  966loPI   PO415444   4.558  17.774   4.528 -0.0858  0.1007 -0.2621
  966loPI   GL115445   4.558  17.576   4.978 -0.3424  0.1492 -0.0447
  966loPI   GL215446   4.728  17.416   5.225  0.1963  0.1606  0.1473
  966loPI   C1A15447   4.223  17.619   5.352 -0.0848  0.1952  0.1040
  966loPI   C2A15448   4.000  17.487   5.675 -0.1468 -0.1715 -0.0864
  966loPI   C3A15449   3.983  17.328   6.093 -0.0489  0.0826 -0.0335
  966loPI   C4A15450   3.995  17.331   6.600  0.0750  0.1083  0.1880
  966loPI   C5A15451   4.161  17.304   7.066  0.0471 -0.0903 -0.0433
  966loPI   C6A15452   4.338  17.048   7.516  0.1216  0.0299  0.1194
  966loPI   C1B15453   5.011  17.758   5.509 -0.0889 -0.0005  0.2001
  966loPI   C2B15454   5.217  17.541   5.848  0.0776  0.0020 -0.1876
  966loPI   C3B15455   5.402  17.569   6.302  0.0540  0.0545 -0.0396
  966loPI   C4B15456   5.339  17.609   6.710  0.0375 -0.0884 -0.3016
  967loPI    C115457   3.496   7.176   4.743  0.1039 -0.0891  0.0617
  967loPI    C215458   3.220   7.346   4.508  0.0550  0.2576  0.3609
  967loPI    C315459   3.423   7.026   4.379 -0.0344  0.3840 -0.1134
  967loPI   PO415460   3.578   7.412   4.862 -0.0536  0.1176 -0.0671
  967loPI   GL115461   3.962   7.455   5.228 -0.1960  0.0493  0.1231
  967loPI   GL215462   3.607   7.275   5.345 -0.2168 -0.1562 -0.1146
  967loPI   C1A15463   3.987   7.432   5.684  0.1418 -0.0760  0.0653
  967loPI   C2A15464   4.156   7.456   6.038  0.2985 -0.1368  0.0591
  967loPI   C3A15465   4.258   7.405   6.514 -0.0170  0.0229 -0.1187
  967loPI   C4A15466   4.254   7.256   6.970  0.0799 -0.1425 -0.1699
  967loPI   C5A15467   4.086   7.166   7.437 -0.1386  0.0728 -0.3453
  967loPI   C6A15468   3.974   6.780   7.594  0.0301 -0.1414 -0.1649
  967loPI   C1B15469   3.720   6.996   5.648 -0.0022  0.2424  0.0739
  967loPI   C2B15470   3.777   6.672   5.935 -0.1590  0.2994 -0.0196
  967loPI   C3B15471   3.716   6.588   6.364  0.0528 -0.2191  0.2430
  967loPI   C4B15472   3.832   6.472   6.769  0.1411  0.3500  0.4428
  968loPI    C115473  17.129  11.401   4.808  0.0965  0.2928 -0.1346
  968loPI    C215474  17.504  11.434   4.673  0.0798  0.1603 -0.2142
  968loPI    C315475  17.213  11.312   4.427  0.0171  0.0892 -0.1057
  968loPI   PO415476  17.143  11.285   4.963 -0.5393  0.2600 -0.2378
  968loPI   GL115477  17.134  11.293   5.419  0.0825 -0.2719 -0.3349
  968loPI   GL215478  17.083  11.056   5.654 -0.1299  0.1454 -0.0554
  968loPI   C1A15479  17.402  11.454   5.775 -0.0494 -0.0149  0.0165
  968loPI   C2A15480  17.402  11.495   6.209 -0.0205 -0.0797 -0.1107
  968loPI   C3A15481  17.494  11.524   6.635  0.0313  0.0745  0.1335
  968loPI   C4A15482  17.448  11.475   7.086 -0.0582  0.0313  0.1068
  968loPI   C5A15483  17.332  11.584   7.502  0.0135  0.2600  0.1335
  968loPI   C6A15484  17.236  11.458   7.775  0.1756 -0.1033 -0.0593
  968loPI   C1B15485  17.115  11.082   6.112 -0.2066 -0.3222  0.1350
  968loPI   C2B15486  17.039  11.137   6.526 -0.0052 -0.3336  0.2481
  968loPI   C3B15487  17.005  11.103   6.899  0.0956 -0.0507 -0.0157
  968loPI   C4B15488  16.906  11.179   7.313  0.0593  0.0134  0.0633
  969loPI    C115489   3.014  12.215   4.715  0.1492 -0.1148  0.1294
  969loPI    C215490   2.824  12.323   4.380  0.0094 -0.1996  0.1804
  969loPI    C315491   3.209  12.421   4.433 -0.0067 -0.0664  0.0563
  969loPI   PO415492   2.830  12.307   4.948 -0.0704  0.2623 -0.0684
  969loPI   GL115493   2.744  12.230   5.337 -0.1794 -0.0012  0.1680
  969loPI   GL215494   3.056  12.521   5.347 -0.3170  0.1572 -0.0774
  969loPI   C1A15495   2.663  12.117   5.791 -0.0162  0.0142  0.1070
  969loPI   C2A15496   2.628  12.001   6.169 -0.0742 -0.0356  0.2596
  969loPI   C3A15497   2.745  12.011   6.618  0.2795 -0.1184  0.1487
  969loPI   C4A15498   2.866  11.967   7.085  0.0449  0.4138  0.2294
  969loPI   C5A15499   2.715  11.733   7.432 -0.1157  0.0831  0.0391
  969loPI   C6A15500   2.391  11.792   7.734 -0.2442  0.0711  0.1947
  969loPI   C1B15501   2.766  12.631   5.674  0.0411 -0.0393 -0.2617
  969loPI   C2B15502   2.611  12.841   6.099  0.3428  0.0072 -0.0077
  969loPI   C3B15503   2.545  13.054   6.461 -0.1078 -0.0333  0.0303
  969loPI   C4B15504   2.633  13.170   6.904  0.0458  0.0334  0.0656
  970loPI    C115505   1.295   4.144   4.922  0.2386  0.4858  0.1820
  970loPI    C215506   1.192   4.177   4.537 -0.3136 -0.0781  0.2650
  970loPI    C315507   1.353   4.489   4.729 -0.2569  0.2871 -0.3508
  970loPI   PO415508   1.128   4.147   5.033 -0.0862  0.1156 -0.1612
  970loPI   GL115509   1.085   4.177   5.544 -0.3644  0.0842  0.1121
  970loPI   GL215510   1.375   3.930   5.385 -0.3112 -0.3885 -0.2983
  970loPI   C1A15511   0.805   3.940   5.864 -0.2064  0.3245  0.0081
  970loPI   C2A15512   0.913   3.862   6.287  0.1683  0.1604  0.0567
  970loPI   C3A15513   0.829   3.756   6.750  0.0550 -0.2312  0.3048
  970loPI   C4A15514   0.812   3.793   7.229 -0.2658  0.1073  0.1031
  970loPI   C5A15515   1.072   3.550   7.568  0.0698 -0.0316  0.0550
  970loPI   C6A15516   0.960   3.217   7.647  0.1333 -0.0293 -0.0153
  970loPI   C1B15517   1.289   3.745   5.760 -0.2481 -0.2367 -0.1459
  970loPI   C2B15518   1.393   3.746   6.197 -0.0448 -0.0030  0.2334
  970loPI   C3B15519   1.291   3.523   6.579  0.1528 -0.2813 -0.3488
  970loPI   C4B15520   1.275   3.106   6.738 -0.1639  0.0579 -0.3273
  971loPI    C115521  16.376  13.774   5.387  0.0238  0.0019 -0.0483
  971loPI    C215522  16.580  13.556   5.121 -0.0434  0.1284 -0.2049
  971loPI    C315523  16.672  13.942   5.177  0.0129  0.0861  0.0027
  971loPI   PO415524  16.385  13.576   5.605  0.4782  0.1981 -0.1801
  971loPI   GL115525  16.454  13.469   6.004 -0.0686 -0.1974 -0.0476
  971loPI   GL215526  16.636  13.173   5.889  0.0913  0.1002 -0.0870
  971loPI   C1A15527  16.881  13.598   6.126  0.1895 -0.0557 -0.1095
  971loPI   C2A15528  17.062  13.556   6.554 -0.0023  0.1099  0.0682
  971loPI   C3A15529  17.162  13.635   6.978  0.3450 -0.0819  0.1268
  971loPI   C4A15530  17.238  13.855   7.186 -0.0736 -0.0110  0.0630
  971loPI   C5A15531  17.261  14.107   7.608 -0.2765  0.2049  0.1214
  971loPI   C6A15532  17.295  14.234   8.026  0.0776 -0.0545 -0.0626
  971loPI   C1B15533  16.596  13.138   6.323  0.0086 -0.3797  0.2017
  971loPI   C2B15534  16.764  13.245   6.733 -0.0235  0.0791  0.2876
  971loPI   C3B15535  16.768  13.141   7.214 -0.1223  0.1612 -0.0053
  971loPI   C4B15536  16.764  13.238   7.677  0.0906  0.2784  0.2666
  972loPI    C115537  17.164  10.333   4.627  0.1499  0.1975 -0.1859
  972loPI    C215538  16.911  10.495   4.362  0.1687  0.2542 -0.1693
  972loPI    C315539  17.147  10.191   4.253 -0.1279 -0.0065 -0.0997
  972loPI   PO415540  17.009  10.416   4.950  0.1416 -0.0543 -0.0796
  972loPI   GL115541  17.177  10.440   5.440  0.1663 -0.2519 -0.0625
  972loPI   GL215542  16.974  10.235   5.451 -0.0248 -0.1320  0.3246
  972loPI   C1A15543  17.263  10.594   5.905 -0.0320  0.2314 -0.4788
  972loPI   C2A15544  17.203  10.544   6.290  0.1129  0.1601  0.1815
  972loPI   C3A15545  17.153  10.624   6.701  0.2576 -0.0027 -0.3462
  972loPI   C4A15546  17.143  10.662   7.196  0.1594  0.0344 -0.2301
  972loPI   C5A15547  17.003  10.683   7.615 -0.3209  0.0779  0.3555
  972loPI   C6A15548  16.597  10.687   7.803  0.3205 -0.1113  0.4860
  972loPI   C1B15549  16.936  10.241   5.890  0.2187 -0.3702  0.0469
  972loPI   C2B15550  16.762  10.312   6.258 -0.1830 -0.2368 -0.1435
  972loPI   C3B15551  16.759  10.344   6.640 -0.1091  0.0449 -0.1358
  972loPI   C4B15552  16.683  10.292   7.040  0.0362 -0.3235  0.0631
  973loPI    C115553  12.626  13.823   5.223 -0.1575 -0.2397 -0.3326
  973loPI    C215554  12.570  14.211   5.145 -0.1440 -0.2089 -0.1927
  973loPI    C315555  12.315  13.939   5.001 -0.1289 -0.1528 -0.3275
  973loPI   PO415556  12.600  13.811   5.405 -0.0349 -0.0147  0.1686
  973loPI   GL115557  12.299  13.648   5.732  0.0661 -0.0666  0.0531
  973loPI   GL215558  12.027  13.787   5.733 -0.1486  0.1640  0.2117
  973loPI   C1A15559  12.323  13.360   5.962 -0.0424 -0.0366  0.1196
  973loPI   C2A15560  12.187  13.327   6.388  0.2027 -0.1043 -0.0030
  973loPI   C3A15561  12.318  13.233   6.792 -0.1063  0.2849 -0.2204
  973loPI   C4A15562  12.389  13.079   7.183  0.1979  0.2754  0.2490
  973loPI   C5A15563  12.737  13.109   7.604 -0.1741  0.1161 -0.3367
  973loPI   C6A15564  12.986  13.249   7.830 -0.2468  0.1439  0.0387
  973loPI   C1B15565  12.062  13.769   6.141  0.1833 -0.1548 -0.1346
  973loPI   C2B15566  12.047  13.991   6.482 -0.0087 -0.4283 -0.2773
  973loPI   C3B15567  12.063  14.165   6.981  0.0059  0.0243  0.1939
  973loPI   C4B15568  11.971  14.227   7.463 -0.0230  0.2493  0.1775
  974loPI    C115569   0.513  14.727   5.022  0.2706 -0.0334  0.0177
  974loPI    C215570   0.512  14.329   5.068 -0.1968 -0.0397  0.0010
  974loPI    C315571   0.330  14.495   4.752 -0.0105  0.1903  0.0112
  974loPI   PO415572   0.512  14.785   5.219 -0.0234  0.3176 -0.0887
  974loPI   GL115573   0.387  15.156   5.540 -0.0123  0.1703  0.1907
  974loPI   GL215574   0.717  15.082   5.607  0.2166  0.0369  0.2484
  974loPI   C1A15575   0.219  15.444   5.929  0.2448 -0.0393  0.0658
  974loPI   C2A15576   0.105  15.824   6.089 -0.2464 -0.1977  0.1115
  974loPI   C3A15577   0.094  16.113   6.417  0.0867 -0.0615  0.1066
  974loPI   C4A15578   0.155  16.054   6.808  0.0343  0.2130 -0.3463
  974loPI   C5A15579   0.213  15.965   7.188 -0.0441  0.2677 -0.2708
  974loPI   C6A15580   0.066  16.170   7.577 -0.2533  0.0756 -0.1798
  974loPI   C1B15581   0.483  15.050   6.007  0.2424 -0.1694 -0.0245
  974loPI   C2B15582   0.287  15.178   6.334 -0.1479  0.0965 -0.3033
  974loPI   C3B15583   0.072  15.211   6.786 -0.3407 -0.1227  0.2535
  974loPI   C4B15584  -0.125  15.373   7.144 -0.0505  0.0206 -0.0079
  975loPI    C115585   8.222   6.298   4.839 -0.1362 -0.0661 -0.0263
  975loPI    C215586   8.585   6.333   4.673 -0.1285  0.0942  0.0233
  975loPI    C315587   8.368   6.002   4.612 -0.0245  0.0493 -0.1062
  975loPI   PO415588   8.226   6.356   5.141 -0.0137  0.3307 -0.2860
  975loPI   GL115589   8.490   6.267   5.531  0.0444 -0.0639  0.1153
  975loPI   GL215590   8.337   6.514   5.767  0.0244  0.1160 -0.0168
  975loPI   C1A15591   8.614   6.096   5.965  0.2788 -0.1036  0.1506
  975loPI   C2A15592   8.665   6.094   6.485 -0.0773 -0.0256 -0.0215
  975loPI   C3A15593   8.646   6.032   6.947  0.0604  0.0956 -0.2956
  975loPI   C4A15594   8.537   6.122   7.278  0.0953 -0.2067 -0.0631
  975loPI   C5A15595   8.419   5.972   7.689 -0.2828  0.1428  0.0320
  975loPI   C6A15596   8.519   5.971   8.111  0.1492  0.2010 -0.0066
  975loPI   C1B15597   8.290   6.381   6.249  0.0074 -0.3271  0.0324
  975loPI   C2B15598   8.220   6.388   6.676 -0.1915  0.1601 -0.0658
  975loPI   C3B15599   8.221   6.468   7.049  0.0622 -0.1130 -0.0831
  975loPI   C4B15600   7.999   6.392   7.471 -0.1125 -0.0088  0.1246
  976loPI    C115601  17.642   9.030   5.284 -0.0588 -0.0782 -0.0865
  976loPI    C215602  17.811   9.241   4.989  0.4709 -0.2758  0.0630
  976loPI    C315603  17.778   8.844   4.957 -0.2259 -0.2200 -0.0767
  976loPI   PO415604  17.786   9.244   5.486 -0.0036  0.1454  0.2409
  976loPI   GL115605  18.104   9.336   5.671  0.0095 -0.0537 -0.2397
  976loPI   GL215606  18.143   8.966   5.809  0.0843 -0.1708  0.2745
  976loPI   C1A15607  17.938   9.384   6.112 -0.0372 -0.2226  0.3773
  976loPI   C2A15608  17.871   9.448   6.562  0.0245  0.2433  0.2267
  976loPI   C3A15609  17.815   9.476   7.010  0.0545  0.0765  0.1127
  976loPI   C4A15610  17.679   9.524   7.418 -0.3177  0.0761  0.0229
  976loPI   C5A15611  17.571   9.303   7.700 -0.3646  0.1583  0.1733
  976loPI   C6A15612  17.231   9.044   7.678  0.3198 -0.0866  0.3069
  976loPI   C1B15613  18.067   8.879   6.213 -0.1548  0.2156 -0.3007
  976loPI   C2B15614  18.011   8.959   6.695  0.1535  0.0064  0.0864
  976loPI   C3B15615  17.819   8.897   7.050  0.2137  0.0346 -0.2825
  976loPI   C4B15616  17.723   8.857   7.517  0.2638 -0.1595 -0.1292
  977loPI    C115617  18.498   3.146   5.334 -0.2276  0.0816 -0.0235
  977loPI    C215618  18.283   3.032   5.017 -0.3367 -0.0207  0.0862
  977loPI    C315619  18.154   2.949   5.386 -0.1591  0.0074  0.1555
  977loPI   PO415620  18.607   3.322   5.349 -0.0573 -0.4174  0.2691
  977loPI   GL115621  18.697   3.414   5.737 -0.3840 -0.2259 -0.1489
  977loPI   GL215622  18.676   3.726   5.717 -0.2117  0.0984 -0.1061
  977loPI   C1A15623  18.901   3.150   6.068 -0.1084  0.0422  0.0330
  977loPI   C2A15624  19.151   3.023   6.470  0.0546 -0.1462  0.1448
  977loPI   C3A15625  19.217   3.005   6.919 -0.1024  0.3161  0.1293
  977loPI   C4A15626  19.032   2.897   7.297  0.1772 -0.1985  0.2742
  977loPI   C5A15627  18.843   2.879   7.698 -0.0194 -0.2179 -0.1645
  977loPI   C6A15628  18.998   2.944   8.085 -0.0652 -0.0946 -0.0591
  977loPI   C1B15629  18.768   3.744   6.108 -0.0162  0.1191 -0.1005
  977loPI   C2B15630  18.605   3.749   6.515 -0.1971 -0.0580 -0.1941
  977loPI   C3B15631  18.745   3.820   6.934  0.1214  0.2076  0.0882
  977loPI   C4B15632  18.944   3.826   7.376  0.3210 -0.0728 -0.1637
  978loPI    C115633   3.194  15.519   4.571 -0.1700  0.2312 -0.0239
  978loPI    C215634   3.381  15.281   4.309  0.2961  0.0780  0.4309
  978loPI    C315635   3.020  15.180   4.449  0.1745  0.0123  0.0802
  978loPI   PO415636   3.295  15.590   4.739 -0.0824  0.1163 -0.1991
  978loPI   GL115637   3.348  15.806   5.163  0.2390  0.2622 -0.0649
  978loPI   GL215638   3.292  15.450   5.226  0.2092 -0.1026  0.3142
  978loPI   C1A15639   3.514  15.751   5.680 -0.1277  0.0148  0.0589
  978loPI   C2A15640   3.536  15.660   6.097 -0.0845  0.0278  0.0175
  978loPI   C3A15641   3.586  15.540   6.598 -0.0690 -0.1549  0.0278
  978loPI   C4A15642   3.623  15.641   7.082  0.0283  0.2234 -0.0248
  978loPI   C5A15643   3.699  16.106   7.239  0.0397  0.0048 -0.3353
  978loPI   C6A15644   3.741  16.245   7.672 -0.0934  0.0005  0.0485
  978loPI   C1B15645   3.232  15.291   5.639  0.1528  0.1472 -0.1018
  978loPI   C2B15646   3.150  15.238   6.068  0.0822  0.1233 -0.0977
  978loPI   C3B15647   3.134  15.091   6.501  0.0057 -0.4701  0.2003
  978loPI   C4B15648   3.166  15.241   6.900 -0.4439  0.0246  0.0646
  979loPI    C115649   1.800   1.147   5.072 -0.0237 -0.0599  0.2749
  979loPI    C215650   1.544   1.434   4.962  0.3949  0.2581  0.0974
  979loPI    C315651   1.620   1.128   4.715 -0.0479 -0.0139  0.2845
  979loPI   PO415652   1.656   1.102   5.323 -0.0140 -0.0559  0.2381
  979loPI   GL115653   1.715   1.093   5.707 -0.0845 -0.3473  0.0536
  979loPI   GL215654   2.065   1.030   5.660 -0.2740  0.3463 -0.2852
  979loPI   C1A15655   1.990   1.478   5.774  0.0314 -0.2692 -0.1152
  979loPI   C2A15656   1.929   1.654   6.151  0.0916 -0.0436 -0.3031
  979loPI   C3A15657   1.833   1.898   6.402 -0.1052 -0.0721  0.1663
  979loPI   C4A15658   1.818   2.245   6.491 -0.1206  0.5301 -0.1130
  979loPI   C5A15659   1.906   2.402   6.873  0.0313  0.0550 -0.2013
  979loPI   C6A15660   2.308   2.396   7.206 -0.1359  0.0022 -0.2689
  979loPI   C1B15661   2.101   1.054   6.077  0.0796  0.0747 -0.1674
  979loPI   C2B15662   1.978   1.141   6.568  0.1943  0.3305 -0.1802
  979loPI   C3B15663   1.769   1.057   6.949  0.2704  0.1266 -0.2731
  979loPI   C4B15664   1.457   0.776   7.242 -0.1319  0.2076  0.2805
  980loPI    C115665  13.960  16.616   5.007 -0.0699  0.4114 -0.1215
  980loPI    C215666  14.359  16.632   5.034 -0.0580 -0.0159  0.0178
  980loPI    C315667  14.185  16.551   4.683 -0.0239  0.1648 -0.0417
  980loPI   PO415668  13.854  16.463   5.268  0.2616 -0.0198  0.1018
  980loPI   GL115669  13.644  16.366   5.608 -0.4077 -0.0062  0.1497
  980loPI   GL215670  13.906  16.044   5.586 -0.1206 -0.1968 -0.0519
  980loPI   C1A15671  13.636  16.246   6.116 -0.0302 -0.0437  0.1890
  980loPI   C2A15672  13.864  16.218   6.470  0.0811  0.0901 -0.3378
  980loPI   C3A15673  13.655  16.496   6.805  0.0407  0.2113  0.0550
  980loPI   C4A15674  13.395  16.677   7.060  0.0903 -0.0910 -0.4199
  980loPI   C5A15675  13.272  16.987   7.427  0.1939 -0.0880  0.1287
  980loPI   C6A15676  13.053  17.019   7.746  0.1883 -0.1905  0.1426
  980loPI   C1B15677  14.020  15.841   6.016  0.1528 -0.0331  0.2730
  980loPI   C2B15678  13.922  15.681   6.347 -0.0128  0.1408 -0.2556
  980loPI   C3B15679  14.113  15.701   6.768 -0.0907  0.0336 -0.0623
  980loPI   C4B15680  14.400  15.597   7.170 -0.1125 -0.0870  0.1219
  981loPI    C115681  18.065  18.368   4.624  0.1123  0.1522  0.1759
  981loPI    C215682  18.262  18.153   4.350 -0.1241 -0.0047  0.1263
  981loPI    C315683  18.203  18.544   4.293 -0.2269 -0.0488 -0.0785
  981loPI   PO415684  18.224  18.248   4.852 -0.0712  0.1177  0.1967
  981loPI   GL115685  18.199  18.136   5.257  0.1602 -0.2443  0.1566
  981loPI   GL215686  17.843  18.223   5.229  0.2574 -0.1510  0.1914
  981loPI   C1A15687  18.324  18.035   5.712 -0.1137 -0.3119 -0.0824
  981loPI   C2A15688  18.367  18.170   6.138 -0.3815 -0.0863  0.0545
  981loPI   C3A15689  18.494  18.107   6.549 -0.0810 -0.4252 -0.2399
  981loPI   C4A15690  18.458  18.202   7.006 -0.1210 -0.0539 -0.1680
  981loPI   C5A15691  18.629  18.046   7.371  0.2530 -0.1927 -0.1350
  981loPI   C6A15692  18.748  17.677   7.536  0.2430  0.3373 -0.1148
  981loPI   C1B15693  17.892  18.321   5.662 -0.2551 -0.1646 -0.0773
  981loPI   C2B15694  17.884  18.303   6.087 -0.3368  0.1759 -0.0006
  981loPI   C3B15695  17.986  18.289   6.412  0.1178  0.0576  0.0916
  981loPI   C4B15696  18.028  18.333   6.925  0.1063 -0.0249 -0.0148
  982loPI    C115697  15.901   6.867   5.481  0.0693  0.0922  0.0453
  982loPI    C215698  16.283   6.755   5.441  0.0028 -0.1432  0.0512
  982loPI    C315699  16.139   7.059   5.224  0.1920 -0.0549  0.0473
  982loPI   PO415700  15.830   6.834   5.738  0.0372 -0.1294  0.3647
  982loPI   GL115701  16.089   6.838   6.035 -0.0623 -0.0883  0.2033
  982loPI   GL215702  16.408   7.068   6.156 -0.0207  0.0423  0.2601
  982loPI   C1A15703  15.930   6.703   6.395  0.4295  0.1011  0.0168
  982loPI   C2A15704  15.857   6.699   6.886 -0.0701  0.0951 -0.0784
  982loPI   C3A15705  15.831   6.923   7.240  0.0229  0.0636 -0.0130
  982loPI   C4A15706  15.496   7.063   7.531  0.1252 -0.0393 -0.1446
  982loPI   C5A15707  15.240   6.767   7.814 -0.2395 -0.0507  0.1295
  982loPI   C6A15708  15.111   6.786   8.236 -0.0783 -0.1087  0.0781
  982loPI   C1B15709  16.162   7.127   6.572  0.1857  0.2085  0.1808
  982loPI   C2B15710  16.196   7.254   7.042  0.0396  0.1795 -0.4103
  982loPI   C3B15711  16.222   7.160   7.468  0.0517 -0.1761  0.1392
  982loPI   C4B15712  16.496   7.124   7.839  0.2084 -0.0332  0.0377
  983loPI    C115713  10.772   7.271   5.114 -0.0123 -0.0880  0.0548
  983loPI    C215714  10.973   7.514   4.868 -0.0264 -0.0521  0.0787
  983loPI    C315715  10.692   7.270   4.722 -0.2040  0.1424  0.0910
  983loPI   PO415716  10.832   7.221   5.392  0.1033  0.0146  0.1358
  983loPI   GL115717  10.814   7.005   5.696  0.0138 -0.3825  0.2011
  983loPI   GL215718  11.022   6.840   5.797  0.1137 -0.1619 -0.0164
  983loPI   C1A15719  10.855   7.158   6.125 -0.2766  0.0610  0.0170
  983loPI   C2A15720  10.875   6.991   6.517 -0.0812 -0.3031 -0.0377
  983loPI   C3A15721  10.786   6.806   6.873  0.1771 -0.2228 -0.1640
  983loPI   C4A15722  10.536   6.715   7.256 -0.0817 -0.2146  0.1772
  983loPI   C5A15723  10.742   6.620   7.589 -0.0824 -0.0148 -0.0184
  983loPI   C6A15724  11.168   6.494   7.641 -0.3824  0.0180  0.1771
  983loPI   C1B15725  11.090   6.631   6.132 -0.1406  0.0328  0.1174
  983loPI   C2B15726  11.223   6.586   6.509  0.0062  0.0842  0.0294
  983loPI   C3B15727  11.208   6.635   7.036 -0.1505 -0.0261 -0.2854
  983loPI   C4B15728  11.322   6.846   7.320 -0.0490 -0.0424  0.1046
  984loPI    C115729   6.119  15.995   3.912 -0.1794 -0.1194  0.0993
  984loPI    C215730   6.250  15.623   3.850 -0.0317 -0.0511 -0.0056
  984loPI    C315731   6.086  15.829   3.550  0.1325  0.0642 -0.0173
  984loPI   PO415732   6.152  15.999   4.222 -0.0461 -0.0232  0.0254
  984loPI   GL115733   6.340  15.989   4.708 -0.3110 -0.0548  0.2212
  984loPI   GL215734   6.129  15.757   4.785  0.3585 -0.0142 -0.2388
  984loPI   C1A15735   6.563  16.114   5.065  0.3084 -0.1162 -0.1603
  984loPI   C2A15736   6.672  16.355   5.371  0.1221  0.1464 -0.0085
  984loPI   C3A15737   6.888  16.568   5.743  0.0152  0.0436 -0.0574
  984loPI   C4A15738   6.884  16.623   6.197 -0.3456  0.0756 -0.4079
  984loPI   C5A15739   6.858  16.564   6.759 -0.0529 -0.0173  0.2140
  984loPI   C6A15740   6.852  16.403   7.074 -0.0080  0.3953 -0.2693
  984loPI   C1B15741   6.385  15.577   5.185 -0.0531 -0.4907 -0.0017
  984loPI   C2B15742   6.537  15.352   5.545  0.1806  0.5583 -0.0061
  984loPI   C3B15743   6.704  15.540   5.835  0.1418  0.0418 -0.0314
  984loPI   C4B15744   6.837  15.790   6.121 -0.1365  0.3926 -0.2242
  985loPI    C115745  13.310  18.331   4.825 -0.1091 -0.0911 -0.3320
  985loPI    C215746  13.692  18.394   4.723 -0.0848  0.1554 -0.0988
  985loPI    C315747  13.409  18.652   4.608 -0.1403  0.1252 -0.0310
  985loPI   PO415748  13.397  18.144   5.031 -0.1028  0.2538  0.1934
  985loPI   GL115749  13.417  18.025   5.395 -0.2018  0.1678 -0.2404
  985loPI   GL215750  13.517  18.357   5.526  0.0135  0.0234  0.2764
  985loPI   C1A15751  13.188  18.072   5.800 -0.0229  0.1174  0.1423
  985loPI   C2A15752  13.297  18.301   6.140  0.1073 -0.0746 -0.1022
  985loPI   C3A15753  13.350  18.202   6.577 -0.0901 -0.1946  0.1961
  985loPI   C4A15754  13.422  18.059   7.032 -0.2843  0.0933  0.1219
  985loPI   C5A15755  13.394  18.110   7.485 -0.2819 -0.2741  0.1896
  985loPI   C6A15756  13.402  17.906   7.827 -0.0873 -0.0561  0.0756
  985loPI   C1B15757  13.734  18.446   5.922 -0.0233  0.0899  0.0701
  985loPI   C2B15758  13.729  18.511   6.358 -0.1257 -0.1486 -0.0758
  985loPI   C3B15759  13.680  18.412   6.841  0.0927 -0.2184 -0.1508
  985loPI   C4B15760  13.772  18.433   7.233 -0.1472 -0.2815  0.2179
  986loPI    C115761   9.970   0.783   4.935  0.0885  0.3696 -0.0646
  986loPI    C215762   9.571   0.762   4.951  0.1157 -0.0380  0.2250
  986loPI    C315763   9.750   0.927   4.634 -0.2796  0.1005  0.0685
  986loPI   PO415764  10.047   0.566   5.000  0.1521  0.0534 -0.1425
  986loPI   GL115765   9.945   0.413   5.393 -0.0504  0.1286  0.0741
  986loPI   GL215766   9.649   0.496   5.457 -0.3917  0.2106 -0.0463
  986loPI   C1A15767  10.183   0.363   5.753 -0.3848 -0.0920  0.1476
  986loPI   C2A15768  10.374   0.278   6.183  0.1415 -0.2252 -0.0218
  986loPI   C3A15769  10.665   0.236   6.552 -0.2496  0.1071 -0.1695
  986loPI   C4A15770  10.690   0.479   7.035  0.1050 -0.0449  0.0732
  986loPI   C5A15771  10.466   0.842   7.316 -0.1070  0.3543  0.0347
  986loPI   C6A15772  10.702   1.079   7.584  0.2248 -0.1467 -0.0989
  986loPI   C1B15773   9.193   0.302   5.667 -0.3285 -0.2553  0.0668
  986loPI   C2B15774   8.822   0.453   5.833 -0.0892 -0.0017  0.1882
  986loPI   C3B15775   8.547   0.431   6.045  0.1854 -0.2519 -0.0511
  986loPI   C4B15776   8.625   0.380   6.590  0.1586 -0.0847 -0.0721
  987loPI    C115777  10.583   4.357   4.799 -0.1513  0.1465  0.0355
  987loPI    C215778  10.190   4.316   4.733 -0.1679  0.1322  0.1414
  987loPI    C315779  10.395   4.606   4.549 -0.1810 -0.0084 -0.0979
  987loPI   PO415780  10.629   4.378   5.021  0.0747 -0.0247 -0.3497
  987loPI   GL115781  10.764   4.533   5.336  0.0119  0.0384 -0.0570
  987loPI   GL215782  10.475   4.649   5.487 -0.1754  0.1527  0.4617
  987loPI   C1A15783  10.876   4.364   5.735 -0.2038 -0.1825 -0.1002
  987loPI   C2A15784  10.845   4.267   6.099 -0.2249  0.0203  0.3775
  987loPI   C3A15785  10.879   4.330   6.543 -0.2730 -0.0022  0.1469
  987loPI   C4A15786  10.748   4.206   6.964 -0.1535  0.2559  0.3540
  987loPI   C5A15787  10.531   3.924   7.294 -0.1540  0.0034  0.1712
  987loPI   C6A15788  10.177   3.755   7.408 -0.2306 -0.1527 -0.1060
  987loPI   C1B15789  10.428   4.617   5.849 -0.0251  0.1778 -0.0244
  987loPI   C2B15790  10.467   4.566   6.294 -0.1385 -0.0838 -0.0832
  987loPI   C3B15791  10.352   4.504   6.755  0.1350  0.0039 -0.0530
  987loPI   C4B15792  10.337   4.404   7.201  0.2467  0.2734 -0.0782
  988loPI    C115793  11.310   4.840   4.618  0.0873  0.0191  0.1181
  988loPI    C215794  11.413   5.140   4.375 -0.0877 -0.0006  0.0179
  988loPI    C315795  11.658   4.827   4.423 -0.0196  0.0380 -0.0760
  988loPI   PO415796  11.222   4.975   4.936  0.1416  0.2247  0.1420
  988loPI   GL115797  10.825   5.051   5.247  0.0587  0.0034  0.0747
  988loPI   GL215798  10.819   5.336   5.445  0.2624  0.0626  0.1880
  988loPI   C1A15799  10.913   4.889   5.648  0.0269 -0.2139  0.1915
  988loPI   C2A15800  10.895   4.734   5.995  0.2041 -0.1763  0.1524
  988loPI   C3A15801  10.928   4.814   6.315  0.0081 -0.1926 -0.0121
  988loPI   C4A15802  10.832   4.787   6.759  0.2716  0.2565 -0.1482
  988loPI   C5A15803  10.760   4.678   7.240 -0.0133  0.0327 -0.1950
  988loPI   C6A15804  10.819   4.320   7.494  0.0667 -0.2107  0.0338
  988loPI   C1B15805  10.954   5.400   5.846  0.0406 -0.0125 -0.2514
  988loPI   C2B15806  10.823   5.296   6.418  0.1440  0.1994  0.0309
  988loPI   C3B15807  10.759   5.365   6.871 -0.0203  0.0540 -0.2164
  988loPI   C4B15808  10.690   5.290   7.318 -0.0034 -0.0497  0.2158
  989loPI    C115809  16.210  12.185   5.404 -0.0114  0.0359 -0.0703
  989loPI    C215810  16.188  12.224   5.006 -0.1686  0.2241 -0.0444
  989loPI    C315811  16.455  11.974   5.168 -0.3193 -0.0953 -0.2789
  989loPI   PO415812  15.968  12.270   5.482  0.1107 -0.0822  0.1966
  989loPI   GL115813  15.691  12.090   5.758 -0.2035 -0.0372  0.2546
  989loPI   GL215814  15.540  11.922   5.845 -0.0056  0.0183 -0.2707
  989loPI   C1A15815  15.430  12.168   6.254  0.2217  0.2607  0.2834
  989loPI   C2A15816  15.508  12.098   6.742  0.0311  0.0759 -0.0763
  989loPI   C3A15817  15.398  12.212   7.074  0.2182  0.1129 -0.0199
  989loPI   C4A15818  15.292  12.094   7.466  0.2751  0.1680 -0.1389
  989loPI   C5A15819  15.220  12.174   7.854 -0.0892  0.0495  0.0360
  989loPI   C6A15820  14.922  12.160   8.131  0.2327  0.1438  0.0813
  989loPI   C1B15821  15.897  11.940   6.154 -0.0939 -0.0697 -0.1595
  989loPI   C2B15822  16.013  11.931   6.532  0.0482  0.2765 -0.1993
  989loPI   C3B15823  15.889  12.025   7.037 -0.0380 -0.1308  0.2407
  989loPI   C4B15824  15.824  11.878   7.393 -0.3458  0.2377 -0.5184
  990loPI    C115825   9.845   1.381   4.653 -0.0280  0.1218  0.0557
  990loPI    C215826  10.046   1.695   4.511  0.1727  0.0230  0.1178
  990loPI    C315827   9.967   1.384   4.273  0.0848  0.0655  0.0910
  990loPI   PO415828   9.958   1.339   4.941 -0.3089  0.1393 -0.2224
  990loPI   GL115829   9.918   1.266   5.308 -0.0501  0.0581  0.0001
  990loPI   GL215830   9.785   0.960   5.340  0.0696 -0.2860  0.4936
  990loPI   C1A15831  10.424   1.472   5.511 -0.0558 -0.2700 -0.1315
  990loPI   C2A15832  10.775   1.412   5.875  0.1411 -0.3376 -0.2018
  990loPI   C3A15833  10.978   1.688   6.112 -0.1647 -0.1062  0.1792
  990loPI   C4A15834  10.977   1.763   6.632  0.1958 -0.0841 -0.4001
  990loPI   C5A15835  11.033   1.831   7.052 -0.1540 -0.0196 -0.4971
  990loPI   C6A15836  11.183   1.854   7.498  0.2852  0.3339  0.0177
  990loPI   C1B15837   9.942   0.989   5.757  0.1730  0.1029 -0.0776
  990loPI   C2B15838  10.085   0.798   6.182  0.0398 -0.1439  0.2276
  990loPI   C3B15839   9.985   0.680   6.629 -0.1799 -0.1139 -0.0802
  990loPI   C4B15840  10.024   0.756   7.073  0.1528  0.0470 -0.1800
  991loPI    C115841   3.670  11.990   4.915 -0.0634  0.1433  0.0600
  991loPI    C215842   4.007  11.976   4.701  0.0665 -0.2179  0.2777
  991loPI    C315843   3.690  12.175   4.561  0.3300  0.0314  0.0183
  991loPI   PO415844   3.692  11.942   5.146 -0.1695 -0.0764  0.0974
  991loPI   GL115845   3.523  11.901   5.536 -0.2806 -0.1830  0.2000
  991loPI   GL215846   3.366  12.096   5.519  0.1202  0.1743  0.0820
  991loPI   C1A15847   3.602  11.793   5.925 -0.0564  0.2094  0.0177
  991loPI   C2A15848   3.569  11.933   6.350  0.1153 -0.0756  0.1439
  991loPI   C3A15849   3.623  12.071   6.768 -0.2800 -0.1014 -0.0697
  991loPI   C4A15850   3.830  12.440   6.891  0.0917  0.0500  0.1088
  991loPI   C5A15851   3.908  12.427   7.257  0.3551 -0.3068  0.1578
  991loPI   C6A15852   4.151  12.426   7.536  0.0496 -0.0597 -0.0735
  991loPI   C1B15853   3.191  12.409   5.822  0.2581  0.1967 -0.0889
  991loPI   C2B15854   3.290  12.393   6.259 -0.1567 -0.2669 -0.0241
  991loPI   C3B15855   3.158  12.274   6.600 -0.1396 -0.5073  0.1883
  991loPI   C4B15856   3.238  12.262   7.040 -0.0428  0.2775  0.1082
  992loPI    C115857  17.879  17.870   4.932 -0.0202  0.0731  0.0627
  992loPI    C215858  17.617  17.649   4.726  0.0558 -0.0092  0.0537
  992loPI    C315859  17.899  17.857   4.533  0.1908 -0.1669  0.0789
  992loPI   PO415860  17.989  17.727   5.051  0.0156 -0.2348 -0.0698
  992loPI   GL115861  18.104  17.643   5.343 -0.2086  0.2162  0.0235
  992loPI   GL215862  18.422  17.647   5.314 -0.0413 -0.1040 -0.3668
  992loPI   C1A15863  18.011  17.635   5.811 -0.0408 -0.0801  0.0260
  992loPI   C2A15864  17.982  17.829   6.125 -0.0007  0.3131  0.2230
  992loPI   C3A15865  18.087  17.811   6.463  0.0523 -0.5541 -0.3756
  992loPI   C4A15866  18.130  17.826   6.903 -0.0604 -0.0353  0.2948
  992loPI   C5A15867  18.033  17.976   7.395  0.1203  0.0612 -0.0890
  992loPI   C6A15868  17.815  18.009   7.848  0.0889 -0.0775  0.0431
  992loPI   C1B15869  18.548  17.529   5.718  0.0049  0.0982  0.1726
  992loPI   C2B15870  18.497  17.664   6.121  0.1022 -0.2755 -0.0464
  992loPI   C3B15871  18.619  17.600   6.555  0.3451 -0.1248  0.3565
  992loPI   C4B15872  18.559  17.662   7.043 -0.0476  0.2207  0.0720
  993loPI    C115873  17.790  12.811   4.861  0.2852 -0.0532 -0.0165
  993loPI    C215874  17.611  12.770   4.506  0.0548 -0.2115  0.1146
  993loPI    C315875  17.815  13.103   4.590 -0.1373 -0.0478 -0.0574
  993loPI   PO415876  17.617  12.671   5.004  0.0552 -0.0810  0.0662
  993loPI   GL115877  17.751  12.467   5.368  0.2996 -0.0606 -0.3203
  993loPI   GL215878  18.065  12.394   5.385  0.1222  0.0486 -0.1782
  993loPI   C1A15879  17.789  12.252   5.731  0.4650  0.4320  0.1238
  993loPI   C2A15880  17.676  12.306   6.120 -0.1683 -0.2343 -0.2317
  993loPI   C3A15881  17.748  12.354   6.513  0.3587 -0.1943 -0.1484
  993loPI   C4A15882  17.864  12.357   6.958 -0.3147 -0.2158  0.0058
  993loPI   C5A15883  17.727  12.336   7.406  0.3286  0.1587 -0.1377
  993loPI   C6A15884  17.547  12.536   7.637 -0.1875  0.2431  0.2744
  993loPI   C1B15885  18.201  12.594   5.748  0.1790  0.4155 -0.0520
  993loPI   C2B15886  18.366  12.967   5.911 -0.1670  0.2036 -0.0678
  993loPI   C3B15887  18.673  13.044   6.183 -0.4007 -0.0456 -0.0599
  993loPI   C4B15888  18.592  12.997   6.652  0.0227 -0.2690 -0.2172
  994loPI    C115889   3.897   3.950   4.472 -0.0783  0.2259 -0.0155
  994loPI    C215890   4.186   3.764   4.268 -0.0991  0.1434  0.0300
  994loPI    C315891   3.831   3.831   4.096 -0.0629  0.2186 -0.0159
  994loPI   PO415892   3.906   3.948   4.665 -0.2166  0.3912 -0.0827
  994loPI   GL115893   4.037   3.970   5.016  0.1527  0.2084  0.1800
  994loPI   GL215894   3.749   4.036   5.143  0.1877 -0.3059  0.1137
  994loPI   C1A15895   4.105   3.819   5.429 -0.2386 -0.1283  0.1342
  994loPI   C2A15896   4.086   3.723   5.881 -0.1040 -0.5153  0.1870
  994loPI   C3A15897   4.122   3.647   6.348 -0.2861  0.0041 -0.0836
  994loPI   C4A15898   4.182   3.610   6.802 -0.0020 -0.1028  0.2207
  994loPI   C5A15899   4.339   3.632   7.287  0.2699 -0.2330  0.0326
  994loPI   C6A15900   4.806   3.769   7.439  0.0878 -0.1838 -0.1322
  994loPI   C1B15901   3.686   4.018   5.617 -0.2212 -0.2194 -0.0003
  994loPI   C2B15902   3.733   4.057   6.062  0.0446  0.4046 -0.2122
  994loPI   C3B15903   3.688   3.886   6.399  0.1180  0.0857 -0.0448
  994loPI   C4B15904   3.744   3.895   6.829  0.3534  0.1253 -0.1053
  995loPI    C115905   4.004   3.447   4.644  0.1230  0.1945  0.0722
  995loPI    C215906   3.751   3.439   4.334 -0.0268  0.0480  0.1963
  995loPI    C315907   4.101   3.246   4.312  0.1153  0.3218 -0.0078
  995loPI   PO415908   3.885   3.459   4.824  0.3249 -0.1342  0.2928
  995loPI   GL115909   3.840   3.177   5.170 -0.2520  0.0071  0.0214
  995loPI   GL215910   3.979   2.945   5.195 -0.0417 -0.0636  0.0184
  995loPI   C1A15911   3.985   3.241   5.614 -0.1577 -0.0811 -0.1225
  995loPI   C2A15912   4.080   3.259   6.072 -0.0975 -0.1538 -0.2558
  995loPI   C3A15913   4.072   3.176   6.583  0.0603  0.1745 -0.0164
  995loPI   C4A15914   4.194   3.049   7.027 -0.4132  0.0161 -0.0983
  995loPI   C5A15915   4.537   3.195   7.341 -0.0732  0.3160 -0.2460
  995loPI   C6A15916   4.652   3.375   7.656  0.0555 -0.1142 -0.1144
  995loPI   C1B15917   4.043   2.784   5.616 -0.3604  0.0140 -0.0125
  995loPI   C2B15918   4.121   2.727   6.096  0.1117  0.5193  0.0937
  995loPI   C3B15919   3.989   2.623   6.477 -0.0184  0.0769  0.1321
  995loPI   C4B15920   4.050   2.291   6.689  0.1332 -0.0556  0.2059
  996loPI    C115921  12.151  12.207   4.994 -0.3509  0.3006 -0.0889
  996loPI    C215922  12.368  12.500   4.831  0.1455 -0.0855 -0.1469
  996loPI    C315923  12.235  12.200   4.603 -0.1117 -0.0575 -0.0366
  996loPI   PO415924  12.081  12.247   5.155 -0.1970  0.0796  0.2357
  996loPI   GL115925  12.054  12.051   5.601 -0.1123 -0.0962  0.0549
  996loPI   GL215926  12.201  12.272   5.629 -0.2319 -0.0101  0.1669
  996loPI   C1A15927  11.957  11.994   6.000  0.0165  0.0987 -0.4364
  996loPI   C2A15928  11.905  11.960   6.409  0.0491 -0.0693 -0.2287
  996loPI   C3A15929  11.850  12.124   6.883  0.1585 -0.0134 -0.0361
  996loPI   C4A15930  11.820  12.060   7.384  0.0217 -0.2625 -0.0666
  996loPI   C5A15931  11.653  11.886   7.711  0.0746  0.3012  0.2095
  996loPI   C6A15932  11.283  11.998   7.899 -0.1387 -0.1650 -0.1124
  996loPI   C1B15933  12.268  12.431   6.055  0.2129 -0.0766  0.0673
  996loPI   C2B15934  12.121  12.400   6.524  0.0050  0.0029 -0.0298
  996loPI   C3B15935  12.168  12.455   6.978  0.0371 -0.1865  0.2996
  996loPI   C4B15936  12.284  12.212   7.322  0.0314  0.2060 -0.0558
  997loPI    C115937   3.423   1.662   4.898 -0.1320  0.0167  0.1746
  997loPI    C215938   3.390   1.292   4.752  0.1281  0.0392  0.0535
  997loPI    C315939   3.254   1.603   4.541  0.2720  0.0482 -0.0279
  997loPI   PO415940   3.662   1.640   4.989 -0.2350 -0.0165 -0.0843
  997loPI   GL115941   3.907   1.758   5.281  0.0636  0.0848  0.0983
  997loPI   GL215942   3.743   1.397   5.390  0.3633  0.2317  0.0217
  997loPI   C1A15943   4.188   1.757   5.600 -0.3018 -0.1336  0.0205
  997loPI   C2A15944   4.340   1.877   5.992  0.0890  0.1045  0.1288
  997loPI   C3A15945   4.380   1.868   6.452 -0.2433 -0.3425  0.0624
  997loPI   C4A15946   4.219   1.891   6.891 -0.3031  0.0443  0.3015
  997loPI   C5A15947   3.952   1.687   7.226 -0.0002 -0.1055  0.0062
  997loPI   C6A15948   3.557   1.851   7.425 -0.0071  0.0882 -0.0086
  997loPI   C1B15949   3.767   1.454   5.843  0.0977  0.1383 -0.2574
  997loPI   C2B15950   3.882   1.369   6.286 -0.0447  0.2524  0.0835
  997loPI   C3B15951   3.749   1.003   6.457 -0.0386 -0.0979  0.1372
  997loPI   C4B15952   3.630   1.016   6.876  0.1542 -0.1965  0.0919
  998loPI    C115953   8.142  12.710   4.729  0.1525  0.1854 -0.0772
  998loPI    C215954   8.145  12.424   4.449 -0.2767 -0.0496  0.1472
  998loPI    C315955   8.036  12.796   4.353  0.0688 -0.0075 -0.0994
  998loPI   PO415956   8.351  12.592   4.925 -0.1159  0.0678  0.0429
  998loPI   GL115957   8.296  12.350   5.293  0.2791  0.0617  0.2427
  998loPI   GL215958   8.544  12.271   5.255  0.4258  0.1783 -0.0568
  998loPI   C1A15959   8.122  12.492   5.582  0.0438  0.0610  0.2252
  998loPI   C2A15960   8.190  12.754   5.988  0.2337  0.1283  0.0516
  998loPI   C3A15961   8.087  12.825   6.402 -0.3523  0.2151 -0.1046
  998loPI   C4A15962   8.145  12.828   6.832  0.0316 -0.0902  0.0005
  998loPI   C5A15963   8.129  12.878   7.231  0.2699  0.0221 -0.2046
  998loPI   C6A15964   8.018  12.635   7.576 -0.2687  0.2056  0.2179
  998loPI   C1B15965   8.756  12.227   5.610 -0.2782 -0.0103 -0.3181
  998loPI   C2B15966   8.847  12.268   6.046 -0.3091 -0.0191 -0.0828
  998loPI   C3B15967   8.840  12.243   6.463  0.1074  0.0900 -0.0358
  998loPI   C4B15968   8.813  12.376   6.947 -0.0307  0.1478 -0.2936
  999loPI    C115969   4.238  18.155   4.367  0.0561  0.2632  0.0461
  999loPI    C215970   3.946  18.283   4.125 -0.0835 -0.0216  0.0595
  999loPI    C315971   4.274  18.114   3.970 -0.1216 -0.0991  0.0632
  999loPI   PO415972   4.026  18.265   4.590  0.2856  0.2960 -0.2745
  999loPI   GL115973   3.944  18.293   4.995  0.0250  0.1979 -0.0914
  999loPI   GL215974   3.738  18.312   5.018 -0.1519  0.1150 -0.0250
  999loPI   C1A15975   4.241  18.303   5.392 -0.2396  0.1164  0.0160
  999loPI   C2A15976   4.328  18.318   5.870 -0.1138 -0.1615 -0.1695
  999loPI   C3A15977   4.240  18.235   6.283  0.0983 -0.3277  0.1418
  999loPI   C4A15978   4.191  18.225   6.693  0.1065 -0.0372 -0.1394
  999loPI   C5A15979   3.955  18.188   7.137  0.0838  0.2422 -0.3535
  999loPI   C6A15980   3.557  18.559   7.317 -0.0145 -0.2624 -0.0588
  999loPI   C1B15981   3.766  18.391   5.476  0.2198  0.1610  0.3237
  999loPI   C2B15982   3.693  18.385   5.928 -0.0670 -0.1216 -0.0326
  999loPI   C3B15983   3.696  18.349   6.378 -0.0967 -0.0760 -0.0949
  999loPI   C4B15984   3.641  18.411   6.827 -0.0585  0.0239  0.2455
 1000loPI    C115985   9.458  13.592   4.626 -0.1082 -0.0762  0.1600
 1000loPI    C215986   9.407  13.244   4.816 -0.0148 -0.1209  0.1039
 1000loPI    C315987   9.692  13.280   4.538 -0.0269 -0.0005  0.1067
 1000loPI   PO415988   9.321  13.776   4.922  0.0484 -0.3356 -0.5594
 1000loPI   GL115989   9.099  13.505   5.150  0.2983 -0.2870  0.0518
 1000loPI   GL215990   9.002  13.242   5.152 -0.0034  0.1377 -0.3399
 1000loPI   C1A15991   9.168  13.569   5.664 -0.2449  0.1240 -0.0461
 1000loPI   C2A15992   9.208  13.566   6.085 -0.0277  0.3097 -0.0053
 1000loPI   C3A15993   9.290  13.672   6.528 -0.0691 -0.1067 -0.0670
 1000loPI   C4A15994   9.146  13.708   6.831 -0.2072 -0.0331  0.0126
 1000loPI   C5A15995   9.255  13.622   7.289  0.1341  0.2347 -0.2392
 1000loPI   C6A15996   9.431  13.396   7.621 -0.2515 -0.1706 -0.1775
 1000loPI   C1B15997   8.951  13.084   5.630  0.0240 -0.3932  0.2222
 1000loPI   C2B15998   8.951  13.190   5.946  0.2405 -0.0591 -0.1472
 1000loPI   C3B15999   9.025  13.162   6.398 -0.0052  0.2010  0.1599
 1000loPI   C4B16000   8.954  13.189   6.804 -0.2207  0.1530 -0.0693
 1001loPI    C116001  17.034   9.910   4.921 -0.0516  0.2381  0.1136
 1001loPI    C216002  16.643   9.833   4.953 -0.0403  0.0183 -0.2324
 1001loPI    C316003  16.778  10.060   4.653  0.0670  0.3549  0.0646
 1001loPI   PO416004  17.144   9.832   5.155  0.1212 -0.0768  0.1793
 1001loPI   GL116005  17.234   9.876   5.599 -0.3171  0.2079  0.1918
 1001loPI   GL216006  17.370  10.101   5.764  0.0720 -0.1451  0.0849
 1001loPI   C1A16007  16.979   9.751   5.943 -0.1553 -0.0495 -0.1594
 1001loPI   C2A16008  16.917   9.843   6.407  0.0381  0.1440 -0.0465
 1001loPI   C3A16009  16.876   9.805   6.870  0.0891 -0.0746  0.0424
 1001loPI   C4A16010  16.805   9.935   7.357 -0.0751  0.0368 -0.2781
 1001loPI   C5A16011  16.582  10.215   7.619  0.0914  0.2274 -0.2263
 1001loPI   C6A16012  16.424  10.254   8.026  0.0063  0.2319  0.0852
 1001loPI   C1B16013  17.350  10.010   6.225 -0.0991 -0.1616 -0.0368
 1001loPI   C2B16014  17.268  10.142   6.658  0.0199  0.0472 -0.1260
 1001loPI   C3B16015  17.192  10.149   7.077  0.1633  0.0131 -0.0667
 1001loPI   C4B16016  17.168  10.244   7.517 -0.0671  0.2080  0.0526
 1002loPI    C116017  10.535  12.831   4.822  0.1094  0.1611 -0.0758
 1002loPI    C216018  10.713  12.484   4.737 -0.2003 -0.0127 -0.0302
 1002loPI    C316019  10.501  12.673   4.456 -0.3886 -0.0793  0.0657
 1002loPI   PO416020  10.551  12.750   5.120 -0.0699  0.0401 -0.3269
 1002loPI   GL116021  10.489  12.547   5.586 -0.2172  0.1665  0.0108
 1002loPI   GL216022  10.225  12.583   5.726 -0.0127 -0.0131 -0.0189
 1002loPI   C1A16023  10.733  12.580   5.976  0.0142 -0.2054 -0.2050
 1002loPI   C2A16024  10.662  12.667   6.433  0.2047 -0.1446 -0.1873
 1002loPI   C3A16025  10.641  12.569   6.798 -0.2024  0.0954 -0.0143
 1002loPI   C4A16026  10.541  12.552   7.229  0.1754 -0.1619  0.1473
 1002loPI   C5A16027  10.602  12.419   7.654 -0.1549 -0.0549  0.0366
 1002loPI   C6A16028  10.809  12.344   8.040  0.2716 -0.0774  0.2198
 1002loPI   C1B16029  10.195  12.675   6.105  0.2916 -0.1694 -0.1967
 1002loPI   C2B16030  10.203  12.689   6.566 -0.0465 -0.2684 -0.2137
 1002loPI   C3B16031  10.171  12.720   6.964 -0.1826  0.1320  0.0387
 1002loPI   C4B16032  10.039  12.584   7.415 -0.1749 -0.3474 -0.1800
 1003loPI    C116033   9.451  10.881   5.291  0.0913  0.0900  0.1092
 1003loPI    C216034   9.601  11.100   4.992 -0.0538 -0.1405 -0.1381
 1003loPI    C316035   9.726  10.724   5.046  0.0413 -0.0702  0.1543
 1003loPI   PO416036   9.452  11.011   5.462 -0.2068  0.1034  0.0327
 1003loPI   GL116037   9.232  10.932   5.903  0.4422  0.0333  0.1070
 1003loPI   GL216038   8.968  10.763   5.751 -0.1834  0.1213  0.0511
 1003loPI   C1A16039   9.399  10.622   6.115 -0.1010 -0.0750  0.2969
 1003loPI   C2A16040   9.376  10.488   6.495 -0.2148  0.2257  0.1686
 1003loPI   C3A16041   9.232  10.503   6.906  0.0150 -0.0923 -0.1774
 1003loPI   C4A16042   9.230  10.473   7.379  0.0454 -0.2069 -0.0473
 1003loPI   C5A16043   9.158  10.195   7.740  0.2615  0.2211  0.0294
 1003loPI   C6A16044   8.959  10.163   8.121  0.1028 -0.1872  0.0554
 1003loPI   C1B16045   8.859  10.752   6.194  0.1459 -0.0594 -0.0046
 1003loPI   C2B16046   9.154  10.962   6.413  0.0391  0.3612 -0.2890
 1003loPI   C3B16047   9.699  11.001   6.463  0.2254 -0.0509  0.2052
 1003loPI   C4B16048   9.840  11.366   6.384  0.1231  0.2950 -0.1275
 1004loPI    C116049  13.047  10.330   5.434 -0.1305  0.1817  0.2693
 1004loPI    C216050  13.250  10.665   5.517  0.2877  0.0189 -0.0624
 1004loPI    C316051  13.141  10.585   5.140 -0.1524 -0.0356  0.0711
 1004loPI   PO416052  13.206  10.170   5.468  0.0813  0.3416 -0.3112
 1004loPI   GL116053  13.348  10.201   5.853 -0.0485  0.2115 -0.0428
 1004loPI   GL216054  12.955  10.131   5.922 -0.1827  0.0291  0.0766
 1004loPI   C1A16055  13.216  10.631   5.992 -0.0432 -0.2080 -0.0209
 1004loPI   C2A16056  13.296  10.755   6.502 -0.1374 -0.1787 -0.0856
 1004loPI   C3A16057  13.404  11.097   6.643  0.1652  0.1911  0.0059
 1004loPI   C4A16058  13.791  11.236   6.935 -0.0630 -0.1047  0.2697
 1004loPI   C5A16059  14.131  11.250   7.139  0.1182 -0.0624 -0.0322
 1004loPI   C6A16060  14.296  11.060   7.529  0.0891  0.0180  0.2768
 1004loPI   C1B16061  13.187  10.265   6.329 -0.2383  0.3727  0.3376
 1004loPI   C2B16062  13.461  10.334   6.724  0.0713  0.0224 -0.0250
 1004loPI   C3B16063  13.523  10.585   7.067 -0.1068  0.0078 -0.0589
 1004loPI   C4B16064  13.448  10.960   7.178  0.2761  0.0459  0.1743
 1005loPI    C116065   7.191   6.771   4.924  0.0092  0.1817 -0.1155
 1005loPI    C216066   6.824   6.907   5.006  0.1204  0.4410 -0.0376
 1005loPI    C316067   7.067   7.118   4.769  0.1229  0.1352 -0.3146
 1005loPI   PO416068   7.316   6.714   5.220 -0.0366  0.0168  0.0093
 1005loPI   GL116069   7.504   6.453   5.441 -0.0036 -0.0188 -0.5325
 1005loPI   GL216070   7.778   6.424   5.510  0.1355 -0.0746 -0.2280
 1005loPI   C1A16071   7.329   6.501   5.846 -0.0350  0.1906  0.0009
 1005loPI   C2A16072   7.316   6.395   6.196  0.1041 -0.0183 -0.0036
 1005loPI   C3A16073   7.250   6.383   6.530 -0.0559  0.0172 -0.2351
 1005loPI   C4A16074   7.291   6.367   6.988  0.0123 -0.0411  0.2324
 1005loPI   C5A16075   7.331   6.427   7.430 -0.4232 -0.4645 -0.0017
 1005loPI   C6A16076   7.633   6.605   7.733 -0.2056 -0.1621 -0.0520
 1005loPI   C1B16077   7.692   6.130   5.773  0.3034 -0.0167  0.0106
 1005loPI   C2B16078   7.361   5.901   6.083 -0.0060 -0.1137  0.0443
 1005loPI   C3B16079   7.367   5.894   6.526 -0.3969 -0.1549 -0.1096
 1005loPI   C4B16080   7.268   5.829   6.996 -0.1965 -0.1026  0.0358
 1006loPI    C116081  15.620   4.658   4.891  0.0968  0.1115  0.1405
 1006loPI    C216082  15.947   4.793   4.705  0.1591 -0.0012  0.1677
 1006loPI    C316083  15.622   5.025   4.731  0.0571 -0.0807 -0.3148
 1006loPI   PO416084  15.722   4.699   5.213  0.1418  0.2495  0.1744
 1006loPI   GL116085  15.879   4.541   5.563  0.0878 -0.1496 -0.1048
 1006loPI   GL216086  15.742   4.786   5.761  0.0053 -0.0459  0.1632
 1006loPI   C1A16087  15.853   4.340   5.954  0.0601 -0.0654  0.1632
 1006loPI   C2A16088  15.835   4.252   6.345 -0.0320 -0.0273 -0.3285
 1006loPI   C3A16089  15.757   4.186   6.768 -0.2275 -0.1779 -0.2061
 1006loPI   C4A16090  15.785   4.184   7.202  0.1173  0.0421  0.2979
 1006loPI   C5A16091  15.947   4.245   7.614  0.0780  0.1383  0.1954
 1006loPI   C6A16092  16.333   3.975   7.852 -0.1070  0.1289  0.1420
 1006loPI   C1B16093  15.708   4.753   6.223  0.0433 -0.2244 -0.0686
 1006loPI   C2B16094  15.636   4.762   6.663  0.0634  0.2262  0.0925
 1006loPI   C3B16095  15.638   4.719   7.091  0.2058 -0.1401  0.1141
 1006loPI   C4B16096  15.736   4.758   7.477 -0.1857 -0.0717 -0.0222
 1007loPI    C116097   4.203   2.460   4.696 -0.0394 -0.1469  0.1555
 1007loPI    C216098   3.828   2.422   4.562 -0.0148  0.2233 -0.0297
 1007loPI    C316099   4.091   2.647   4.361  0.3547 -0.1605  0.0112
 1007loPI   PO416100   4.115   2.490   4.957  0.0661 -0.0033  0.0133
 1007loPI   GL116101   4.413   2.646   5.280 -0.0349 -0.2473  0.1695
 1007loPI   GL216102   4.454   2.995   5.412  0.0634 -0.2284 -0.1109
 1007loPI   C1A16103   4.513   2.570   5.649 -0.0781  0.1863  0.1525
 1007loPI   C2A16104   4.874   2.658   5.911 -0.0230  0.0433 -0.0642
 1007loPI   C3A16105   4.956   2.622   6.253 -0.1929  0.3296  0.1080
 1007loPI   C4A16106   4.968   2.563   6.614  0.0440  0.1619  0.1857
 1007loPI   C5A16107   5.021   2.477   7.019  0.1993  0.1867  0.0134
 1007loPI   C6A16108   4.751   2.651   7.349  0.0949  0.0424  0.4324
 1007loPI   C1B16109   4.503   2.980   5.860  0.0164 -0.1778 -0.1035
 1007loPI   C2B16110   4.517   2.913   6.251 -0.1518  0.3322  0.0240
 1007loPI   C3B16111   4.517   2.867   6.624 -0.0402 -0.1426 -0.1483
 1007loPI   C4B16112   4.400   2.527   7.000 -0.1502  0.2570  0.2880
 1008loPI    C116113   2.136   3.507   4.727  0.1488  0.1566 -0.1202
 1008loPI    C216114   1.866   3.651   4.469 -0.1251 -0.1766 -0.0270
 1008loPI    C316115   2.166   3.421   4.337 -0.0361 -0.0213 -0.0971
 1008loPI   PO416116   2.074   3.420   5.004 -0.2815 -0.0488 -0.1847
 1008loPI   GL116117   2.132   3.361   5.479  0.0728  0.2283  0.0032
 1008loPI   GL216118   2.027   3.032   5.558 -0.1441 -0.2975  0.2341
 1008loPI   C1A16119   2.258   3.657   5.804 -0.1649  0.0498 -0.1267
 1008loPI   C2A16120   2.318   3.605   6.193 -0.0171  0.3498 -0.0919
 1008loPI   C3A16121   2.363   3.662   6.519  0.1051  0.3359  0.1807
 1008loPI   C4A16122   1.976   3.750   6.740  0.0429 -0.0609 -0.1506
 1008loPI   C5A16123   1.542   3.835   6.899  0.0481 -0.0557 -0.0288
 1008loPI   C6A16124   1.240   3.539   7.029 -0.2633  0.1849  0.0242
 1008loPI   C1B16125   1.880   2.865   5.834  0.0316  0.1192  0.4321
 1008loPI   C2B16126   1.763   2.923   6.272  0.2080  0.2040 -0.2057
 1008loPI   C3B16127   1.771   2.911   6.731 -0.2704 -0.0488  0.0346
 1008loPI   C4B16128   1.675   3.260   6.975  0.0084  0.5274  0.0573
 1009loPI    C116129  16.540   1.099   5.160 -0.0182 -0.0500  0.0545
 1009loPI    C216130  16.811   1.094   4.867 -0.0724  0.0306  0.0024
 1009loPI    C316131  16.434   1.202   4.788 -0.0936  0.0262  0.0964
 1009loPI   PO416132  16.572   1.296   5.389  0.0111 -0.2301  0.1379
 1009loPI   GL116133  16.399   1.158   5.754  0.0382  0.1707  0.3081
 1009loPI   GL216134  16.242   0.908   5.530  0.0728 -0.0667 -0.0660
 1009loPI   C1A16135  16.275   1.035   6.135  0.0812 -0.0720 -0.0452
 1009loPI   C2A16136  16.252   1.029   6.621  0.0062  0.0803  0.1604
 1009loPI   C3A16137  16.407   1.188   6.971  0.0545 -0.0391 -0.0108
 1009loPI   C4A16138  16.505   1.031   7.360 -0.1566 -0.1690  0.1255
 1009loPI   C5A16139  16.578   0.626   7.660 -0.0968  0.2004  0.0045
 1009loPI   C6A16140  16.729   0.450   8.117  0.1178  0.0237  0.5388
 1009loPI   C1B16141  16.267   0.605   5.824  0.0962 -0.2101  0.0670
 1009loPI   C2B16142  16.257   0.521   6.330  0.0875 -0.0621  0.2579
 1009loPI   C3B16143  16.410   0.557   6.814  0.0991 -0.0290  0.1319
 1009loPI   C4B16144  16.551   0.600   7.168 -0.0283  0.4302  0.1443
 1010loPI    C116145   1.102   1.067   4.636 -0.2061 -0.1347 -0.1424
 1010loPI    C216146   1.025   1.409   4.444 -0.0336  0.0478  0.1057
 1010loPI    C316147   1.320   1.171   4.317 -0.0393  0.0770  0.0370
 1010loPI   PO416148   1.107   1.195   4.950  0.3849 -0.1649  0.2990
 1010loPI   GL116149   1.153   1.199   5.287 -0.0866 -0.3276 -0.1309
 1010loPI   GL216150   1.396   1.453   5.492  0.3919 -0.0342  0.1877
 1010loPI   C1A16151   0.967   1.186   5.692  0.2002 -0.1085 -0.0785
 1010loPI   C2A16152   1.061   1.252   6.083 -0.1720 -0.1285  0.0495
 1010loPI   C3A16153   1.113   1.285   6.469 -0.2103  0.0866  0.0070
 1010loPI   C4A16154   1.184   1.364   6.900  0.0336 -0.2375 -0.0435
 1010loPI   C5A16155   1.473   1.496   7.149  0.1584  0.2893  0.0243
 1010loPI   C6A16156   1.519   1.820   7.468 -0.0324  0.0724  0.0091
 1010loPI   C1B16157   1.531   1.523   5.890  0.2853  0.4596 -0.1333
 1010loPI   C2B16158   1.420   1.593   6.289  0.0157 -0.2331  0.0532
 1010loPI   C3B16159   1.538   1.646   6.650  0.0760  0.0313 -0.0370
 1010loPI   C4B16160   1.738   1.855   6.963 -0.0800  0.0429  0.2772
 1011loPI    C116161   1.091  18.555   4.596 -0.0109 -0.0433 -0.0264
 1011loPI    C216162   1.388  18.687   4.362 -0.1781  0.1167 -0.1506
 1011loPI    C316163   1.042  18.887   4.379 -0.3188 -0.1281 -0.0902
 1011loPI   PO416164   1.225  18.349   4.768  0.1456  0.0770 -0.0968
 1011loPI   GL116165   1.147  18.170   5.215 -0.3373 -0.1378  0.2280
 1011loPI   GL216166   1.559  18.238   5.123  0.0178 -0.0971 -0.0010
 1011loPI   C1A16167   1.017  18.276   5.693  0.0805  0.0763  0.0604
 1011loPI   C2A16168   1.066  18.267   6.162  0.3198  0.1033 -0.0287
 1011loPI   C3A16169   1.151  18.270   6.614  0.0236  0.0191  0.1496
 1011loPI   C4A16170   1.125  18.207   6.898 -0.0567  0.2232 -0.0590
 1011loPI   C5A16171   1.061  18.089   7.372 -0.1043 -0.1842 -0.0025
 1011loPI   C6A16172   1.146  17.957   7.789  0.1727  0.3240  0.2215
 1011loPI   C1B16173   1.526  18.045   5.468  0.1654  0.1745  0.0542
 1011loPI   C2B16174   1.526  18.030   5.924 -0.0946  0.2296  0.0974
 1011loPI   C3B16175   1.534  18.002   6.440  0.0547 -0.0587  0.0897
 1011loPI   C4B16176   1.634  18.000   6.915  0.0594 -0.0344  0.0270
 1012loPI    C116177   4.758  11.707   5.020  0.0735  0.1165 -0.1568
 1012loPI    C216178   4.522  11.654   4.701 -0.1083 -0.1421  0.0164
 1012loPI    C316179   4.905  11.540   4.687 -0.0351  0.1197 -0.2068
 1012loPI   PO416180   4.558  11.588   5.217 -0.1207 -0.0072 -0.1457
 1012loPI   GL116181   4.551  11.701   5.639 -0.0934 -0.2632 -0.3366
 1012loPI   GL216182   4.351  11.422   5.657 -0.2201  0.1740 -0.1868
 1012loPI   C1A16183   4.636  11.659   6.111  0.1496  0.0622  0.0874
 1012loPI   C2A16184   4.393  11.523   6.516  0.3515  0.1818 -0.1115
 1012loPI   C3A16185   4.206  11.782   6.841 -0.2216 -0.0014  0.0544
 1012loPI   C4A16186   4.134  12.043   7.083 -0.1964 -0.1057 -0.3117
 1012loPI   C5A16187   4.481  12.310   7.186  0.1070 -0.1923  0.0422
 1012loPI   C6A16188   4.685  12.702   7.305 -0.3198  0.1196 -0.2896
 1012loPI   C1B16189   4.313  11.213   6.077 -0.3080  0.1316  0.0963
 1012loPI   C2B16190   3.939  10.820   6.136 -0.2609  0.1115 -0.1786
 1012loPI   C3B16191   3.844  10.576   6.392 -0.0302  0.1132  0.3059
 1012loPI   C4B16192   4.071  10.346   6.787  0.0617  0.2587 -0.0224
 1013loPI    C116193  17.697   1.751   4.944  0.1785  0.1450 -0.1251
 1013loPI    C216194  17.534   1.550   4.640  0.0482  0.2050 -0.0954
 1013loPI    C316195  17.921   1.501   4.727 -0.0417 -0.2361  0.0772
 1013loPI   PO416196  17.548   1.671   5.205  0.0851 -0.1117 -0.0524
 1013loPI   GL116197  17.462   1.597   5.625  0.0177  0.2826 -0.0844
 1013loPI   GL216198  17.722   1.855   5.672  0.1462 -0.1155 -0.3537
 1013loPI   C1A16199  17.512   1.650   6.143  0.0505  0.1094 -0.0204
 1013loPI   C2A16200  17.478   1.632   6.580  0.1120  0.0525 -0.1227
 1013loPI   C3A16201  17.673   1.549   6.929  0.1191 -0.1917 -0.1534
 1013loPI   C4A16202  17.817   1.492   7.318 -0.4289  0.3119 -0.0161
 1013loPI   C5A16203  17.771   1.814   7.723 -0.1324 -0.0479  0.1995
 1013loPI   C6A16204  17.527   2.076   8.042 -0.2890 -0.0014 -0.1941
 1013loPI   C1B16205  17.889   2.004   6.042 -0.2402  0.2175  0.1354
 1013loPI   C2B16206  17.990   1.903   6.491 -0.0522  0.0406 -0.1758
 1013loPI   C3B16207  18.053   1.885   6.906 -0.1614  0.0702  0.3184
 1013loPI   C4B16208  18.069   1.935   7.348  0.0947  0.2506  0.0528
 1014loPI    C116209   2.421   1.513   4.904 -0.1936  0.1319 -0.0521
 1014loPI    C216210   2.048   1.555   4.766 -0.0871  0.4003 -0.2688
 1014loPI    C316211   2.346   1.767   4.604  0.1519  0.2302 -0.0599
 1014loPI   PO416212   2.399   1.276   5.066 -0.1715 -0.0271 -0.1638
 1014loPI   GL116213   2.494   1.340   5.439 -0.0203 -0.2903 -0.0907
 1014loPI   GL216214   2.755   1.223   5.505 -0.1255  0.0333 -0.0003
 1014loPI   C1A16215   2.439   1.408   5.881  0.0201  0.2147  0.1912
 1014loPI   C2A16216   2.346   1.444   6.326 -0.0364 -0.0431 -0.0575
 1014loPI   C3A16217   2.118   1.587   6.647  0.0545 -0.2744 -0.0077
 1014loPI   C4A16218   2.090   1.464   6.944  0.2128 -0.0686  0.1260
 1014loPI   C5A16219   2.066   1.173   7.335  0.0874 -0.1901  0.3163
 1014loPI   C6A16220   1.693   1.163   7.571  0.1274 -0.0233  0.0572
 1014loPI   C1B16221   2.884   1.259   5.961  0.0604  0.0156  0.0997
 1014loPI   C2B16222   2.751   1.174   6.364  0.0241  0.1852 -0.1049
 1014loPI   C3B16223   2.608   1.269   6.734 -0.2663  0.0028  0.0488
 1014loPI   C4B16224   2.570   1.656   6.999 -0.1692 -0.1656 -0.1210
 1015loPI    C116225  10.551   3.380   4.776  0.2772 -0.0824  0.3476
 1015loPI    C216226  10.635   3.014   4.640  0.2976 -0.0108  0.1647
 1015loPI    C316227  10.394   3.254   4.431  0.4031  0.1349  0.2087
 1015loPI   PO416228  10.545   3.356   5.081  0.1705 -0.3342  0.0522
 1015loPI   GL116229  10.806   3.416   5.409 -0.0321  0.1647 -0.4317
 1015loPI   GL216230  11.193   3.582   5.254  0.0315  0.1754  0.1061
 1015loPI   C1A16231  10.843   3.342   5.888 -0.1443 -0.2599  0.0041
 1015loPI   C2A16232  10.793   3.208   6.213  0.0826 -0.1620  0.1996
 1015loPI   C3A16233  10.823   3.263   6.578 -0.3622  0.2579 -0.4720
 1015loPI   C4A16234  10.805   3.143   6.902 -0.1365  0.4006  0.3726
 1015loPI   C5A16235  10.848   2.749   7.103 -0.0189 -0.1086  0.4209
 1015loPI   C6A16236  10.996   2.374   7.409 -0.0179 -0.1227 -0.2478
 1015loPI   C1B16237  11.286   3.577   5.706 -0.1408  0.1725 -0.0347
 1015loPI   C2B16238  11.319   3.447   6.049 -0.1965  0.0277  0.0177
 1015loPI   C3B16239  11.271   3.543   6.421  0.0978 -0.1928  0.0993
 1015loPI   C4B16240  11.252   3.470   6.787 -0.4631 -0.0122  0.1665
 1016loPI    C116241   8.572   9.647   5.575 -0.2158  0.0068  0.2743
 1016loPI    C216242   8.940   9.734   5.706 -0.1965  0.1347  0.1374
 1016loPI    C316243   8.879   9.407   5.484 -0.1460  0.1699  0.0712
 1016loPI   PO416244   8.420   9.791   5.729  0.0876 -0.5232 -0.1533
 1016loPI   GL116245   8.555   9.986   6.113  0.1380  0.3788  0.0970
 1016loPI   GL216246   8.715   9.658   6.168  0.0177 -0.3631  0.0939
 1016loPI   C1A16247   8.565   9.927   6.546  0.0358  0.2480  0.1283
 1016loPI   C2A16248   8.329   9.927   6.924  0.2853 -0.0094  0.1850
 1016loPI   C3A16249   8.088   9.679   7.301  0.1865  0.0235 -0.2115
 1016loPI   C4A16250   8.033   9.502   7.777  0.0317 -0.0622  0.0930
 1016loPI   C5A16251   8.394   9.301   7.859 -0.1723  0.2176 -0.0001
 1016loPI   C6A16252   8.821   9.401   7.943 -0.0458  0.0499 -0.1083
 1016loPI   C1B16253   8.454   9.446   6.582 -0.0999  0.3047  0.2758
 1016loPI   C2B16254   8.496   9.348   6.983  0.1227 -0.0294  0.2464
 1016loPI   C3B16255   8.206   9.238   7.330 -0.1558  0.1254 -0.2590
 1016loPI   C4B16256   7.984   9.048   7.652  0.1126  0.1088 -0.3486
 1017loPI    C116257   2.364  11.340   4.909  0.0933 -0.0687 -0.0257
 1017loPI    C216258   2.503  11.521   4.580 -0.2220  0.1899 -0.0220
 1017loPI    C316259   2.219  11.242   4.549  0.1999 -0.2522 -0.0194
 1017loPI   PO416260   2.334  11.468   5.170 -0.1353 -0.1082  0.3238
 1017loPI   GL116261   2.252  11.879   5.357  0.2960  0.1459 -0.0018
 1017loPI   GL216262   2.224  12.105   5.536 -0.3984 -0.3408  0.2411
 1017loPI   C1A16263   2.334  11.656   5.796  0.3435  0.1020 -0.2092
 1017loPI   C2A16264   2.366  11.503   6.278 -0.2326  0.2366  0.0790
 1017loPI   C3A16265   2.263  11.595   6.636 -0.0388 -0.4311 -0.1720
 1017loPI   C4A16266   2.290  11.700   6.961 -0.2481 -0.1829  0.1813
 1017loPI   C5A16267   2.316  11.452   7.350 -0.1058  0.0237 -0.1589
 1017loPI   C6A16268   2.415  11.242   7.668  0.0671 -0.1796 -0.1347
 1017loPI   C1B16269   2.158  12.047   6.010 -0.0930 -0.1749 -0.1669
 1017loPI   C2B16270   2.266  12.214   6.448  0.1335  0.4263  0.1504
 1017loPI   C3B16271   2.309  12.200   6.904 -0.2218  0.2242  0.2281
 1017loPI   C4B16272   2.649  12.554   7.077 -0.2709  0.1508  0.3418
 1018loPI    C116273   0.736  11.827   4.869 -0.0770  0.2812  0.1046
 1018loPI    C216274   0.488  11.526   4.780  0.0933  0.1229  0.1576
 1018loPI    C316275   0.620  11.769   4.491  0.2399 -0.0749  0.0562
 1018loPI   PO416276   0.962  11.819   4.972  0.0702  0.1360  0.2388
 1018loPI   GL116277   0.976  11.689   5.350  0.0490  0.0861 -0.3043
 1018loPI   GL216278   1.231  11.542   5.385 -0.0014 -0.2004 -0.0788
 1018loPI   C1A16279   0.671  11.767   5.620 -0.0127  0.0904  0.1189
 1018loPI   C2A16280   0.508  11.736   5.935  0.1510  0.3683 -0.4409
 1018loPI   C3A16281   0.555  11.829   6.428 -0.1665 -0.1688  0.1551
 1018loPI   C4A16282   0.478  11.830   6.763  0.0544 -0.0116 -0.0316
 1018loPI   C5A16283   0.440  11.806   7.204  0.3145 -0.3254 -0.2154
 1018loPI   C6A16284   0.588  11.714   7.471 -0.0417 -0.0070 -0.1569
 1018loPI   C1B16285   1.101  11.513   5.771  0.0478 -0.2726  0.1927
 1018loPI   C2B16286   1.093  11.642   6.241  0.1364 -0.0383  0.1045
 1018loPI   C3B16287   0.996  11.749   6.659  0.0730  0.0134  0.2403
 1018loPI   C4B16288   0.882  11.709   7.027  0.3655  0.0519  0.2724
 1019loPI    C116289  14.011   6.210   5.389 -0.3263  0.1249 -0.0922
 1019loPI    C216290  14.063   6.436   5.062  0.1487  0.2326  0.0496
 1019loPI    C316291  14.034   6.608   5.422  0.2263  0.0833  0.1284
 1019loPI   PO416292  14.152   5.986   5.364  0.0528 -0.1527 -0.1025
 1019loPI   GL116293  14.200   5.790   5.743  0.0078  0.0376 -0.1195
 1019loPI   GL216294  14.340   6.204   5.825  0.1708 -0.0308  0.2085
 1019loPI   C1A16295  14.114   5.613   6.134  0.0505  0.0651 -0.2410
 1019loPI   C2A16296  14.089   5.669   6.580 -0.1245 -0.1301 -0.1382
 1019loPI   C3A16297  14.118   5.658   6.970 -0.0731 -0.0138 -0.1480
 1019loPI   C4A16298  13.878   5.655   7.347  0.1061 -0.0782  0.1775
 1019loPI   C5A16299  13.886   5.665   7.720 -0.0498 -0.2695 -0.1879
 1019loPI   C6A16300  14.358   5.637   8.032  0.0550  0.1890 -0.1471
 1019loPI   C1B16301  14.068   6.137   6.130 -0.1137  0.2200  0.0994
 1019loPI   C2B16302  14.033   6.191   6.537 -0.2416  0.0564 -0.1910
 1019loPI   C3B16303  13.963   6.161   6.894  0.2409 -0.0817 -0.0926
 1019loPI   C4B16304  13.944   6.150   7.250  0.0104  0.2963  0.0295
 1020loPI    C116305   5.632  18.071   4.599 -0.1156 -0.0443  0.2061
 1020loPI    C216306   5.925  17.800   4.618 -0.1963 -0.1478 -0.0010
 1020loPI    C316307   5.726  17.856   4.275 -0.0897  0.2704  0.0003
 1020loPI   PO416308   5.417  18.043   4.764  0.3696  0.1115  0.2007
 1020loPI   GL116309   5.436  18.074   5.085  0.2088 -0.1523 -0.1772
 1020loPI   GL216310   5.223  18.273   5.170 -0.2148 -0.1283 -0.0467
 1020loPI   C1A16311   5.717  18.173   5.443 -0.0418 -0.1291  0.1694
 1020loPI   C2A16312   5.822  18.312   5.847 -0.0712  0.0432 -0.0829
 1020loPI   C3A16313   6.014  18.464   6.183 -0.0160 -0.1131 -0.0468
 1020loPI   C4A16314   6.120  18.609   6.630  0.0220 -0.1696  0.1381
 1020loPI   C5A16315   6.009  18.809   7.133  0.3671  0.0351 -0.3452
 1020loPI   C6A16316   5.841  19.115   7.402  0.5184  0.1055 -0.0413
 1020loPI   C1B16317   5.284  18.214   5.632 -0.1922  0.2201 -0.2159
 1020loPI   C2B16318   5.164  17.982   6.056  0.2312 -0.0684  0.0405
 1020loPI   C3B16319   5.184  18.089   6.422  0.2510  0.1475  0.1650
 1020loPI   C4B16320   5.197  18.028   6.890 -0.3696  0.1381  0.0241
 1021loPI    C116321  18.089   8.647   5.288 -0.0821 -0.0059 -0.1902
 1021loPI    C216322  18.174   9.037   5.281 -0.2435  0.0403  0.1894
 1021loPI    C316323  18.351   8.790   5.022  0.0311  0.3296  0.0946
 1021loPI   PO416324  17.862   8.621   5.429 -0.1543  0.1530  0.0079
 1021loPI   GL116325  17.684   8.629   5.862 -0.0397  0.0304 -0.2315
 1021loPI   GL216326  17.553   8.983   5.802  0.1164  0.3165 -0.0299
 1021loPI   C1A16327  17.673   8.580   6.349  0.2880  0.2691 -0.3569
 1021loPI   C2A16328  17.553   8.617   6.715 -0.3017 -0.0763  0.1312
 1021loPI   C3A16329  17.497   8.515   7.226 -0.0653 -0.2030  0.1129
 1021loPI   C4A16330  17.407   8.332   7.487 -0.0307 -0.2794  0.1726
 1021loPI   C5A16331  17.619   7.958   7.704 -0.0265  0.1279  0.1112
 1021loPI   C6A16332  17.747   7.592   7.966  0.0387  0.0606  0.1180
 1021loPI   C1B16333  17.525   9.079   6.214 -0.4364  0.3246 -0.2129
 1021loPI   C2B16334  17.493   9.153   6.644  0.0918 -0.1511 -0.1216
 1021loPI   C3B16335  17.436   9.175   7.058 -0.0858 -0.2150 -0.1490
 1021loPI   C4B16336  17.124   9.007   7.233  0.0982  0.3452 -0.0241
 1022loPI    C116337  15.713   8.471   5.067  0.0802  0.1007 -0.0386
 1022loPI    C216338  16.062   8.353   4.911  0.0484  0.0962 -0.1066
 1022loPI    C316339  15.837   8.094   5.117  0.1121  0.1146 -0.0131
 1022loPI   PO416340  15.850   8.783   5.055  0.2264 -0.2292 -0.0579
 1022loPI   GL116341  16.072   8.851   5.415  0.1029  0.2778 -0.1959
 1022loPI   GL216342  15.720   8.717   5.542 -0.1172 -0.0520  0.0914
 1022loPI   C1A16343  16.344   8.729   5.802  0.1060  0.0837 -0.0958
 1022loPI   C2A16344  16.289   8.548   6.225  0.0822 -0.1823  0.1212
 1022loPI   C3A16345  16.139   8.538   6.692 -0.0281  0.2545  0.0722
 1022loPI   C4A16346  16.139   8.597   7.164  0.3187 -0.1444 -0.0020
 1022loPI   C5A16347  15.842   8.628   7.535  0.0115 -0.1899  0.2536
 1022loPI   C6A16348  15.522   8.354   7.615 -0.3486  0.1671 -0.1712
 1022loPI   C1B16349  15.799   8.684   5.948 -0.2896  0.0072 -0.0020
 1022loPI   C2B16350  15.803   8.643   6.337 -0.1337  0.0726 -0.0509
 1022loPI   C3B16351  15.681   8.723   6.729  0.3788 -0.1037 -0.2228
 1022loPI   C4B16352  15.666   8.465   7.121  0.3185 -0.0718  0.0604
 1023loPI    C116353   2.176   6.344   5.196  0.0243 -0.0653  0.0230
 1023loPI    C216354   2.152   6.065   4.910  0.1547 -0.0840  0.0300
 1023loPI    C316355   2.050   6.443   4.829 -0.0616 -0.1406  0.0317
 1023loPI   PO416356   2.424   6.261   5.438  0.0933  0.0762  0.1340
 1023loPI   GL116357   2.562   6.296   5.775  0.1206 -0.2489 -0.2011
 1023loPI   GL216358   2.812   6.498   5.695 -0.0576  0.2619 -0.0402
 1023loPI   C1A16359   2.300   6.393   6.100 -0.0731  0.1886 -0.1507
 1023loPI   C2A16360   2.513   6.391   6.527 -0.1769  0.0193  0.1902
 1023loPI   C3A16361   2.478   6.364   6.932  0.1366 -0.0131  0.1142
 1023loPI   C4A16362   2.610   6.394   7.345 -0.4073 -0.2374 -0.4295
 1023loPI   C5A16363   2.394   6.438   7.784 -0.0249  0.0864 -0.0975
 1023loPI   C6A16364   2.130   6.610   8.142  0.2881 -0.1227 -0.1665
 1023loPI   C1B16365   2.826   6.591   6.143  0.1590  0.0737 -0.1327
 1023loPI   C2B16366   2.904   6.709   6.615  0.0967 -0.0411 -0.3677
 1023loPI   C3B16367   3.007   6.563   7.002 -0.0057  0.3282  0.1598
 1023loPI   C4B16368   3.126   6.950   7.197  0.1032  0.0414  0.1007
 1024loPI    C116369  12.044   6.672   5.177  0.1448 -0.0783 -0.1844
 1024loPI    C216370  11.808   6.536   4.885 -0.0414  0.0047 -0.0746
 1024loPI    C316371  11.983   6.894   4.850 -0.0226 -0.0075 -0.1064
 1024loPI   PO416372  11.948   6.594   5.405  0.6046  0.0450  0.2336
 1024loPI   GL116373  11.999   6.565   5.826  0.0638  0.1843 -0.0416
 1024loPI   GL216374  11.798   6.153   5.734  0.1582  0.1135  0.2007
 1024loPI   C1A16375  11.690   6.510   6.168  0.1305 -0.0697 -0.1430
 1024loPI   C2A16376  11.675   6.371   6.507 -0.1541 -0.2602 -0.4455
 1024loPI   C3A16377  12.079   6.191   6.735  0.1156  0.1499 -0.1772
 1024loPI   C4A16378  12.214   6.019   7.146  0.0137  0.2264  0.0131
 1024loPI   C5A16379  12.128   5.986   7.621  0.1661 -0.1968  0.0043
 1024loPI   C6A16380  11.762   5.872   7.905 -0.0253 -0.1392 -0.1208
 1024loPI   C1B16381  11.791   6.012   6.103 -0.3801 -0.0775 -0.0711
 1024loPI   C2B16382  11.727   5.825   6.542  0.0398  0.2769  0.1936
 1024loPI   C3B16383  11.655   5.838   6.942  0.0028 -0.0972 -0.0597
 1024loPI   C4B16384  11.705   5.765   7.397  0.1574 -0.1035 -0.1830
 1025loPI    C116385   7.401   2.727   4.714  0.2934  0.0229  0.0601
 1025loPI    C216386   7.297   2.497   4.404  0.2021  0.1052  0.0291
 1025loPI    C316387   7.663   2.465   4.562  0.1184 -0.2169  0.1662
 1025loPI   PO416388   7.235   2.699   4.844  0.0390  0.1510  0.0316
 1025loPI   GL116389   7.049   2.836   5.271  0.1530  0.1314  0.1284
 1025loPI   GL216390   6.797   2.642   5.093  0.1060  0.0419 -0.0682
 1025loPI   C1A16391   6.999   2.730   5.667 -0.0962 -0.0705 -0.2040
 1025loPI   C2A16392   7.131   2.761   6.098  0.1553  0.2017  0.1163
 1025loPI   C3A16393   7.155   2.791   6.529  0.1687 -0.1107 -0.1363
 1025loPI   C4A16394   7.153   2.729   7.031 -0.0058  0.0125 -0.0452
 1025loPI   C5A16395   6.912   2.369   7.307 -0.0067 -0.2490  0.0123
 1025loPI   C6A16396   6.566   2.464   7.600  0.2192 -0.0074 -0.0197
 1025loPI   C1B16397   6.582   2.476   5.537  0.3446 -0.0451  0.0958
 1025loPI   C2B16398   6.641   2.530   5.940 -0.0485  0.1693 -0.0357
 1025loPI   C3B16399   6.726   2.523   6.369 -0.1665 -0.1211  0.0871
 1025loPI   C4B16400   6.761   2.456   6.738 -0.1587 -0.0948  0.4399
 1026loPI    C116401  16.320   6.261   5.355  0.1277 -0.1523  0.0865
 1026loPI    C216402  16.384   5.890   5.220  0.2295 -0.1977  0.2566
 1026loPI    C316403  16.386   6.198   4.966  0.0119 -0.3276  0.0938
 1026loPI   PO416404  16.490   6.274   5.556 -0.1984 -0.3139  0.3389
 1026loPI   GL116405  16.595   6.559   5.859 -0.0662  0.2290  0.0357
 1026loPI   GL216406  16.707   6.813   5.843 -0.1026 -0.1411 -0.0570
 1026loPI   C1A16407  16.423   6.605   6.329  0.0951 -0.1258  0.0160
 1026loPI   C2A16408  16.298   6.399   6.661 -0.0604 -0.0067  0.3366
 1026loPI   C3A16409  16.364   6.054   6.908 -0.0798 -0.1129 -0.0793
 1026loPI   C4A16410  16.288   5.829   7.180  0.2853  0.3683 -0.2308
 1026loPI   C5A16411  16.167   5.627   7.494 -0.1981  0.3777 -0.2607
 1026loPI   C6A16412  16.141   5.673   7.882 -0.1402  0.2336  0.1424
 1026loPI   C1B16413  16.928   6.777   6.221 -0.0032  0.2153  0.1384
 1026loPI   C2B16414  17.269   6.637   6.408  0.0888 -0.0449  0.2231
 1026loPI   C3B16415  17.425   6.580   6.841  0.0808  0.1411  0.1076
 1026loPI   C4B16416  17.518   6.473   7.221  0.1460  0.1504  0.1414
 1027loPI    C116417   7.043  13.445   4.887  0.1827 -0.2212 -0.3218
 1027loPI    C216418   6.911  13.702   4.610 -0.0699  0.0571  0.0468
 1027loPI    C316419   6.687  13.387   4.714 -0.1068  0.1125  0.1368
 1027loPI   PO416420   7.081  13.540   5.073  0.0602  0.0324 -0.1793
 1027loPI   GL116421   7.239  13.391   5.376  0.0505  0.0181 -0.1205
 1027loPI   GL216422   7.356  13.088   5.477  0.0748 -0.0680  0.3485
 1027loPI   C1A16423   7.186  13.686   5.693  0.0155  0.1415  0.1323
 1027loPI   C2A16424   7.083  13.781   6.072 -0.1349 -0.1528 -0.1769
 1027loPI   C3A16425   7.237  13.819   6.519 -0.0382 -0.0155  0.1419
 1027loPI   C4A16426   7.245  13.824   6.974  0.2868 -0.2366 -0.1050
 1027loPI   C5A16427   7.152  14.065   7.441  0.0802 -0.2344 -0.2078
 1027loPI   C6A16428   6.890  14.169   7.846  0.2200  0.0664  0.1920
 1027loPI   C1B16429   7.217  13.157   5.895 -0.0429 -0.2050  0.0674
 1027loPI   C2B16430   7.256  13.265   6.279  0.3083  0.0796  0.1158
 1027loPI   C3B16431   7.439  13.375   6.661 -0.2119 -0.1359  0.0366
 1027loPI   C4B16432   7.327  13.328   7.148  0.0855  0.0723  0.2456
 1028loPI    C116433   1.226   8.447   4.961 -0.2016  0.0507  0.3145
 1028loPI    C216434   1.070   8.691   4.685 -0.1334  0.0353  0.2620
 1028loPI    C316435   0.914   8.327   4.742 -0.1516  0.0410  0.2483
 1028loPI   PO416436   1.285   8.638   5.175  0.0493 -0.1283 -0.1558
 1028loPI   GL116437   1.357   8.656   5.590 -0.2935  0.1472 -0.0211
 1028loPI   GL216438   1.216   8.884   5.634 -0.3367 -0.1245  0.1013
 1028loPI   C1A16439   1.500   8.706   6.057  0.0860  0.0311 -0.0772
 1028loPI   C2A16440   1.585   8.660   6.542 -0.2573 -0.0046  0.2095
 1028loPI   C3A16441   1.622   8.659   7.043  0.2598  0.0591  0.0006
 1028loPI   C4A16442   1.518   8.682   7.391  0.0031 -0.1783  0.1036
 1028loPI   C5A16443   1.623   8.822   7.775  0.0237  0.0915  0.1824
 1028loPI   C6A16444   1.467   8.652   8.120  0.1800  0.0134  0.0771
 1028loPI   C1B16445   1.099   9.001   6.064 -0.4131 -0.0678 -0.0144
 1028loPI   C2B16446   1.161   9.150   6.434  0.4192  0.0712  0.0584
 1028loPI   C3B16447   0.958   9.341   6.751  0.1038  0.2192  0.2169
 1028loPI   C4B16448   0.833   9.391   7.203  0.2518 -0.3678 -0.0961
 1029loPI    C116449   3.360   9.611   5.070 -0.2835  0.0557  0.1052
 1029loPI    C216450   3.283   9.929   4.841  0.0095 -0.0420 -0.1358
 1029loPI    C316451   3.212   9.561   4.702  0.0495 -0.0971 -0.0120
 1029loPI   PO416452   3.185   9.744   5.337  0.0960 -0.0665  0.0438
 1029loPI   GL116453   3.126  10.006   5.708  0.2472  0.0539 -0.0137
 1029loPI   GL216454   3.417   9.859   5.811 -0.2942  0.1169 -0.1868
 1029loPI   C1A16455   2.934   9.781   6.090 -0.2160  0.0932 -0.0537
 1029loPI   C2A16456   2.748   9.742   6.534  0.3161  0.0702 -0.1474
 1029loPI   C3A16457   2.769   9.748   7.004 -0.0839  0.0779 -0.0759
 1029loPI   C4A16458   2.943   9.861   7.387 -0.0077  0.0693 -0.1575
 1029loPI   C5A16459   3.007  10.083   7.794 -0.0357 -0.0127 -0.0454
 1029loPI   C6A16460   3.379  10.049   8.168  0.1255 -0.0664 -0.1410
 1029loPI   C1B16461   3.405   9.816   6.346  0.0722  0.2333 -0.4174
 1029loPI   C2B16462   3.327   9.711   6.763 -0.0807  0.0686 -0.2186
 1029loPI   C3B16463   3.423   9.759   7.271  0.0029  0.1433 -0.3837
 1029loPI   C4B16464   3.308   9.715   7.732  0.0727  0.1104 -0.0792
 1030loPI    C116465   4.399   9.854   5.381 -0.1056 -0.0954  0.0277
 1030loPI    C216466   4.409   9.530   5.615  0.0089 -0.1365 -0.0334
 1030loPI    C316467   4.742   9.655   5.431 -0.0542 -0.0354 -0.0802
 1030loPI   PO416468   4.325  10.027   5.562 -0.0558 -0.2004 -0.0123
 1030loPI   GL116469   4.417   9.938   5.940  0.0273  0.0276 -0.1063
 1030loPI   GL216470   4.782   9.662   5.969  0.1663 -0.0619 -0.1022
 1030loPI   C1A16471   4.251   9.576   6.216 -0.1024 -0.1592 -0.3426
 1030loPI   C2A16472   4.323   9.539   6.655 -0.0684  0.0782  0.1136
 1030loPI   C3A16473   4.473   9.477   6.957  0.0173 -0.1030  0.0217
 1030loPI   C4A16474   4.508   9.464   7.425 -0.1517  0.0790  0.0203
 1030loPI   C5A16475   4.840   9.314   7.624  0.0526  0.1124 -0.1681
 1030loPI   C6A16476   5.254   9.174   7.614 -0.0529 -0.0830 -0.0027
 1030loPI   C1B16477   4.972  10.012   6.147 -0.3110 -0.0733 -0.0009
 1030loPI   C2B16478   4.915  10.303   6.589  0.0640  0.2013 -0.1132
 1030loPI   C3B16479   4.618  10.524   6.748  0.0815 -0.1008 -0.0154
 1030loPI   C4B16480   4.503  10.451   7.197  0.1343 -0.0940  0.1087
 1031loPI    C116481   5.087   0.328   4.862  0.0614 -0.0355  0.1229
 1031loPI    C216482   5.247   0.600   4.617  0.0157 -0.1023  0.0182
 1031loPI    C316483   4.851   0.586   4.669  0.0257 -0.0847  0.1003
 1031loPI   PO416484   5.250   0.223   4.986 -0.0189 -0.0201  0.3942
 1031loPI   GL116485   5.602   0.120   5.169 -0.0503 -0.0490  0.2317
 1031loPI   GL216486   5.332   0.314   5.423  0.0879 -0.1711 -0.3296
 1031loPI   C1A16487   5.580  -0.118   5.571 -0.3809 -0.2847  0.0485
 1031loPI   C2A16488   5.401  -0.234   5.982 -0.1319  0.2845  0.0828
 1031loPI   C3A16489   5.533  -0.249   6.430  0.1878  0.1005  0.0371
 1031loPI   C4A16490   5.690  -0.289   6.842 -0.0969 -0.2092 -0.3133
 1031loPI   C5A16491   5.478  -0.461   7.178 -0.0471  0.1384 -0.2347
 1031loPI   C6A16492   5.220  -0.443   7.428  0.5821  0.0598 -0.1480
 1031loPI   C1B16493   5.369   0.355   5.863 -0.1028 -0.0538 -0.0452
 1031loPI   C2B16494   5.360   0.270   6.295  0.1558  0.1165  0.0081
 1031loPI   C3B16495   5.013   0.250   6.652  0.3682  0.3326 -0.2256
 1031loPI   C4B16496   4.813   0.467   7.045  0.0250 -0.1767  0.0439
 1032loPI    C116497  16.890  14.725   5.386 -0.0032  0.0112 -0.1270
 1032loPI    C216498  16.662  14.408   5.475  0.2785 -0.1501  0.0332
 1032loPI    C316499  16.803  14.455   5.104  0.0074 -0.0619 -0.0606
 1032loPI   PO416500  17.091  14.734   5.582  0.2971 -0.0634  0.0026
 1032loPI   GL116501  17.146  15.125   5.836 -0.2711  0.2667 -0.1662
 1032loPI   GL216502  17.113  15.494   5.847 -0.0791  0.2907  0.3519
 1032loPI   C1A16503  17.223  15.257   6.276 -0.0713  0.2711  0.1942
 1032loPI   C2A16504  17.108  15.510   6.586 -0.1404  0.0471 -0.2545
 1032loPI   C3A16505  17.020  15.392   7.013 -0.0408 -0.0127  0.2783
 1032loPI   C4A16506  17.073  15.488   7.498 -0.2403 -0.5432 -0.1359
 1032loPI   C5A16507  16.964  15.745   7.839 -0.1347 -0.0949  0.0781
 1032loPI   C6A16508  17.018  16.121   7.897  0.1016  0.0684 -0.1464
 1032loPI   C1B16509  16.990  15.705   6.159  0.1079 -0.2748 -0.2528
 1032loPI   C2B16510  16.658  15.747   6.441 -0.0446 -0.0530 -0.3304
 1032loPI   C3B16511  16.476  15.651   6.841 -0.0091 -0.4335 -0.2167
 1032loPI   C4B16512  16.680  15.657   7.265 -0.0529  0.2608  0.0959
 1033loPI    C116513  12.958  14.693   5.118  0.0242  0.0019 -0.1241
 1033loPI    C216514  12.595  14.686   4.949  0.0136 -0.3496 -0.0931
 1033loPI    C316515  12.911  14.540   4.752  0.1421 -0.0382 -0.1227
 1033loPI   PO416516  12.898  14.586   5.365 -0.3105  0.2145  0.1468
 1033loPI   GL116517  12.694  14.377   5.755  0.4153  0.3136  0.0028
 1033loPI   GL216518  12.509  14.078   5.826 -0.3161 -0.1447  0.0150
 1033loPI   C1A16519  12.856  14.501   6.074  0.0803  0.1847  0.1186
 1033loPI   C2A16520  12.741  14.672   6.432 -0.1984  0.3453 -0.0097
 1033loPI   C3A16521  12.990  14.642   6.718  0.1190 -0.0134  0.1025
 1033loPI   C4A16522  12.859  14.688   7.029 -0.0368 -0.2058 -0.1361
 1033loPI   C5A16523  12.717  14.836   7.420 -0.0489 -0.2973  0.1757
 1033loPI   C6A16524  12.968  15.086   7.684  0.0778  0.2635 -0.2768
 1033loPI   C1B16525  12.656  13.804   6.182  0.2755  0.2124 -0.0601
 1033loPI   C2B16526  12.466  13.732   6.572  0.0217  0.2020  0.0994
 1033loPI   C3B16527  12.470  13.717   7.045 -0.1941  0.0600  0.2514
 1033loPI   C4B16528  12.406  14.026   7.435 -0.2228 -0.1398  0.2302
 1034loPI    C116529  18.747  17.404   4.947  0.0743 -0.2495 -0.0692
 1034loPI    C216530  18.602  17.341   4.580  0.1638 -0.0954 -0.1319
 1034loPI    C316531  18.689  17.031   4.816 -0.2061 -0.1918 -0.1157
 1034loPI   PO416532  18.903  17.600   4.915 -0.0944  0.0001  0.0712
 1034loPI   GL116533  18.965  17.702   5.306 -0.1973 -0.1235  0.4346
 1034loPI   GL216534  18.899  17.529   5.440 -0.4686 -0.0037 -0.0953
 1034loPI   C1A16535  18.820  18.000   5.751  0.0578 -0.0824  0.3482
 1034loPI   C2A16536  18.895  17.981   6.195  0.1079 -0.3312 -0.0733
 1034loPI   C3A16537  19.006  18.089   6.620  0.2223 -0.1528  0.1910
 1034loPI   C4A16538  18.973  18.020   6.999  0.0090 -0.0286 -0.0634
 1034loPI   C5A16539  19.157  17.952   7.384 -0.3118 -0.1900 -0.0039
 1034loPI   C6A16540  19.456  17.808   7.561  0.0164 -0.1334  0.0884
 1034loPI   C1B16541  18.967  17.570   5.942 -0.0021 -0.0322  0.1440
 1034loPI   C2B16542  19.014  17.471   6.319  0.1275  0.0272 -0.2173
 1034loPI   C3B16543  19.074  17.565   6.754  0.0721 -0.0592 -0.1491
 1034loPI   C4B16544  19.056  17.519   7.206  0.0788 -0.0071  0.3719
 1035loPI    C116545  14.985  15.210   5.178  0.1118 -0.1374 -0.0275
 1035loPI    C216546  15.076  15.277   4.795  0.0595 -0.1275 -0.0382
 1035loPI    C316547  14.794  15.010   4.890 -0.1559  0.1024 -0.0207
 1035loPI   PO416548  15.215  15.243   5.249 -0.1137 -0.1727 -0.2517
 1035loPI   GL116549  15.516  15.271   5.564 -0.1101 -0.4457 -0.1415
 1035loPI   GL216550  15.412  15.621   5.593 -0.1902  0.0526 -0.0462
 1035loPI   C1A16551  15.726  15.173   6.019 -0.2708 -0.1785  0.0058
 1035loPI   C2A16552  15.708  15.310   6.325  0.0653 -0.0643 -0.0285
 1035loPI   C3A16553  15.547  15.596   6.670  0.0605  0.1876 -0.2190
 1035loPI   C4A16554  15.692  15.777   7.028 -0.4583 -0.2150  0.0708
 1035loPI   C5A16555  15.842  16.083   7.408 -0.1804  0.1542 -0.2183
 1035loPI   C6A16556  16.037  15.933   7.695  0.1120 -0.3025  0.3222
 1035loPI   C1B16557  15.326  15.475   6.015 -0.1270 -0.1203  0.1946
 1035loPI   C2B16558  15.130  15.546   6.351  0.3872 -0.0458  0.0654
 1035loPI   C3B16559  15.014  15.525   6.765  0.1971 -0.0618 -0.2826
 1035loPI   C4B16560  14.898  15.494   7.268  0.1778  0.0997  0.2254
 1036loPI    C116561  13.512   3.446   5.050  0.0130  0.0502  0.0664
 1036loPI    C216562  13.771   3.599   4.786 -0.0242  0.0577  0.0344
 1036loPI    C316563  13.381   3.582   4.698 -0.0081 -0.1451 -0.0025
 1036loPI   PO416564  13.614   3.290   5.170 -0.3496  0.0038  0.2032
 1036loPI   GL116565  13.663   2.998   5.535 -0.0519 -0.0264 -0.1904
 1036loPI   GL216566  13.907   3.272   5.555  0.1009 -0.1007  0.1487
 1036loPI   C1A16567  13.586   2.877   6.003 -0.1620  0.0484  0.2435
 1036loPI   C2A16568  13.553   2.817   6.415 -0.0135  0.1250  0.1523
 1036loPI   C3A16569  13.445   2.812   6.909  0.2674 -0.0496 -0.1916
 1036loPI   C4A16570  13.505   2.855   7.414 -0.1793 -0.0560  0.1646
 1036loPI   C5A16571  13.507   2.717   7.786  0.1037 -0.0374  0.0645
 1036loPI   C6A16572  13.395   2.669   8.147  0.0126 -0.1401  0.0300
 1036loPI   C1B16573  14.160   3.253   5.922  0.1503  0.0320  0.3900
 1036loPI   C2B16574  14.056   3.187   6.340 -0.0757 -0.0745 -0.1684
 1036loPI   C3B16575  13.968   3.165   6.807 -0.4727  0.2425 -0.1165
 1036loPI   C4B16576  13.999   3.288   7.202  0.2583  0.0524 -0.5021
 1037loPI    C116577  12.382  18.222   4.648  0.0267 -0.0140  0.1307
 1037loPI    C216578  12.472  17.909   4.416  0.1205 -0.0452  0.2084
 1037loPI    C316579  12.108  18.073   4.398  0.2512  0.2136 -0.2619
 1037loPI   PO416580  12.375  18.110   4.896 -0.0103  0.1088 -0.1234
 1037loPI   GL116581  12.487  18.227   5.362  0.2703  0.1382  0.0232
 1037loPI   GL216582  12.563  18.561   5.406  0.2258 -0.0645 -0.1479
 1037loPI   C1A16583  12.493  18.140   5.828  0.2034 -0.2029 -0.2025
 1037loPI   C2A16584  12.768  17.919   6.083 -0.1958  0.1190 -0.0435
 1037loPI   C3A16585  12.904  17.892   6.537  0.0493 -0.0827 -0.1995
 1037loPI   C4A16586  12.944  17.892   6.952  0.1727 -0.2179 -0.1348
 1037loPI   C5A16587  12.984  18.275   7.200 -0.1703  0.0086 -0.1110
 1037loPI   C6A16588  13.061  18.542   7.575  0.0001 -0.1847 -0.0035
 1037loPI   C1B16589  12.432  18.661   5.854 -0.1158 -0.1253  0.3390
 1037loPI   C2B16590  12.259  18.590   6.270  0.0433  0.1040  0.0589
 1037loPI   C3B16591  12.108  18.641   6.735  0.4329 -0.0695 -0.0355
 1037loPI   C4B16592  11.969  18.895   6.984 -0.4119  0.0375 -0.1898
 1038loPI    C116593  13.156   5.054   5.036 -0.2096  0.0862  0.0441
 1038loPI    C216594  13.442   5.286   5.192  0.1405 -0.2497 -0.0803
 1038loPI    C316595  13.480   5.145   4.820 -0.3429 -0.0446 -0.2162
 1038loPI   PO416596  13.040   5.004   5.302  0.0276  0.0842  0.0869
 1038loPI   GL116597  12.917   4.672   5.450 -0.3484  0.1372 -0.0536
 1038loPI   GL216598  13.137   4.784   5.816  0.3644  0.0003  0.0165
 1038loPI   C1A16599  12.744   4.456   5.895 -0.3513 -0.1218  0.0510
 1038loPI   C2A16600  12.642   4.335   6.336  0.1945  0.0404  0.1801
 1038loPI   C3A16601  12.656   4.385   6.734  0.3183  0.1296 -0.0300
 1038loPI   C4A16602  12.584   4.286   7.079 -0.0766  0.1191 -0.1338
 1038loPI   C5A16603  12.624   4.294   7.512 -0.2348 -0.0659  0.3016
 1038loPI   C6A16604  13.015   4.134   7.773  0.0432  0.1229  0.1029
 1038loPI   C1B16605  13.044   4.603   6.278  0.1101 -0.2937  0.0264
 1038loPI   C2B16606  13.091   4.650   6.716  0.0935 -0.2263  0.1073
 1038loPI   C3B16607  13.031   4.595   7.124  0.0017 -0.1840  0.0300
 1038loPI   C4B16608  13.019   4.565   7.495 -0.2523  0.3344  0.0750
 1039loPI    C116609   4.500   1.073   4.923  0.3589  0.1298 -0.1453
 1039loPI    C216610   4.267   1.152   4.607 -0.0332  0.0729  0.1213
 1039loPI    C316611   4.653   1.058   4.554 -0.1024  0.0272 -0.3393
 1039loPI   PO416612   4.277   0.861   5.168 -0.0730 -0.1387 -0.2895
 1039loPI   GL116613   4.332   0.889   5.565 -0.3566  0.2498  0.1780
 1039loPI   GL216614   4.254   1.256   5.533 -0.0288  0.0280 -0.1615
 1039loPI   C1A16615   4.430   0.615   5.883 -0.0534  0.2878  0.0577
 1039loPI   C2A16616   4.431   0.293   6.156  0.1110  0.2533  0.1067
 1039loPI   C3A16617   4.510  -0.130   6.288  0.2123  0.2845  0.0815
 1039loPI   C4A16618   4.643  -0.169   6.658 -0.1371  0.0762  0.3171
 1039loPI   C5A16619   4.398   0.116   6.913 -0.2042 -0.1721 -0.1215
 1039loPI   C6A16620   4.419   0.219   7.334  0.2533 -0.0576 -0.1488
 1039loPI   C1B16621   4.240   1.316   5.944 -0.0129 -0.1141  0.1482
 1039loPI   C2B16622   4.369   1.381   6.435 -0.0680  0.0080  0.4259
 1039loPI   C3B16623   4.471   1.368   6.855 -0.0501  0.0067  0.1570
 1039loPI   C4B16624   4.459   1.628   7.248  0.0061 -0.1176  0.0469
 1040loPI    C116625   4.080   4.434   4.477  0.1783 -0.0513 -0.1388
 1040loPI    C216626   4.472   4.502   4.437  0.3086 -0.4969  0.2766
 1040loPI    C316627   4.289   4.240   4.196  0.1246  0.1490 -0.3192
 1040loPI   PO416628   4.012   4.420   4.696  0.1789 -0.4422 -0.3135
 1040loPI   GL116629   4.140   4.516   5.098 -0.4284  0.1127  0.1330
 1040loPI   GL216630   4.284   4.283   5.341  0.0571 -0.0318 -0.2389
 1040loPI   C1A16631   4.195   4.777   5.448  0.1691 -0.0439 -0.0267
 1040loPI   C2A16632   4.161   4.783   5.915 -0.3201  0.1830 -0.1007
 1040loPI   C3A16633   4.268   4.776   6.310  0.6206  0.3547  0.0494
 1040loPI   C4A16634   4.108   4.662   6.654 -0.2760  0.2620  0.1328
 1040loPI   C5A16635   4.055   4.612   7.120 -0.0156  0.0112 -0.2381
 1040loPI   C6A16636   4.111   4.833   7.586  0.0000  0.0029 -0.2630
 1040loPI   C1B16637   4.167   4.263   5.747  0.2058  0.0359 -0.2324
 1040loPI   C2B16638   4.159   4.329   6.150 -0.2501 -0.1509  0.1398
 1040loPI   C3B16639   4.095   4.165   6.541 -0.0749 -0.2300 -0.2880
 1040loPI   C4B16640   4.201   4.110   7.010 -0.2123  0.0041 -0.1162
 1041loPI    C116641   2.728  15.691   4.760  0.1068  0.0504  0.0027
 1041loPI    C216642   2.574  15.396   4.538  0.1037  0.0343  0.0262
 1041loPI    C316643   2.537  15.776   4.419  0.0362  0.0312  0.0371
 1041loPI   PO416644   2.601  15.693   4.956 -0.1852  0.0382 -0.3353
 1041loPI   GL116645   2.666  15.681   5.381  0.0439  0.0565  0.3112
 1041loPI   GL216646   2.732  15.356   5.428 -0.0490  0.0948  0.1741
 1041loPI   C1A16647   2.900  15.748   5.662 -0.0441  0.0768  0.0129
 1041loPI   C2A16648   3.098  15.813   6.055  0.0415  0.0184  0.2451
 1041loPI   C3A16649   3.097  15.602   6.425  0.0970 -0.0385 -0.1472
 1041loPI   C4A16650   3.137  15.713   6.795  0.1111 -0.0793 -0.0511
 1041loPI   C5A16651   2.966  15.540   7.223  0.0746 -0.2258 -0.1474
 1041loPI   C6A16652   2.860  15.755   7.552 -0.1148  0.0760 -0.0521
 1041loPI   C1B16653   2.664  15.329   5.816  0.1590 -0.0531  0.3890
 1041loPI   C2B16654   2.685  15.353   6.235  0.2149  0.0920  0.0354
 1041loPI   C3B16655   2.668  15.383   6.637  0.0317 -0.0430  0.0749
 1041loPI   C4B16656   2.713  15.162   7.032  0.1265  0.0473  0.0874
 1042loPI    C116657   7.826  18.583   4.563  0.2945  0.0690  0.2503
 1042loPI    C216658   8.058  18.365   4.804  0.3502 -0.1795 -0.0228
 1042loPI    C316659   8.000  18.250   4.425  0.0663  0.0731 -0.0591
 1042loPI   PO416660   7.771  18.804   4.757 -0.2475  0.2294  0.1966
 1042loPI   GL116661   7.766  18.649   5.132  0.2764  0.1458 -0.0009
 1042loPI   GL216662   7.630  18.287   5.144 -0.1365 -0.2219 -0.0409
 1042loPI   C1A16663   7.839  18.682   5.582 -0.0818 -0.0810  0.1218
 1042loPI   C2A16664   7.848  18.700   6.007  0.1579  0.1148  0.2280
 1042loPI   C3A16665   7.866  18.758   6.434 -0.1919 -0.0180 -0.0412
 1042loPI   C4A16666   7.795  18.787   6.872  0.1230  0.0521 -0.2213
 1042loPI   C5A16667   7.883  18.868   7.235 -0.0409  0.0971  0.0086
 1042loPI   C6A16668   7.786  18.514   7.576  0.2033  0.0290  0.1717
 1042loPI   C1B16669   7.641  18.218   5.594 -0.2863 -0.0517 -0.3181
 1042loPI   C2B16670   7.594  18.236   6.011  0.0952  0.2525 -0.0850
 1042loPI   C3B16671   7.493  18.339   6.444  0.2216 -0.1590  0.0825
 1042loPI   C4B16672   7.448  18.383   6.856 -0.2107 -0.0152 -0.0369
 1043loPI    C116673  17.643  18.558   4.414 -0.0808  0.0131  0.1153
 1043loPI    C216674  17.760  18.609   4.035 -0.0766 -0.0121  0.1132
 1043loPI    C316675  17.784  18.247   4.204  0.1488  0.0483  0.2143
 1043loPI   PO416676  17.728  18.700   4.536 -0.1112 -0.0951  0.1677
 1043loPI   GL116677  17.936  18.627   4.997  0.1809 -0.4795  0.1672
 1043loPI   GL216678  18.143  18.783   5.113 -0.1280 -0.0235  0.0217
 1043loPI   C1A16679  17.692  18.747   5.356 -0.1080 -0.0980  0.1338
 1043loPI   C2A16680  17.700  18.777   5.807 -0.4885 -0.0616 -0.2752
 1043loPI   C3A16681  17.769  18.785   6.307 -0.0157 -0.1319 -0.0416
 1043loPI   C4A16682  17.909  18.772   6.661  0.4606  0.0107  0.0596
 1043loPI   C5A16683  17.985  18.814   7.151  0.1210  0.0645  0.1005
 1043loPI   C6A16684  17.941  18.841   7.571  0.0188 -0.0356  0.1125
 1043loPI   C1B16685  18.207  18.674   5.503 -0.1367  0.3486  0.0577
 1043loPI   C2B16686  18.305  18.613   5.920  0.3220 -0.0834  0.2310
 1043loPI   C3B16687  18.309  18.661   6.333  0.3534  0.0171  0.0082
 1043loPI   C4B16688  18.359  18.702   6.779 -0.0784 -0.1366  0.0362
 1044loPI    C116689   8.949   0.103   4.780  0.1092  0.0325 -0.1886
 1044loPI    C216690   8.900   0.004   4.396  0.1405 -0.2423 -0.1237
 1044loPI    C316691   8.617   0.213   4.587  0.0698 -0.2103 -0.2626
 1044loPI   PO416692   9.051  -0.060   5.017 -0.1460  0.0935  0.0299
 1044loPI   GL116693   8.969  -0.184   5.402  0.2878 -0.0757 -0.0660
 1044loPI   GL216694   8.811   0.059   5.487  0.4522 -0.0007 -0.0269
 1044loPI   C1A16695   9.107  -0.455   5.628 -0.2398  0.2654 -0.0110
 1044loPI   C2A16696   9.084  -0.540   6.110 -0.1833  0.3042  0.0469
 1044loPI   C3A16697   9.129  -0.505   6.591  0.1604  0.0694 -0.0609
 1044loPI   C4A16698   9.058  -0.539   7.015 -0.2156 -0.2347  0.0243
 1044loPI   C5A16699   9.056  -0.140   7.309  0.0778 -0.3045  0.0414
 1044loPI   C6A16700   9.262   0.221   7.433 -0.1678  0.5019 -0.1286
 1044loPI   C1B16701   8.888  -0.055   5.926 -0.3239  0.0652 -0.0611
 1044loPI   C2B16702   8.930  -0.135   6.359  0.1221  0.2278 -0.2766
 1044loPI   C3B16703   8.884  -0.118   6.761  0.2226  0.0666 -0.1212
 1044loPI   C4B16704   8.842   0.214   7.016 -0.1128  0.2296 -0.3706
 1045loPI    C116705  11.886   4.486   4.752 -0.0466  0.2611 -0.1080
 1045loPI    C216706  11.890   4.239   4.437 -0.0270 -0.0911  0.1630
 1045loPI    C316707  12.099   4.580   4.426 -0.0696 -0.0732 -0.2229
 1045loPI   PO416708  11.637   4.522   4.872 -0.0569  0.0129 -0.0561
 1045loPI   GL116709  11.515   4.494   5.240 -0.1739  0.0618 -0.1026
 1045loPI   GL216710  11.311   4.668   5.397 -0.1074  0.0885  0.0440
 1045loPI   C1A16711  11.681   4.226   5.571 -0.1139  0.0380 -0.1928
 1045loPI   C2A16712  11.775   4.312   5.980 -0.3642 -0.1269 -0.0763
 1045loPI   C3A16713  11.722   4.445   6.464 -0.0746 -0.0097 -0.0568
 1045loPI   C4A16714  11.695   4.274   6.879 -0.1953  0.1406 -0.2606
 1045loPI   C5A16715  11.606   4.162   7.322 -0.0047 -0.2356  0.0779
 1045loPI   C6A16716  11.749   4.174   7.678  0.3457  0.0846  0.1067
 1045loPI   C1B16717  11.337   4.554   5.793 -0.2493  0.0046  0.0995
 1045loPI   C2B16718  11.331   4.541   6.203 -0.0594 -0.1016  0.1227
 1045loPI   C3B16719  11.297   4.598   6.673  0.0643 -0.0481 -0.1679
 1045loPI   C4B16720  11.256   4.515   7.127  0.0631  0.0744 -0.1762
 1046loPI    C116721   5.170   1.974   4.829 -0.1152 -0.0991  0.0338
 1046loPI    C216722   5.119   2.302   5.053 -0.2010 -0.1262  0.0543
 1046loPI    C316723   5.488   2.165   4.980 -0.1548  0.0773 -0.1027
 1046loPI   PO416724   4.920   1.837   4.890 -0.0153  0.2347 -0.0204
 1046loPI   GL116725   4.977   1.701   5.295 -0.0135 -0.0607 -0.2405
 1046loPI   GL216726   5.213   1.799   5.431 -0.0488  0.2933 -0.0719
 1046loPI   C1A16727   4.659   1.584   5.629 -0.1586 -0.0861  0.0166
 1046loPI   C2A16728   4.675   1.548   6.091 -0.2228 -0.1255  0.1427
 1046loPI   C3A16729   4.837   1.576   6.598  0.3697  0.2439 -0.1407
 1046loPI   C4A16730   4.919   1.446   7.019 -0.0593  0.2081  0.1724
 1046loPI   C5A16731   4.990   1.227   7.430 -0.2989 -0.0599 -0.4068
 1046loPI   C6A16732   5.292   1.231   7.770 -0.2148  0.2571  0.1291
 1046loPI   C1B16733   5.156   1.754   5.843 -0.0990 -0.0958  0.0943
 1046loPI   C2B16734   5.302   1.627   6.239 -0.5786 -0.0569 -0.0153
 1046loPI   C3B16735   5.637   1.598   6.578  0.1463  0.1452 -0.0254
 1046loPI   C4B16736   6.011   1.593   6.792  0.5062 -0.1245 -0.0919
 1047loPI    C116737  12.312   5.855   5.133 -0.1197 -0.0288  0.0876
 1047loPI    C216738  12.029   6.086   5.298  0.0466  0.1575  0.1161
 1047loPI    C316739  12.365   6.251   5.157  0.0289 -0.0321 -0.1569
 1047loPI   PO416740  12.402   5.665   5.313 -0.0989 -0.1265  0.0229
 1047loPI   GL116741  12.561   5.785   5.695  0.0939 -0.1167  0.1937
 1047loPI   GL216742  12.307   6.084   5.689 -0.2205 -0.3079 -0.2537
 1047loPI   C1A16743  12.633   5.534   6.108 -0.0190 -0.0253 -0.0284
 1047loPI   C2A16744  12.612   5.389   6.562 -0.0760 -0.2098  0.0889
 1047loPI   C3A16745  12.574   5.343   6.956 -0.2192 -0.2511  0.1148
 1047loPI   C4A16746  12.547   5.253   7.447  0.1881  0.2244 -0.0251
 1047loPI   C5A16747  12.915   5.074   7.751  0.0414 -0.0417  0.1107
 1047loPI   C6A16748  13.324   4.933   7.736  0.2676 -0.2675 -0.2807
 1047loPI   C1B16749  12.277   6.258   6.137 -0.0452  0.2310 -0.1185
 1047loPI   C2B16750  12.470   6.375   6.491 -0.0702 -0.1325  0.0492
 1047loPI   C3B16751  12.631   6.422   6.919 -0.1354 -0.0314 -0.3175
 1047loPI   C4B16752  12.655   6.312   7.313 -0.0747 -0.1815 -0.0903
 1048loPI    C116753  13.060   8.636   5.748 -0.0872 -0.0403 -0.0450
 1048loPI    C216754  12.902   8.629   5.380 -0.0569 -0.1254 -0.0566
 1048loPI    C316755  13.281   8.745   5.433 -0.1128  0.0491 -0.0323
 1048loPI   PO416756  12.923   8.707   5.917 -0.1465 -0.1155 -0.0450
 1048loPI   GL116757  13.160   8.820   6.210  0.0834 -0.1456  0.2239
 1048loPI   GL216758  13.404   9.124   6.260  0.0213 -0.1874 -0.1689
 1048loPI   C1A16759  12.957   8.631   6.643  0.5602  0.1182 -0.1095
 1048loPI   C2A16760  12.774   8.695   7.007 -0.0384  0.0323 -0.0067
 1048loPI   C3A16761  12.501   8.942   7.245 -0.2771  0.2928 -0.1072
 1048loPI   C4A16762  12.104   8.797   7.364  0.0880 -0.1476 -0.3210
 1048loPI   C5A16763  11.929   8.725   7.704  0.0758  0.2840 -0.3171
 1048loPI   C6A16764  11.671   8.732   8.120  0.1000 -0.0300 -0.0497
 1048loPI   C1B16765  13.328   8.963   6.657 -0.2600 -0.4440 -0.0798
 1048loPI   C2B16766  13.235   9.181   6.994  0.0201 -0.1212  0.2955
 1048loPI   C3B16767  13.210   9.345   7.449 -0.0749  0.0471 -0.3261
 1048loPI   C4B16768  13.020   9.462   7.826 -0.1586  0.1241  0.1057
 1049loPI    C116769  16.642   4.619   5.444 -0.2414  0.0048  0.2997
 1049loPI    C216770  16.661   5.000   5.563  0.1167  0.1382 -0.1533
 1049loPI    C316771  16.697   4.910   5.175  0.2756 -0.3771 -0.0271
 1049loPI   PO416772  16.400   4.531   5.563 -0.2030 -0.0902 -0.1649
 1049loPI   GL116773  16.171   4.760   6.016 -0.1232  0.0899  0.1996
 1049loPI   GL216774  16.538   4.933   6.074 -0.0938  0.0571  0.0981
 1049loPI   C1A16775  16.144   4.664   6.441  0.4077  0.4461  0.2544
 1049loPI   C2A16776  16.100   4.507   6.868  0.0402 -0.0047  0.5927
 1049loPI   C3A16777  16.146   4.566   7.308  0.2062 -0.0140  0.2594
 1049loPI   C4A16778  16.334   4.575   7.555 -0.1610  0.1659 -0.1867
 1049loPI   C5A16779  16.255   4.422   7.968  0.1524 -0.0227 -0.2273
 1049loPI   C6A16780  15.905   4.085   8.200 -0.1602 -0.0306 -0.2312
 1049loPI   C1B16781  16.593   4.586   6.296  0.0885 -0.1511 -0.2057
 1049loPI   C2B16782  16.569   4.445   6.698  0.0461  0.0343  0.1191
 1049loPI   C3B16783  16.736   4.369   7.110  0.2238  0.1429  0.1431
 1049loPI   C4B16784  16.786   4.363   7.602 -0.2517  0.1389 -0.3222
 1050loPI    C116785   3.314  13.446   4.518 -0.1160 -0.2082  0.0780
 1050loPI    C216786   3.178  13.299   4.172  0.0532 -0.2735  0.0383
 1050loPI    C316787   3.569  13.369   4.220 -0.0270  0.2042  0.0415
 1050loPI   PO416788   3.244  13.246   4.756 -0.0218  0.0067  0.3942
 1050loPI   GL116789   3.158  13.293   5.161 -0.0012 -0.0078 -0.0059
 1050loPI   GL216790   3.008  13.063   5.268  0.1346  0.0614 -0.2504
 1050loPI   C1A16791   3.144  13.430   5.657 -0.1452  0.2194 -0.0751
 1050loPI   C2A16792   3.312  13.529   6.218  0.0089 -0.0675 -0.2298
 1050loPI   C3A16793   3.469  13.598   6.620 -0.0647 -0.2010  0.2397
 1050loPI   C4A16794   3.550  13.766   6.979 -0.1060  0.0203  0.0613
 1050loPI   C5A16795   3.346  13.837   7.237 -0.0480 -0.0403  0.0285
 1050loPI   C6A16796   3.462  13.753   7.619  0.0114  0.4921 -0.1080
 1050loPI   C1B16797   3.232  12.911   5.567  0.1390  0.1181 -0.1049
 1050loPI   C2B16798   3.089  12.923   5.984 -0.2131  0.0369  0.0429
 1050loPI   C3B16799   3.237  13.015   6.361 -0.0388  0.6834  0.0935
 1050loPI   C4B16800   3.715  13.149   6.470 -0.1313 -0.2438  0.0468
 1051loPI    C116801  12.502  11.823   5.178 -0.2152 -0.1852 -0.1199
 1051loPI    C216802  12.598  11.538   4.915 -0.0002 -0.2088 -0.0188
 1051loPI    C316803  12.607  11.922   4.805  0.1781 -0.2129 -0.0208
 1051loPI   PO416804  12.354  11.784   5.271  0.2797 -0.1425 -0.1830
 1051loPI   GL116805  12.294  11.602   5.680 -0.2280  0.0299  0.1040
 1051loPI   GL216806  12.570  11.452   5.839 -0.2778 -0.3304 -0.1094
 1051loPI   C1A16807  12.176  11.489   6.145  0.0618 -0.1727  0.1516
 1051loPI   C2A16808  12.080  11.451   6.632  0.0688 -0.2500 -0.2516
 1051loPI   C3A16809  12.216  11.792   6.810 -0.1700  0.0786  0.0414
 1051loPI   C4A16810  12.142  11.741   7.241  0.0009 -0.3052 -0.2651
 1051loPI   C5A16811  12.075  11.664   7.641 -0.0868  0.1141 -0.1742
 1051loPI   C6A16812  12.305  11.454   8.003  0.1264  0.0015 -0.0803
 1051loPI   C1B16813  12.719  11.520   6.247 -0.1170 -0.1023  0.3126
 1051loPI   C2B16814  12.568  11.368   6.647 -0.3939 -0.2974 -0.3907
 1051loPI   C3B16815  12.514  11.410   6.990  0.0793  0.2380 -0.1259
 1051loPI   C4B16816  12.561  11.479   7.385 -0.0814 -0.1046 -0.1209
 1052loPI    C116817   9.900  12.888   4.910 -0.0726 -0.2304 -0.2416
 1052loPI    C216818   9.700  12.766   4.586 -0.0145 -0.0275 -0.3556
 1052loPI    C316819  10.083  12.876   4.555 -0.0870  0.2567 -0.2717
 1052loPI   PO416820   9.757  12.987   5.035  0.1433 -0.1545  0.1701
 1052loPI   GL116821   9.570  13.355   5.318  0.0532 -0.0458 -0.1291
 1052loPI   GL216822   9.455  13.068   5.377  0.0686 -0.3788 -0.1755
 1052loPI   C1A16823   9.649  13.534   5.702  0.1811  0.0693  0.2256
 1052loPI   C2A16824   9.706  13.564   6.163 -0.0681 -0.2109  0.2231
 1052loPI   C3A16825   9.752  13.686   6.584  0.2655  0.0094 -0.0751
 1052loPI   C4A16826   9.629  13.619   6.994  0.2406  0.1804 -0.1210
 1052loPI   C5A16827   9.809  13.562   7.345 -0.1331 -0.2130 -0.2174
 1052loPI   C6A16828  10.094  13.811   7.592 -0.0836  0.1720  0.3007
 1052loPI   C1B16829   9.423  13.125   5.821  0.1672  0.0317 -0.1408
 1052loPI   C2B16830   9.526  13.169   6.323 -0.1906  0.0030  0.0279
 1052loPI   C3B16831   9.479  13.171   6.784  0.3076 -0.0658 -0.1774
 1052loPI   C4B16832   9.392  13.157   7.197 -0.1797  0.1099  0.0544
 1053loPI    C116833  15.336   6.919   5.461 -0.1839 -0.1117 -0.0343
 1053loPI    C216834  15.491   6.558   5.533 -0.0350 -0.0397  0.0101
 1053loPI    C316835  15.395   6.663   5.159  0.2151 -0.0104 -0.0478
 1053loPI   PO416836  15.269   6.977   5.697  0.0454 -0.2472 -0.1283
 1053loPI   GL116837  15.453   6.685   6.055 -0.1751  0.0054 -0.2495
 1053loPI   GL216838  15.329   6.851   6.202  0.2965 -0.0777  0.2593
 1053loPI   C1A16839  15.360   6.296   6.410  0.1963  0.1235 -0.2451
 1053loPI   C2A16840  15.298   6.394   6.808  0.2052 -0.1029  0.0152
 1053loPI   C3A16841  15.386   6.364   7.247  0.0852 -0.0174  0.0205
 1053loPI   C4A16842  15.334   6.104   7.512  0.0316  0.0945 -0.3927
 1053loPI   C5A16843  15.268   5.784   7.923 -0.0909 -0.1617  0.2620
 1053loPI   C6A16844  14.972   5.907   8.261  0.0929  0.0139 -0.1584
 1053loPI   C1B16845  15.408   6.850   6.584  0.0958 -0.2015  0.1024
 1053loPI   C2B16846  15.406   6.968   7.035 -0.0059 -0.2445 -0.0724
 1053loPI   C3B16847  15.022   6.982   7.372 -0.1237 -0.3153 -0.1347
 1053loPI   C4B16848  14.760   6.997   7.597 -0.0574 -0.0800 -0.1759
 1054loPI    C116849   2.247  13.280   4.820 -0.0488 -0.0675  0.0947
 1054loPI    C216850   2.247  13.013   4.522 -0.2534 -0.0257  0.0559
 1054loPI    C316851   2.062  13.364   4.476  0.1655  0.1993  0.0417
 1054loPI   PO416852   2.198  13.209   5.014 -0.2283  0.3842 -0.0464
 1054loPI   GL116853   2.040  13.141   5.365 -0.0498  0.0454  0.3666
 1054loPI   GL216854   1.798  12.944   5.421 -0.0641  0.2790  0.0212
 1054loPI   C1A16855   2.199  13.012   5.745  0.0025 -0.0127  0.2504
 1054loPI   C2A16856   2.138  13.114   6.134 -0.0792  0.1746  0.1928
 1054loPI   C3A16857   2.071  13.193   6.595  0.1356 -0.1239 -0.1434
 1054loPI   C4A16858   2.154  13.328   7.039 -0.1521 -0.3470  0.1439
 1054loPI   C5A16859   2.276  13.330   7.352  0.1313  0.3352 -0.2669
 1054loPI   C6A16860   2.413  13.207   7.748  0.1910  0.0914 -0.2224
 1054loPI   C1B16861   1.766  12.867   5.926  0.5735 -0.3179  0.2397
 1054loPI   C2B16862   1.738  12.797   6.410  0.0221 -0.3512  0.1955
 1054loPI   C3B16863   1.636  12.931   6.778 -0.1767 -0.0445  0.0597
 1054loPI   C4B16864   1.747  13.018   7.100  0.4786  0.2240 -0.1306
 1055loPI    C116865  18.078   8.171   5.204 -0.3415 -0.2078 -0.1077
 1055loPI    C216866  18.181   7.999   4.858  0.4861  0.1520 -0.0627
 1055loPI    C316867  18.049   8.377   4.862  0.4126  0.1259  0.0102
 1055loPI   PO416868  17.964   7.918   5.328  0.2091  0.0392  0.1172
 1055loPI   GL116869  18.063   7.649   5.663  0.0822  0.0110 -0.1016
 1055loPI   GL216870  17.992   7.890   5.942  0.2031  0.0690  0.1134
 1055loPI   C1A16871  18.317   7.571   5.976 -0.0536  0.0991 -0.0008
 1055loPI   C2A16872  18.805   7.444   6.230 -0.0293  0.3387 -0.1014
 1055loPI   C3A16873  18.937   7.436   6.651 -0.1438  0.0610  0.0697
 1055loPI   C4A16874  19.181   7.603   7.090 -0.0554  0.0136 -0.0953
 1055loPI   C5A16875  19.555   7.346   7.260 -0.0263 -0.0321  0.1301
 1055loPI   C6A16876  19.962   7.316   7.345  0.1655 -0.2791  0.0067
 1055loPI   C1B16877  17.918   7.721   6.340  0.1554  0.3254  0.0875
 1055loPI   C2B16878  18.051   7.936   6.687  0.2563 -0.0909  0.0269
 1055loPI   C3B16879  18.192   7.815   7.132  0.1959 -0.1362 -0.0652
 1055loPI   C4B16880  18.106   7.711   7.584  0.0408  0.1655  0.1876
 1056loPI    C116881   1.772   4.201   5.044 -0.1092  0.1675  0.0964
 1056loPI    C216882   1.719   4.131   4.654  0.1487 -0.0863  0.1035
 1056loPI    C316883   1.748   3.825   4.910 -0.1370  0.0797  0.3416
 1056loPI   PO416884   1.980   4.377   5.054  0.0155 -0.1605 -0.0281
 1056loPI   GL116885   2.354   4.556   5.249 -0.2919  0.1286  0.0074
 1056loPI   GL216886   2.160   4.329   5.487  0.0946 -0.0518 -0.4100
 1056loPI   C1A16887   2.421   4.683   5.706 -0.2574 -0.0377  0.1204
 1056loPI   C2A16888   2.531   4.709   6.130 -0.1317 -0.3844 -0.0474
 1056loPI   C3A16889   2.503   4.713   6.625 -0.0506  0.0237  0.0722
 1056loPI   C4A16890   2.564   4.671   7.103  0.0345 -0.1264 -0.2161
 1056loPI   C5A16891   2.834   4.834   7.384 -0.2096  0.1043 -0.0452
 1056loPI   C6A16892   2.868   5.228   7.647 -0.2426  0.1868  0.1327
 1056loPI   C1B16893   2.509   4.102   5.594  0.3011  0.0658  0.0899
 1056loPI   C2B16894   2.713   3.826   5.964 -0.0968 -0.4080  0.1887
 1056loPI   C3B16895   2.809   3.927   6.375 -0.2128  0.1482  0.1162
 1056loPI   C4B16896   2.900   3.823   6.793  0.3802  0.2273 -0.1412
 1057loPI    C116897  14.387  18.007   5.099  0.0104 -0.0838 -0.3835
 1057loPI    C216898  14.404  18.398   5.182 -0.3624 -0.1722  0.1669
 1057loPI    C316899  14.732  18.172   5.214 -0.1678  0.0719 -0.0574
 1057loPI   PO416900  14.208  17.894   5.208 -0.0517 -0.0384 -0.1069
 1057loPI   GL116901  14.039  17.885   5.559 -0.2516 -0.1709 -0.0594
 1057loPI   GL216902  13.862  18.043   5.666  0.1640  0.1395  0.2228
 1057loPI   C1A16903  14.097  17.748   5.961 -0.0793 -0.1972 -0.0025
 1057loPI   C2A16904  14.158  17.668   6.391 -0.0383  0.1906 -0.1759
 1057loPI   C3A16905  14.054  17.494   6.825  0.0684 -0.2620 -0.0894
 1057loPI   C4A16906  14.239  17.035   7.065  0.3043 -0.1648  0.0521
 1057loPI   C5A16907  14.300  16.857   7.448 -0.3882  0.0687 -0.1050
 1057loPI   C6A16908  14.572  16.627   7.724  0.1210  0.1232 -0.1183
 1057loPI   C1B16909  13.730  18.033   6.177  0.1113  0.0044 -0.1039
 1057loPI   C2B16910  13.770  17.894   6.639  0.0446 -0.2328  0.0185
 1057loPI   C3B16911  14.013  18.009   7.006 -0.0285 -0.0699  0.2508
 1057loPI   C4B16912  14.409  17.795   7.177 -0.2225 -0.1078 -0.2310
 1058loPI    C116913   5.137  10.272   5.132 -0.2647  0.0393 -0.2244
 1058loPI    C216914   4.759  10.156   5.196 -0.1557 -0.2678 -0.1206
 1058loPI    C316915   5.016   9.910   5.013  0.0534 -0.1477  0.0064
 1058loPI   PO416916   5.276  10.305   5.356 -0.0189  0.0988  0.2928
 1058loPI   GL116917   5.585  10.535   5.563 -0.0619 -0.1123  0.2677
 1058loPI   GL216918   5.799  10.762   5.462  0.2876  0.2881 -0.1667
 1058loPI   C1A16919   5.710  10.785   5.906  0.0527 -0.0116 -0.0830
 1058loPI   C2A16920   5.636  10.709   6.365  0.0589  0.0324 -0.0782
 1058loPI   C3A16921   5.476  10.572   6.723 -0.4148 -0.1986  0.2150
 1058loPI   C4A16922   5.484  10.608   7.245 -0.0941  0.1373 -0.0366
 1058loPI   C5A16923   5.826  10.341   7.489 -0.2966  0.0730 -0.2925
 1058loPI   C6A16924   6.174  10.191   7.735 -0.2739  0.0070  0.0043
 1058loPI   C1B16925   6.107  10.564   5.803 -0.3737  0.0437 -0.1151
 1058loPI   C2B16926   6.113  10.656   6.176  0.4296 -0.0879  0.1688
 1058loPI   C3B16927   6.074  10.795   6.598 -0.1928  0.2949  0.1092
 1058loPI   C4B16928   6.350  10.925   6.944 -0.1730  0.2010 -0.0138
 1059loPI    C116929  14.861   0.829   4.599  0.0750  0.0707  0.2537
 1059loPI    C216930  15.198   0.655   4.472 -0.0229 -0.0090  0.1013
 1059loPI    C316931  15.146   1.049   4.425  0.0326 -0.0030  0.0891
 1059loPI   PO416932  14.809   0.636   4.962  0.2242 -0.0138 -0.0377
 1059loPI   GL116933  14.952   0.769   5.409  0.0145  0.1904 -0.2191
 1059loPI   GL216934  14.577   0.653   5.458  0.0409  0.1072  0.0669
 1059loPI   C1A16935  15.057   0.630   5.845 -0.1747  0.0801 -0.1782
 1059loPI   C2A16936  14.997   0.585   6.278 -0.1106  0.0053  0.1199
 1059loPI   C3A16937  14.969   0.630   6.660  0.0912 -0.1067 -0.1148
 1059loPI   C4A16938  15.120   0.650   7.147  0.3424 -0.1812 -0.2844
 1059loPI   C5A16939  15.161   0.518   7.542 -0.2316 -0.0187 -0.3741
 1059loPI   C6A16940  15.241   0.622   7.941  0.0222 -0.0599 -0.2018
 1059loPI   C1B16941  14.533   0.785   5.839  0.1796 -0.0359 -0.1555
 1059loPI   C2B16942  14.492   0.823   6.314 -0.0529  0.0268 -0.3136
 1059loPI   C3B16943  14.471   0.849   6.663 -0.0195 -0.0824 -0.1049
 1059loPI   C4B16944  14.604   0.856   7.049  0.3310  0.3180  0.2031
 1060loPI    C116945   0.397  13.872   5.147 -0.1406 -0.1421 -0.3828
 1060loPI    C216946   0.159  13.620   4.948 -0.3328  0.0920 -0.4546
 1060loPI    C316947   0.035  13.991   5.027 -0.2251  0.0320  0.0281
 1060loPI   PO416948   0.494  13.746   5.370 -0.1349 -0.1831  0.0708
 1060loPI   GL116949   0.821  13.869   5.735  0.1186 -0.1278 -0.3313
 1060loPI   GL216950   0.670  14.153   5.636 -0.0484 -0.1874  0.1331
 1060loPI   C1A16951   0.638  13.764   6.204 -0.1484 -0.2056  0.2179
 1060loPI   C2A16952   0.722  13.787   6.682  0.0365  0.0978  0.0944
 1060loPI   C3A16953   0.780  14.017   7.018  0.1655  0.2080  0.0366
 1060loPI   C4A16954   0.493  14.312   7.366  0.2913  0.0750  0.0472
 1060loPI   C5A16955   0.278  14.550   7.607  0.1428  0.0097 -0.3273
 1060loPI   C6A16956   0.264  14.896   7.894  0.2247 -0.2584  0.1725
 1060loPI   C1B16957   0.827  14.206   6.126 -0.1290  0.3549  0.1997
 1060loPI   C2B16958   1.074  14.004   6.383 -0.2871 -0.0822 -0.1325
 1060loPI   C3B16959   1.246  13.953   6.753 -0.0332 -0.3437 -0.1394
 1060loPI   C4B16960   1.317  14.205   7.144  0.1943  0.3163  0.1561
 1061loPI    C116961   8.201   1.138   4.910  0.1937  0.1241 -0.1252
 1061loPI    C216962   7.992   0.921   4.647  0.2066  0.1113 -0.1248
 1061loPI    C316963   8.306   1.136   4.524  0.1195  0.2273 -0.1465
 1061loPI   PO416964   8.382   1.111   5.108  0.0409  0.1176  0.1344
 1061loPI   GL116965   8.532   1.118   5.396  0.0607 -0.1356  0.1468
 1061loPI   GL216966   8.600   1.344   5.560 -0.0727  0.4839 -0.1186
 1061loPI   C1A16967   8.436   0.799   5.754  0.0243 -0.1209 -0.0788
 1061loPI   C2A16968   8.348   0.813   6.266  0.2574 -0.0679  0.1625
 1061loPI   C3A16969   8.500   0.839   6.676  0.0908  0.1964  0.1742
 1061loPI   C4A16970   8.780   0.726   7.028  0.2497 -0.2099 -0.0164
 1061loPI   C5A16971   9.031   0.631   7.390 -0.0876  0.1206 -0.2045
 1061loPI   C6A16972   9.278   0.746   7.769 -0.1480  0.3425  0.1717
 1061loPI   C1B16973   8.621   1.287   5.947 -0.0442 -0.1965  0.0008
 1061loPI   C2B16974   8.844   1.255   6.317  0.2132  0.1329 -0.0419
 1061loPI   C3B16975   9.239   1.188   6.383 -0.2528  0.0534 -0.0099
 1061loPI   C4B16976   9.580   1.478   6.486 -0.2059 -0.3254 -0.0750
 1062loPI    C116977   6.132   9.108   5.264 -0.1754  0.2329  0.1406
 1062loPI    C216978   6.465   9.268   5.418  0.0382 -0.2085  0.1534
 1062loPI    C316979   6.464   9.128   5.043 -0.1942 -0.0320  0.0850
 1062loPI   PO416980   5.936   9.144   5.392  0.1383  0.1617 -0.0073
 1062loPI   GL116981   5.637   9.282   5.721  0.1234  0.1997  0.2456
 1062loPI   GL216982   5.770   9.593   5.796  0.3369  0.1617 -0.0933
 1062loPI   C1A16983   5.721   9.290   6.203  0.1790 -0.3050 -0.0285
 1062loPI   C2A16984   5.941   9.119   6.556  0.5375 -0.0790 -0.1434
 1062loPI   C3A16985   5.750   8.902   6.901  0.0915  0.1649 -0.0267
 1062loPI   C4A16986   5.612   8.825   7.401  0.0074 -0.1188 -0.2680
 1062loPI   C5A16987   5.527   8.647   7.779 -0.1488 -0.1064 -0.0306
 1062loPI   C6A16988   5.410   8.394   8.033  0.1307 -0.0310 -0.1203
 1062loPI   C1B16989   5.664   9.789   6.092 -0.1246 -0.1543  0.3672
 1062loPI   C2B16990   5.644   9.646   6.539 -0.0622 -0.0100 -0.1540
 1062loPI   C3B16991   5.673   9.374   7.028  0.1711 -0.1512  0.2832
 1062loPI   C4B16992   5.941   9.392   7.353 -0.0891 -0.0021 -0.2508
 1063loPI    C116993   5.612   4.687   4.457  0.0285 -0.2698 -0.0946
 1063loPI    C216994   5.768   5.053   4.492 -0.0982 -0.2338  0.1165
 1063loPI    C316995   5.949   4.779   4.263  0.0134 -0.0497 -0.0191
 1063loPI   PO416996   5.556   4.614   4.705 -0.0360 -0.0949 -0.1816
 1063loPI   GL116997   5.762   4.737   5.100 -0.0875  0.2341  0.0880
 1063loPI   GL216998   5.755   5.069   4.966  0.0219  0.1288 -0.1202
 1063loPI   C1A16999   5.896   4.727   5.516 -0.1289  0.0474  0.0828
 1063loPI   C2A17000   5.935   4.772   5.886 -0.0608 -0.2790 -0.1304
 1063loPI   C3A17001   5.943   4.619   6.312 -0.2855 -0.1063 -0.0837
 1063loPI   C4A17002   5.967   4.648   6.762 -0.0839 -0.3242 -0.0187
 1063loPI   C5A17003   5.970   4.661   7.166 -0.2629 -0.0896 -0.2597
 1063loPI   C6A17004   5.673   4.558   7.484 -0.0805  0.1217  0.0964
 1063loPI   C1B17005   5.514   5.049   5.384  0.2357  0.1747 -0.0397
 1063loPI   C2B17006   5.485   4.998   5.803  0.2373  0.0449 -0.2149
 1063loPI   C3B17007   5.535   4.955   6.234  0.1294  0.0193  0.2665
 1063loPI   C4B17008   5.528   4.857   6.657 -0.1489 -0.3332 -0.0694
 1064loPI    C117009  18.179  14.906   5.396  0.2017  0.2968 -0.0838
 1064loPI    C217010  17.925  14.856   5.092 -0.0242 -0.0316  0.1525
 1064loPI    C317011  18.272  14.657   5.097 -0.0372 -0.0550  0.1276
 1064loPI   PO417012  17.909  14.941   5.635 -0.0182 -0.1265 -0.0352
 1064loPI   GL117013  17.761  14.650   5.907 -0.1756  0.2751 -0.2221
 1064loPI   GL217014  17.513  14.773   5.885  0.1834 -0.1910  0.1570
 1064loPI   C1A17015  18.093  14.664   6.290 -0.3733 -0.0276 -0.1571
 1064loPI   C2A17016  18.234  14.716   6.774 -0.1734  0.0602  0.2092
 1064loPI   C3A17017  18.365  14.940   7.212 -0.1021  0.0943  0.0718
 1064loPI   C4A17018  18.313  15.155   7.587  0.0304 -0.1532  0.1430
 1064loPI   C5A17019  18.351  15.634   7.648 -0.1015 -0.0116  0.1910
 1064loPI   C6A17020  18.376  15.926   7.524  0.0790 -0.1754 -0.0764
 1064loPI   C1B17021  17.671  15.050   6.259 -0.1421 -0.2037  0.3423
 1064loPI   C2B17022  17.651  15.411   6.487  0.0988 -0.2573 -0.0557
 1064loPI   C3B17023  17.604  15.511   6.929  0.3737  0.1538 -0.0381
 1064loPI   C4B17024  17.582  15.773   7.301 -0.3781 -0.3231  0.1180
 1065loPI    C117025  12.636   9.353   5.360 -0.1305 -0.0943 -0.0325
 1065loPI    C217026  12.958   9.117   5.341 -0.0575 -0.0089  0.1289
 1065loPI    C317027  12.830   9.306   5.013 -0.0090 -0.1296  0.0396
 1065loPI   PO417028  12.671   9.442   5.571  0.0755 -0.2655  0.1126
 1065loPI   GL117029  12.656   9.584   5.930 -0.1699 -0.0456 -0.1257
 1065loPI   GL217030  12.301   9.721   6.017 -0.0707 -0.0634  0.1046
 1065loPI   C1A17031  12.660   9.466   6.363 -0.0878 -0.2153 -0.1284
 1065loPI   C2A17032  12.730   9.646   6.778 -0.0886 -0.0527 -0.1983
 1065loPI   C3A17033  12.758   9.440   7.196 -0.0285  0.2163  0.0366
 1065loPI   C4A17034  12.614   9.226   7.630 -0.1544 -0.1040 -0.0193
 1065loPI   C5A17035  12.653   9.176   8.038  0.0041 -0.3619  0.2742
 1065loPI   C6A17036  12.970   9.167   8.284 -0.0170  0.1116 -0.0742
 1065loPI   C1B17037  12.314   9.781   6.489 -0.1800 -0.1783  0.1215
 1065loPI   C2B17038  12.240   9.743   7.008  0.2684 -0.0769 -0.0915
 1065loPI   C3B17039  12.353   9.788   7.533  0.0207  0.1501 -0.1687
 1065loPI   C4B17040  12.633   9.872   7.713 -0.2591  0.2554 -0.0022
 1066loPI    C117041   7.657   7.646   5.062 -0.0212 -0.0108 -0.2061
 1066loPI    C217042   8.015   7.819   5.104 -0.1609  0.1931  0.2017
 1066loPI    C317043   7.736   7.990   4.875 -0.1009  0.1958  0.1304
 1066loPI   PO417044   7.551   7.626   5.372 -0.0472 -0.0379  0.1035
 1066loPI   GL117045   7.394   7.536   5.692  0.2753 -0.2429  0.0425
 1066loPI   GL217046   7.648   7.571   5.853 -0.0136 -0.2805  0.0359
 1066loPI   C1A17047   7.365   7.122   5.951 -0.0095 -0.1035  0.0545
 1066loPI   C2A17048   7.347   6.875   6.309  0.0364  0.2144  0.0086
 1066loPI   C3A17049   7.356   6.915   6.692  0.0521  0.3663  0.2347
 1066loPI   C4A17050   7.226   6.896   7.058  0.1355 -0.3283 -0.2690
 1066loPI   C5A17051   7.044   6.913   7.403 -0.0391 -0.1507  0.1437
 1066loPI   C6A17052   7.123   6.807   7.833 -0.0513 -0.0759  0.0699
 1066loPI   C1B17053   7.603   7.930   6.283 -0.1703 -0.1041  0.0548
 1066loPI   C2B17054   7.830   8.121   6.577 -0.0659  0.0482 -0.0810
 1066loPI   C3B17055   8.187   8.310   6.860  0.5565 -0.0085 -0.1161
 1066loPI   C4B17056   8.604   8.372   7.092  0.0355 -0.4478  0.0618
 1067loPI    C117057  11.596   0.855   4.696  0.3716  0.0158  0.0512
 1067loPI    C217058  11.781   0.501   4.674  0.2087 -0.0644 -0.0598
 1067loPI    C317059  11.751   0.731   4.348  0.0425 -0.0890 -0.0628
 1067loPI   PO417060  11.691   0.981   4.908 -0.2925 -0.0828  0.0989
 1067loPI   GL117061  11.856   0.851   5.236  0.3644  0.0257  0.0768
 1067loPI   GL217062  11.952   1.208   5.290  0.2198  0.2789 -0.3237
 1067loPI   C1A17063  12.134   0.872   5.554  0.1438  0.1854 -0.1792
 1067loPI   C2A17064  12.264   1.105   5.843  0.1661  0.0789  0.2140
 1067loPI   C3A17065  12.318   1.073   6.352 -0.0910 -0.0844 -0.0982
 1067loPI   C4A17066  12.354   0.990   6.755 -0.1078  0.1801 -0.1926
 1067loPI   C5A17067  12.377   0.941   7.150 -0.3181 -0.0886 -0.0043
 1067loPI   C6A17068  12.094   0.955   7.447  0.1709  0.0874  0.2406
 1067loPI   C1B17069  11.759   1.269   5.676 -0.3844  0.1139 -0.0932
 1067loPI   C2B17070  11.858   1.270   6.107  0.1748  0.0803  0.4301
 1067loPI   C3B17071  11.877   1.325   6.502 -0.0348 -0.1649  0.1047
 1067loPI   C4B17072  11.901   1.226   6.923 -0.0312 -0.0096  0.0424
 1068loPI    C117073  13.017   5.814   4.819  0.0299  0.0504  0.0949
 1068loPI    C217074  13.095   6.138   4.597 -0.1107 -0.1123 -0.1982
 1068loPI    C317075  12.754   6.116   4.805 -0.0023  0.0182 -0.0038
 1068loPI   PO417076  13.238   5.784   4.967  0.0548  0.3255  0.0435
 1068loPI   GL117077  13.239   5.698   5.429 -0.2043 -0.0833 -0.1199
 1068loPI   GL217078  13.271   5.373   5.634 -0.0703 -0.1359 -0.1367
 1068loPI   C1A17079  13.037   5.718   5.863 -0.2271  0.0934  0.2563
 1068loPI   C2A17080  13.136   5.692   6.298 -0.0655 -0.0546 -0.0900
 1068loPI   C3A17081  13.107   5.623   6.750 -0.1218  0.0279 -0.0821
 1068loPI   C4A17082  13.098   5.619   7.163  0.1197  0.0833  0.1140
 1068loPI   C5A17083  13.009   5.546   7.607  0.0266  0.1500 -0.0224
 1068loPI   C6A17084  13.290   5.620   7.975 -0.0971 -0.2195 -0.0947
 1068loPI   C1B17085  13.091   5.225   6.001  0.1528  0.0766 -0.1282
 1068loPI   C2B17086  13.035   5.150   6.379  0.2876 -0.2195  0.1134
 1068loPI   C3B17087  13.004   5.143   6.858  0.0686  0.1571 -0.0280
 1068loPI   C4B17088  12.969   5.094   7.257  0.0611 -0.3209  0.0207
 1069loPI    C117089  12.671   6.605   5.120  0.0607  0.0959  0.0799
 1069loPI    C217090  12.844   6.582   4.759 -0.0311  0.1213  0.0340
 1069loPI    C317091  12.446   6.618   4.789 -0.0430 -0.0853  0.1416
 1069loPI   PO417092  12.812   6.439   5.294  0.1907  0.0552 -0.0075
 1069loPI   GL117093  12.843   6.237   5.670  0.0376 -0.3544  0.0827
 1069loPI   GL217094  13.174   6.121   5.620  0.2939 -0.1268  0.0131
 1069loPI   C1A17095  12.736   6.075   6.091  0.3880  0.3611 -0.1188
 1069loPI   C2A17096  12.712   5.958   6.560  0.0855  0.1919  0.1593
 1069loPI   C3A17097  12.667   5.867   6.957  0.2494  0.1223  0.0567
 1069loPI   C4A17098  12.569   5.725   7.372 -0.0124  0.1482 -0.1144
 1069loPI   C5A17099  12.600   5.696   7.816 -0.0944 -0.0856 -0.0679
 1069loPI   C6A17100  12.303   5.806   8.005  0.0010 -0.1391  0.3395
 1069loPI   C1B17101  13.200   6.198   6.136  0.0609 -0.1266  0.1109
 1069loPI   C2B17102  13.172   6.125   6.592  0.2024 -0.0229 -0.0676
 1069loPI   C3B17103  13.066   6.134   6.921  0.0797  0.0061  0.4762
 1069loPI   C4B17104  13.095   6.123   7.326 -0.0671  0.2499 -0.1983
 1070loPI    C117105   8.946   2.970   4.723  0.0347 -0.0130  0.3105
 1070loPI    C217106   9.325   2.924   4.603 -0.0581 -0.1705  0.0705
 1070loPI    C317107   9.210   3.266   4.775  0.0649  0.0934 -0.3563
 1070loPI   PO417108   8.872   2.718   4.866 -0.3112 -0.0599 -0.0810
 1070loPI   GL117109   8.753   2.754   5.350  0.0668 -0.0901  0.2587
 1070loPI   GL217110   9.042   2.858   5.596 -0.2081 -0.0592  0.2596
 1070loPI   C1A17111   8.511   2.562   5.681  0.2642  0.0972  0.3094
 1070loPI   C2A17112   8.595   2.479   6.174 -0.0956 -0.3501  0.0699
 1070loPI   C3A17113   8.624   2.308   6.593  0.1065 -0.1684 -0.0047
 1070loPI   C4A17114   8.733   2.274   6.948  0.4608 -0.0065 -0.3130
 1070loPI   C5A17115   8.927   2.246   7.323 -0.0881 -0.0400  0.0575
 1070loPI   C6A17116   9.164   2.561   7.675  0.4337  0.0367  0.1427
 1070loPI   C1B17117   8.968   2.745   6.001  0.0620  0.1119  0.0522
 1070loPI   C2B17118   8.948   2.711   6.486 -0.0432  0.0249  0.0478
 1070loPI   C3B17119   9.051   2.671   6.837 -0.0173 -0.1792  0.1583
 1070loPI   C4B17120   9.265   2.770   7.194 -0.0432 -0.1804 -0.1128
 1071loPI    C117121   3.167   5.965   4.850 -0.0029  0.1641 -0.0512
 1071loPI    C217122   2.830   5.856   4.665  0.0782  0.3539 -0.3170
 1071loPI    C317123   3.176   5.683   4.567  0.0747  0.2305 -0.1156
 1071loPI   PO417124   3.140   6.033   5.045 -0.0283  0.1296  0.0795
 1071loPI   GL117125   3.244   6.255   5.370  0.2982 -0.4040 -0.0066
 1071loPI   GL217126   3.420   5.959   5.457  0.0706  0.1134 -0.0838
 1071loPI   C1A17127   3.358   6.336   5.788  0.2270 -0.3699 -0.1291
 1071loPI   C2A17128   3.270   6.427   6.232  0.2212 -0.1055 -0.2863
 1071loPI   C3A17129   3.335   6.263   6.655  0.1049  0.0294  0.0159
 1071loPI   C4A17130   3.451   6.358   7.054  0.4903  0.0809  0.1031
 1071loPI   C5A17131   3.181   6.228   7.319 -0.0462 -0.0223  0.2786
 1071loPI   C6A17132   2.762   5.987   7.427  0.1461  0.1059 -0.0903
 1071loPI   C1B17133   3.375   5.788   5.910 -0.0620 -0.0002  0.0745
 1071loPI   C2B17134   3.390   5.828   6.365  0.2138  0.2701 -0.2009
 1071loPI   C3B17135   3.339   5.734   6.802 -0.2571  0.0993  0.0247
 1071loPI   C4B17136   3.123   5.779   7.172  0.1232 -0.2116 -0.1203
 1072loPI    C117137   6.455   9.933   5.324  0.1463  0.3069 -0.1017
 1072loPI    C217138   6.445   9.657   5.034 -0.0331  0.1837  0.0196
 1072loPI    C317139   6.182   9.959   5.032 -0.1533  0.0812  0.1514
 1072loPI   PO417140   6.484   9.774   5.568  0.3057  0.1649  0.3040
 1072loPI   GL117141   6.637   9.811   5.991 -0.1025  0.0422 -0.2373
 1072loPI   GL217142   6.868   9.926   6.028  0.5339  0.1059  0.0769
 1072loPI   C1A17143   6.663   9.598   6.395  0.1500  0.0601 -0.1852
 1072loPI   C2A17144   6.553   9.293   6.697 -0.0768 -0.0236 -0.0478
 1072loPI   C3A17145   6.220   9.068   7.012  0.2599 -0.1325  0.3783
 1072loPI   C4A17146   6.133   8.941   7.408  0.2859  0.0694  0.0618
 1072loPI   C5A17147   6.499   8.852   7.614  0.1112  0.2408 -0.0113
 1072loPI   C6A17148   6.916   8.874   7.556  0.3527  0.1578 -0.3231
 1072loPI   C1B17149   7.130   9.828   6.398  0.1409  0.2232 -0.0663
 1072loPI   C2B17150   7.210  10.001   6.744  0.4022  0.3552 -0.0824
 1072loPI   C3B17151   6.947  10.160   7.066  0.1650 -0.2551 -0.0913
 1072loPI   C4B17152   7.015  10.125   7.511  0.3356  0.0765  0.1540
 1073loPI    C117153  16.388   7.913   5.093 -0.2723 -0.0358 -0.0694
 1073loPI    C217154  16.614   7.783   4.789 -0.0632  0.0734  0.0370
 1073loPI    C317155  16.225   7.855   4.733 -0.0189  0.1248 -0.2134
 1073loPI   PO417156  16.593   8.129   5.252 -0.1070  0.2018 -0.1757
 1073loPI   GL117157  16.591   8.036   5.735  0.0572  0.1383 -0.1607
 1073loPI   GL217158  16.714   8.386   5.947  0.0764 -0.1410  0.1165
 1073loPI   C1A17159  16.412   8.060   6.215  0.0655 -0.0488 -0.3254
 1073loPI   C2A17160  16.372   7.936   6.658  0.2443 -0.5458  0.3034
 1073loPI   C3A17161  16.150   7.724   6.914  0.5108 -0.2518  0.2186
 1073loPI   C4A17162  16.157   7.679   7.391 -0.1154  0.3163  0.0150
 1073loPI   C5A17163  16.266   7.667   7.778  0.0015 -0.1832  0.1567
 1073loPI   C6A17164  16.371   7.464   8.123 -0.1201  0.0164 -0.1430
 1073loPI   C1B17165  16.714   8.393   6.417 -0.2049  0.0884  0.1226
 1073loPI   C2B17166  16.592   8.328   6.905 -0.0273 -0.2970  0.0600
 1073loPI   C3B17167  16.257   8.126   7.171 -0.1773  0.1695 -0.3040
 1073loPI   C4B17168  16.094   8.155   7.538  0.1930 -0.2349  0.0184
 1074loPI    C117169   3.852   0.881   4.703  0.0901  0.0174 -0.1010
 1074loPI    C217170   3.537   0.841   4.460 -0.2071 -0.0853  0.2904
 1074loPI    C317171   3.774   0.527   4.534 -0.0274 -0.0166  0.0232
 1074loPI   PO417172   3.713   0.967   4.916 -0.3078 -0.0217  0.0008
 1074loPI   GL117173   3.827   0.908   5.318  0.0528  0.2653  0.1652
 1074loPI   GL217174   3.851   0.949   5.590 -0.1756  0.3169 -0.2856
 1074loPI   C1A17175   4.000   0.507   5.660 -0.0525 -0.1642  0.4974
 1074loPI   C2A17176   3.976   0.478   6.103  0.1577 -0.0070 -0.3060
 1074loPI   C3A17177   3.964   0.495   6.593  0.0406 -0.0549 -0.1641
 1074loPI   C4A17178   3.778   0.559   6.966  0.0259 -0.1841  0.3896
 1074loPI   C5A17179   3.740   0.767   7.391  0.0285  0.0041 -0.1077
 1074loPI   C6A17180   3.922   1.053   7.717  0.0278  0.2170 -0.2267
 1074loPI   C1B17181   3.943   0.938   6.007 -0.2173  0.1396  0.2301
 1074loPI   C2B17182   4.239   0.860   6.328  0.0891 -0.2460  0.3948
 1074loPI   C3B17183   4.205   1.004   6.716 -0.0276 -0.2204  0.0404
 1074loPI   C4B17184   4.032   1.093   7.160  0.0830  0.2307  0.1111
 1075loPI    C117185   9.203  11.382   4.858  0.2924  0.2445 -0.0046
 1075loPI    C217186   9.244  11.723   4.652 -0.0756  0.2256 -0.1180
 1075loPI    C317187   9.358  11.375   4.489 -0.0039  0.2558 -0.1328
 1075loPI   PO417188   9.189  11.485   5.111 -0.1507  0.1012  0.0308
 1075loPI   GL117189   9.046  11.481   5.461 -0.0064 -0.1565  0.1331
 1075loPI   GL217190   9.337  11.446   5.697  0.0449 -0.3448 -0.1153
 1075loPI   C1A17191   8.904  11.328   5.880 -0.0553  0.0766  0.1774
 1075loPI   C2A17192   8.896  11.408   6.276 -0.1721 -0.0111  0.4109
 1075loPI   C3A17193   8.826  11.315   6.683  0.1289 -0.0268 -0.3685
 1075loPI   C4A17194   8.752  11.245   7.086 -0.0259 -0.1307 -0.2179
 1075loPI   C5A17195   8.684  11.169   7.434 -0.1590  0.1364 -0.0744
 1075loPI   C6A17196   8.505  11.127   7.842 -0.1608  0.0417  0.0010
 1075loPI   C1B17197   9.354  11.340   6.160 -0.0990 -0.1197 -0.1968
 1075loPI   C2B17198   9.378  11.441   6.614 -0.0728 -0.0044 -0.3115
 1075loPI   C3B17199   9.198  11.434   6.977  0.0985  0.0148  0.3579
 1075loPI   C4B17200   9.164  11.008   7.148  0.1614  0.0975  0.2269
 1076loPI    C117201   4.884  18.344   4.690 -0.0644  0.0574  0.0354
 1076loPI    C217202   4.739  18.112   4.982 -0.0195 -0.2212 -0.1602
 1076loPI    C317203   4.490  18.328   4.755 -0.0664 -0.1242 -0.0177
 1076loPI   PO417204   5.033  18.547   4.788  0.0524 -0.0872  0.0997
 1076loPI   GL117205   4.925  18.686   5.196  0.0358 -0.1289 -0.1286
 1076loPI   GL217206   4.605  18.608   5.167  0.1316  0.4321  0.1091
 1076loPI   C1A17207   5.078  18.682   5.580  0.1753 -0.1009 -0.2381
 1076loPI   C2A17208   4.799  18.478   5.960 -0.3320  0.0643 -0.2201
 1076loPI   C3A17209   4.717  18.117   6.288  0.3598 -0.2132 -0.2542
 1076loPI   C4A17210   4.714  18.044   6.714  0.2300  0.3262 -0.2364
 1076loPI   C5A17211   4.771  18.073   7.142  0.1654 -0.1537  0.0315
 1076loPI   C6A17212   4.763  17.957   7.594  0.0658 -0.0763  0.0785
 1076loPI   C1B17213   4.716  18.268   5.444  0.3834  0.2527  0.0372
 1076loPI   C2B17214   4.632  17.937   5.816 -0.0745  0.0767 -0.0439
 1076loPI   C3B17215   4.817  17.615   6.151  0.0033 -0.2539 -0.2202
 1076loPI   C4B17216   4.934  17.655   6.459  0.2125  0.0289  0.0143
 1077loPI    C117217   2.788   3.924   4.776  0.1688 -0.2033  0.0052
 1077loPI    C217218   2.590   3.592   4.879 -0.0386 -0.0507  0.1060
 1077loPI    C317219   2.537   3.752   4.516 -0.1013 -0.0102  0.1328
 1077loPI   PO417220   3.048   3.870   4.855 -0.1398  0.3301 -0.0661
 1077loPI   GL117221   3.298   3.750   5.199 -0.0737 -0.4611 -0.0212
 1077loPI   GL217222   3.545   3.565   5.160 -0.1678  0.0111 -0.0075
 1077loPI   C1A17223   3.118   3.419   5.546  0.1455  0.2436  0.1777
 1077loPI   C2A17224   3.150   3.251   5.948 -0.2864 -0.1179 -0.2688
 1077loPI   C3A17225   3.217   3.124   6.289  0.0204  0.3196 -0.2696
 1077loPI   C4A17226   3.104   3.099   6.679 -0.1603 -0.3827 -0.0513
 1077loPI   C5A17227   3.212   3.374   7.078  0.2007  0.2127  0.3226
 1077loPI   C6A17228   3.622   3.693   7.231  0.2353 -0.0249 -0.2209
 1077loPI   C1B17229   3.623   3.531   5.593 -0.2729  0.0236  0.3688
 1077loPI   C2B17230   3.656   3.566   6.078  0.1262  0.1387  0.2170
 1077loPI   C3B17231   3.636   3.394   6.494  0.2216  0.0117 -0.1644
 1077loPI   C4B17232   3.713   3.302   6.906 -0.0396 -0.1964  0.0687
 1078loPI    C117233  18.788  11.463   4.917 -0.0062 -0.2035 -0.1669
 1078loPI    C217234  18.471  11.652   4.764  0.1220  0.1242 -0.0373
 1078loPI    C317235  18.810  11.627   4.553  0.1420  0.1407 -0.0069
 1078loPI   PO417236  18.718  11.293   5.005  0.1826 -0.1077 -0.0678
 1078loPI   GL117237  18.866  11.228   5.419  0.0911  0.0835  0.1092
 1078loPI   GL217238  18.793  10.963   5.399  0.0329 -0.2145  0.2959
 1078loPI   C1A17239  18.862  11.364   5.817 -0.2373 -0.1270 -0.0007
 1078loPI   C2A17240  18.942  11.500   6.319 -0.0808 -0.2678  0.0224
 1078loPI   C3A17241  18.822  11.491   6.825 -0.1570 -0.0750  0.2291
 1078loPI   C4A17242  18.807  11.419   7.245  0.1938  0.0711 -0.0115
 1078loPI   C5A17243  18.981  11.162   7.648  0.0098 -0.3754 -0.0916
 1078loPI   C6A17244  19.105  10.803   7.648  0.1375  0.3681  0.0256
 1078loPI   C1B17245  18.601  10.891   5.780  0.3629 -0.3559 -0.0301
 1078loPI   C2B17246  18.471  11.160   6.114 -0.1066 -0.0631 -0.1531
 1078loPI   C3B17247  18.471  11.296   6.568  0.0034  0.3692 -0.2510
 1078loPI   C4B17248  18.431  11.247   6.953  0.2019  0.1525 -0.1645
 1079loPI    C117249   5.407  15.436   4.634  0.1037  0.0265  0.0021
 1079loPI    C217250   5.241  15.073   4.622  0.1230  0.0052  0.3036
 1079loPI    C317251   5.009  15.397   4.654  0.1017  0.0269 -0.0365
 1079loPI   PO417252   5.579  15.550   4.943  0.0263  0.2670  0.0555
 1079loPI   GL117253   5.402  15.498   5.403 -0.0597 -0.1192  0.3482
 1079loPI   GL217254   5.630  15.277   5.386 -0.1603 -0.2233 -0.3385
 1079loPI   C1A17255   5.585  15.579   5.762 -0.3081  0.2265 -0.2268
 1079loPI   C2A17256   5.719  15.828   6.147 -0.1888 -0.1534  0.2061
 1079loPI   C3A17257   5.973  15.912   6.531  0.0715  0.2601  0.1947
 1079loPI   C4A17258   6.000  16.003   6.879  0.0484  0.0404 -0.1953
 1079loPI   C5A17259   5.930  15.736   7.235  0.1476 -0.2207  0.2268
 1079loPI   C6A17260   6.162  15.630   7.595  0.0785 -0.0289 -0.0483
 1079loPI   C1B17261   6.008  15.257   5.495 -0.2371 -0.3258 -0.1465
 1079loPI   C2B17262   6.085  15.263   5.891 -0.0619  0.0235  0.1116
 1079loPI   C3B17263   6.010  15.408   6.337 -0.0694 -0.1647  0.1185
 1079loPI   C4B17264   5.955  15.486   6.780  0.1366  0.2920  0.0096
 1080loPI    C117265   3.038  14.593   4.626  0.0870 -0.1431 -0.0156
 1080loPI    C217266   3.309  14.762   4.384 -0.0149 -0.0508 -0.0661
 1080loPI    C317267   2.938  14.691   4.251 -0.1064  0.1101  0.0994
 1080loPI   PO417268   3.093  14.685   4.846 -0.1264 -0.0239 -0.1875
 1080loPI   GL117269   3.054  14.594   5.234  0.3104 -0.0054 -0.2617
 1080loPI   GL217270   3.220  14.944   5.285 -0.3571 -0.3910 -0.1084
 1080loPI   C1A17271   3.295  14.418   5.502 -0.0290 -0.1203 -0.0026
 1080loPI   C2A17272   3.311  14.437   5.961  0.4101 -0.0031 -0.3185
 1080loPI   C3A17273   3.339  14.640   6.320  0.0549 -0.1391 -0.0618
 1080loPI   C4A17274   3.374  14.667   6.807 -0.0655  0.0829  0.0585
 1080loPI   C5A17275   3.509  14.686   7.225  0.0772 -0.1006 -0.1885
 1080loPI   C6A17276   3.532  14.805   7.648 -0.2242 -0.0593 -0.0624
 1080loPI   C1B17277   2.971  14.885   5.700  0.0435  0.1827  0.0905
 1080loPI   C2B17278   2.933  14.770   6.019 -0.0941 -0.1982 -0.1262
 1080loPI   C3B17279   2.760  14.806   6.350 -0.1748 -0.0255 -0.2822
 1080loPI   C4B17280   2.374  14.944   6.632  0.1678  0.1218 -0.2050
 1081loPI    C117281   4.328  15.481   5.155 -0.2368 -0.1175  0.2515
 1081loPI    C217282   4.234  15.519   4.768  0.2489  0.0488  0.1428
 1081loPI    C317283   4.126  15.191   4.969 -0.0442 -0.0198 -0.1198
 1081loPI   PO417284   4.607  15.564   5.094  0.0419 -0.0829 -0.1274
 1081loPI   GL117285   4.925  15.439   5.434 -0.0235  0.0316 -0.2540
 1081loPI   GL217286   4.597  15.384   5.562  0.0608  0.0844  0.0382
 1081loPI   C1A17287   5.070  15.572   5.807  0.0777  0.1140  0.3886
 1081loPI   C2A17288   5.283  15.964   5.934 -0.1983  0.0524  0.2055
 1081loPI   C3A17289   5.151  16.272   6.189  0.1661 -0.0830 -0.0759
 1081loPI   C4A17290   4.796  16.422   6.149  0.0055 -0.1549 -0.2039
 1081loPI   C5A17291   4.649  16.743   6.378 -0.1541  0.1591 -0.1729
 1081loPI   C6A17292   4.680  16.806   6.771 -0.0300  0.1446 -0.0105
 1081loPI   C1B17293   4.437  15.628   5.942  0.1034  0.4671  0.0417
 1081loPI   C2B17294   4.340  15.853   6.217  0.2664  0.0582 -0.1998
 1081loPI   C3B17295   4.631  16.140   6.513 -0.1080 -0.1632 -0.2215
 1081loPI   C4B17296   4.982  16.275   6.718  0.3676 -0.0543 -0.2467
 1082loPI    C117297   7.505   3.192   4.875 -0.0422 -0.1230  0.3490
 1082loPI    C217298   7.641   3.549   4.995 -0.0615  0.0354 -0.0840
 1082loPI    C317299   7.857   3.327   4.741 -0.2885 -0.0236 -0.2287
 1082loPI   PO417300   7.328   3.159   5.079  0.2958 -0.4887  0.4297
 1082loPI   GL117301   7.228   3.224   5.560  0.3043 -0.1702  0.1164
 1082loPI   GL217302   7.428   2.988   5.621 -0.0170  0.2306 -0.1939
 1082loPI   C1A17303   7.228   3.272   5.981 -0.0051  0.0702 -0.2533
 1082loPI   C2A17304   7.210   3.293   6.413 -0.0345 -0.0765  0.0315
 1082loPI   C3A17305   7.186   3.263   6.824 -0.0226  0.0024 -0.1312
 1082loPI   C4A17306   7.234   3.195   7.201  0.2143 -0.1896 -0.1560
 1082loPI   C5A17307   7.459   2.963   7.435  0.1521 -0.0069  0.0181
 1082loPI   C6A17308   7.661   2.603   7.589  0.0387 -0.2557  0.0422
 1082loPI   C1B17309   7.711   3.376   5.836  0.1117 -0.2040  0.2805
 1082loPI   C2B17310   7.612   3.585   6.218 -0.0715  0.1858 -0.0596
 1082loPI   C3B17311   7.625   3.521   6.608  0.2762  0.0622  0.0240
 1082loPI   C4B17312   7.644   3.481   7.077  0.0323 -0.0276  0.1135
 1083loPI    C117313   8.783  15.037   4.307  0.0796 -0.0624  0.1854
 1083loPI    C217314   9.137  14.970   4.133 -0.1195 -0.0521 -0.2356
 1083loPI    C317315   9.015  15.345   4.199  0.0059 -0.0574  0.0383
 1083loPI   PO417316   8.705  14.901   4.515 -0.0951  0.0025  0.1141
 1083loPI   GL117317   8.738  14.784   4.906  0.1175  0.2320 -0.0560
 1083loPI   GL217318   8.937  14.964   5.104 -0.0903  0.1042  0.0092
 1083loPI   C1A17319   8.444  14.900   5.351  0.0657 -0.4027 -0.2108
 1083loPI   C2A17320   8.514  15.110   5.674 -0.0980 -0.0214  0.0574
 1083loPI   C3A17321   8.608  15.018   6.042 -0.0485  0.0037 -0.0649
 1083loPI   C4A17322   8.598  15.006   6.415  0.0086 -0.4877 -0.1199
 1083loPI   C5A17323   8.528  15.101   6.880  0.2038  0.0006  0.1208
 1083loPI   C6A17324   8.327  14.908   7.223  0.0330 -0.2815 -0.1246
 1083loPI   C1B17325   8.970  14.925   5.588  0.1153  0.1409 -0.1045
 1083loPI   C2B17326   9.083  14.991   6.008 -0.1481 -0.0933  0.2492
 1083loPI   C3B17327   9.112  15.022   6.437  0.0250 -0.1065  0.4011
 1083loPI   C4B17328   9.066  15.181   6.733  0.1574 -0.3208 -0.2008
 1084loPI    C117329   3.500  18.465   4.335  0.0817  0.1656 -0.1479
 1084loPI    C217330   3.401  18.150   4.109  0.3430  0.0170 -0.0611
 1084loPI    C317331   3.208  18.498   4.064 -0.0418 -0.1906 -0.0643
 1084loPI   PO417332   3.482  18.381   4.611 -0.1177  0.0806 -0.1395
 1084loPI   GL117333   3.379  18.673   5.065 -0.0156  0.2046 -0.0680
 1084loPI   GL217334   3.073  18.881   5.143 -0.0259 -0.0673 -0.1068
 1084loPI   C1A17335   3.286  18.584   5.537 -0.1367 -0.0191 -0.1829
 1084loPI   C2A17336   3.230  18.562   6.011  0.0309  0.1774  0.0768
 1084loPI   C3A17337   3.205  18.415   6.454  0.4305  0.1557  0.1127
 1084loPI   C4A17338   3.184  18.533   6.936  0.0392 -0.0896 -0.0287
 1084loPI   C5A17339   3.031  18.560   7.399  0.1224  0.1119 -0.2894
 1084loPI   C6A17340   2.586  18.622   7.575 -0.1474 -0.3134 -0.0241
 1084loPI   C1B17341   3.142  19.049   5.553  0.0681  0.3496  0.1802
 1084loPI   C2B17342   3.121  19.052   6.001  0.1753  0.3247  0.0984
 1084loPI   C3B17343   3.044  18.923   6.485  0.1659 -0.3738  0.1417
 1084loPI   C4B17344   3.032  19.093   6.926  0.0899 -0.0654 -0.0352
 1085loPI    C117345  11.493  16.999   4.997 -0.2167 -0.0824 -0.0291
 1085loPI    C217346  11.379  16.628   4.900  0.1119 -0.1425 -0.1995
 1085loPI    C317347  11.613  16.837   4.652  0.0398  0.1300 -0.0426
 1085loPI   PO417348  11.638  17.022   5.198  0.0603  0.1094  0.1283
 1085loPI   GL117349  11.642  16.920   5.631 -0.1902 -0.1748 -0.0405
 1085loPI   GL217350  11.950  16.848   5.636  0.2960 -0.4605 -0.0108
 1085loPI   C1A17351  11.469  17.027   6.043 -0.0749 -0.1680 -0.2591
 1085loPI   C2A17352  11.584  17.152   6.510  0.0417  0.0137  0.1806
 1085loPI   C3A17353  11.479  17.220   6.941  0.0276 -0.0406 -0.1072
 1085loPI   C4A17354  11.537  17.493   7.262 -0.0980  0.2472 -0.3469
 1085loPI   C5A17355  11.784  17.686   7.582 -0.1513 -0.1801 -0.2348
 1085loPI   C6A17356  12.036  18.050   7.745  0.1607  0.3031  0.0307
 1085loPI   C1B17357  11.826  16.634   5.969 -0.0702  0.2202 -0.2333
 1085loPI   C2B17358  11.769  16.699   6.451  0.4432  0.1006  0.0316
 1085loPI   C3B17359  11.817  16.640   6.797 -0.1272 -0.2704  0.1530
 1085loPI   C4B17360  11.677  16.836   7.269 -0.0765  0.2470 -0.0761
 1086loPI    C117361   4.845   4.207   4.324  0.2068  0.0278  0.1195
 1086loPI    C217362   4.671   3.856   4.244 -0.1467  0.2142  0.0501
 1086loPI    C317363   4.800   4.088   3.944  0.2009  0.0920  0.1000
 1086loPI   PO417364   4.982   4.203   4.546  0.2552  0.1454  0.0848
 1086loPI   GL117365   5.196   4.374   4.892  0.1852  0.4000 -0.1494
 1086loPI   GL217366   5.034   4.082   5.127  0.0109 -0.2423  0.0867
 1086loPI   C1A17367   5.451   4.469   5.347 -0.0534 -0.0560 -0.0447
 1086loPI   C2A17368   5.463   4.448   5.760  0.2417  0.0939 -0.4354
 1086loPI   C3A17369   5.449   4.420   6.217 -0.1408  0.1966 -0.2011
 1086loPI   C4A17370   5.489   4.388   6.582  0.0455  0.0376 -0.1494
 1086loPI   C5A17371   5.543   4.490   6.988 -0.0169  0.3772  0.0463
 1086loPI   C6A17372   5.420   4.828   7.198  0.1204  0.1535  0.3842
 1086loPI   C1B17373   5.021   4.258   5.480  0.2978  0.1902  0.4512
 1086loPI   C2B17374   4.987   4.303   5.998  0.1410  0.1642  0.2604
 1086loPI   C3B17375   4.997   4.168   6.431 -0.0810  0.1975 -0.3769
 1086loPI   C4B17376   5.080   4.225   6.868  0.0872  0.0314 -0.1286
 1087loPI    C117377   5.211   5.187   4.201  0.3402  0.0770  0.1358
 1087loPI    C217378   5.235   4.858   3.976  0.1406  0.0347  0.1743
 1087loPI    C317379   5.349   5.211   3.826 -0.1254  0.0307 -0.0460
 1087loPI   PO417380   5.290   5.109   4.531 -0.1301 -0.1515  0.2147
 1087loPI   GL117381   5.168   4.912   4.825  0.2696  0.2302 -0.3435
 1087loPI   GL217382   4.944   5.144   4.879 -0.1669  0.0476 -0.2792
 1087loPI   C1A17383   5.077   4.732   5.169 -0.1284  0.2346 -0.1352
 1087loPI   C2A17384   4.980   4.830   5.699 -0.2448 -0.1120  0.2320
 1087loPI   C3A17385   5.102   4.776   6.064 -0.0730  0.1248 -0.2120
 1087loPI   C4A17386   5.080   4.665   6.557  0.2689  0.0543  0.4216
 1087loPI   C5A17387   4.931   4.708   7.011 -0.4867  0.1070  0.0102
 1087loPI   C6A17388   4.548   4.705   7.271  0.0693 -0.0554 -0.0660
 1087loPI   C1B17389   5.032   5.282   5.281 -0.1141  0.1176 -0.0271
 1087loPI   C2B17390   5.010   5.307   5.691  0.0946  0.0193  0.3244
 1087loPI   C3B17391   5.103   5.256   6.102 -0.1135 -0.1328 -0.0634
 1087loPI   C4B17392   5.063   5.224   6.479  0.2908 -0.0667 -0.1924
 1088loPI    C117393  12.569  16.666   5.105 -0.0163  0.0918 -0.0503
 1088loPI    C217394  12.385  16.322   5.016  0.2299 -0.0626  0.0281
 1088loPI    C317395  12.558  16.538   4.727 -0.1145  0.1098 -0.0539
 1088loPI   PO417396  12.725  16.623   5.269 -0.2323 -0.0966 -0.2122
 1088loPI   GL117397  12.713  16.649   5.722 -0.1073  0.0512 -0.1102
 1088loPI   GL217398  12.929  16.410   5.790 -0.0704  0.0070 -0.0920
 1088loPI   C1A17399  12.769  16.692   6.147  0.1225  0.0677 -0.2091
 1088loPI   C2A17400  12.700  16.386   6.425 -0.0453 -0.0456 -0.3130
 1088loPI   C3A17401  12.860  16.169   6.660 -0.2911 -0.1598 -0.0033
 1088loPI   C4A17402  13.205  16.232   6.973  0.2135 -0.1944  0.1329
 1088loPI   C5A17403  13.529  16.135   7.348  0.0684  0.0569  0.1604
 1088loPI   C6A17404  13.664  15.986   7.818  0.0833  0.1304 -0.2479
 1088loPI   C1B17405  13.316  16.681   5.919 -0.2228  0.1577 -0.2396
 1088loPI   C2B17406  13.706  16.706   6.197  0.1424  0.2238 -0.0280
 1088loPI   C3B17407  14.113  16.500   6.140  0.1571  0.1458  0.3329
 1088loPI   C4B17408  14.485  16.561   5.982  0.1458  0.1749 -0.4241
 1089loPI    C117409   0.126   4.603   5.110 -0.0151  0.0492 -0.1216
 1089loPI    C217410  -0.032   4.238   5.061  0.0889 -0.0037 -0.0679
 1089loPI    C317411   0.053   4.464   4.742 -0.0700  0.0149 -0.0979
 1089loPI   PO417412   0.403   4.583   5.347 -0.0233  0.0752  0.4482
 1089loPI   GL117413   0.769   4.719   5.656 -0.0296  0.1170 -0.1597
 1089loPI   GL217414   0.443   4.897   5.795 -0.0585  0.0220 -0.1455
 1089loPI   C1A17415   0.763   4.473   5.896 -0.0725  0.0741 -0.2899
 1089loPI   C2A17416   0.785   4.331   6.289  0.0991 -0.1547 -0.2465
 1089loPI   C3A17417   0.799   4.269   6.690 -0.0478 -0.1784 -0.3685
 1089loPI   C4A17418   1.111   4.129   6.970  0.1757 -0.1056  0.1688
 1089loPI   C5A17419   1.323   3.948   7.360  0.0820  0.1886  0.0151
 1089loPI   C6A17420   1.401   3.849   7.821 -0.0525 -0.0308  0.0251
 1089loPI   C1B17421   0.642   4.935   6.106 -0.2282 -0.0222  0.2966
 1089loPI   C2B17422   0.840   4.778   6.605 -0.1706 -0.0488  0.0398
 1089loPI   C3B17423   1.175   4.609   6.882 -0.2567  0.0084  0.1827
 1089loPI   C4B17424   1.244   4.466   7.340 -0.0211 -0.0775 -0.1559
 1090loPI    C117425  16.198  11.391   5.164  0.2540 -0.2557 -0.1031
 1090loPI    C217426  16.356  11.531   4.824 -0.0338 -0.0610 -0.1605
 1090loPI    C317427  16.008  11.334   4.816 -0.2954  0.3753  0.0718
 1090loPI   PO417428  16.271  11.511   5.356  0.0048  0.0902 -0.1056
 1090loPI   GL117429  16.136  11.794   5.743  0.1818  0.1061 -0.0492
 1090loPI   GL217430  16.285  11.507   5.797  0.0443 -0.0016 -0.0359
 1090loPI   C1A17431  16.458  11.825   6.126  0.1283 -0.0480  0.1079
 1090loPI   C2A17432  16.508  11.856   6.568 -0.0006 -0.1508 -0.0946
 1090loPI   C3A17433  16.354  11.851   6.918 -0.0077  0.1582 -0.2046
 1090loPI   C4A17434  16.306  11.902   7.379  0.0265  0.1308 -0.1292
 1090loPI   C5A17435  16.504  12.175   7.640 -0.2390  0.2430  0.0227
 1090loPI   C6A17436  16.709  12.505   7.797 -0.0910 -0.0747  0.0235
 1090loPI   C1B17437  16.115  11.503   6.293  0.3501 -0.3227  0.0789
 1090loPI   C2B17438  16.055  11.502   6.734 -0.0426 -0.0185  0.0348
 1090loPI   C3B17439  16.040  11.420   7.203  0.1476 -0.2230  0.2057
 1090loPI   C4B17440  15.947  11.395   7.556  0.5391 -0.0457 -0.2979
 1091loPI    C117441  12.320   9.276   4.981  0.2012 -0.1202 -0.0941
 1091loPI    C217442  12.112   9.181   4.652  0.3495 -0.3055 -0.1362
 1091loPI    C317443  12.388   9.471   4.638  0.0259  0.0136 -0.0540
 1091loPI   PO417444  12.086   9.126   5.245 -0.0054 -0.0345 -0.1727
 1091loPI   GL117445  12.124   9.009   5.704 -0.0762  0.1014  0.0655
 1091loPI   GL217446  12.251   9.216   5.898 -0.1275 -0.1116 -0.1267
 1091loPI   C1A17447  11.767   9.016   5.987 -0.1309  0.0503 -0.1763
 1091loPI   C2A17448  11.407   8.885   6.225 -0.4450 -0.2419  0.0487
 1091loPI   C3A17449  11.133   9.123   6.577 -0.2499 -0.0364  0.2521
 1091loPI   C4A17450  11.260   9.109   6.978 -0.2244 -0.1296 -0.1466
 1091loPI   C5A17451  11.452   9.045   7.503  0.0265 -0.0692  0.0424
 1091loPI   C6A17452  11.671   9.137   7.801  0.1415 -0.0121  0.0006
 1091loPI   C1B17453  12.214   9.218   6.317  0.1912  0.1121 -0.0938
 1091loPI   C2B17454  12.072   9.348   6.716  0.1368 -0.1865 -0.0055
 1091loPI   C3B17455  11.779   9.516   6.777  0.0462 -0.0359  0.0591
 1091loPI   C4B17456  11.514   9.799   6.473  0.4066 -0.4523  0.0757
 1092loPI    C117457   5.945   1.590   5.098 -0.2708 -0.0184 -0.0236
 1092loPI    C217458   5.809   1.767   4.766 -0.2361 -0.3107 -0.1976
 1092loPI    C317459   5.555   1.667   5.058 -0.2312  0.1970 -0.0082
 1092loPI   PO417460   6.183   1.770   5.113  0.4080  0.1491 -0.0223
 1092loPI   GL117461   6.188   1.962   5.458 -0.0524 -0.0471  0.1374
 1092loPI   GL217462   5.793   1.944   5.433  0.0942 -0.0466  0.1014
 1092loPI   C1A17463   6.474   2.018   5.715 -0.2265  0.5009 -0.1127
 1092loPI   C2A17464   6.718   2.036   6.119  0.1650 -0.0727  0.0016
 1092loPI   C3A17465   6.864   1.949   6.508 -0.0348 -0.1558  0.5627
 1092loPI   C4A17466   6.792   1.784   6.898  0.0799  0.0498 -0.4967
 1092loPI   C5A17467   6.462   1.719   7.079  0.2606  0.0926  0.1482
 1092loPI   C6A17468   6.424   1.424   7.325  0.0598 -0.0124  0.1498
 1092loPI   C1B17469   5.764   2.076   5.755  0.1462 -0.1063  0.0901
 1092loPI   C2B17470   5.729   1.916   6.236 -0.2283 -0.3353  0.1554
 1092loPI   C3B17471   5.857   2.085   6.611 -0.0162 -0.1085 -0.1596
 1092loPI   C4B17472   5.975   2.145   7.048 -0.2435  0.2013  0.2097
 1093loPI    C117473  11.980  15.658   5.332  0.0427  0.1466 -0.1546
 1093loPI    C217474  11.725  15.692   5.638 -0.0543 -0.2402 -0.1871
 1093loPI    C317475  11.602  15.772   5.266 -0.0059 -0.0129 -0.1558
 1093loPI   PO417476  12.202  15.531   5.521 -0.1022  0.2126  0.0258
 1093loPI   GL117477  12.110  15.513   5.943  0.2631  0.1588  0.1684
 1093loPI   GL217478  11.834  15.484   6.115  0.1540  0.0567 -0.2869
 1093loPI   C1A17479  12.471  15.500   6.282 -0.0624 -0.1918 -0.2254
 1093loPI   C2A17480  12.707  15.624   6.658 -0.0203  0.1929  0.2736
 1093loPI   C3A17481  12.557  15.796   7.004 -0.4314 -0.0221 -0.2884
 1093loPI   C4A17482  12.167  15.748   7.069  0.1384  0.2158  0.0183
 1093loPI   C5A17483  11.867  15.417   7.361 -0.3245 -0.2582 -0.3559
 1093loPI   C6A17484  11.577  15.244   7.786  0.3271 -0.0792  0.0265
 1093loPI   C1B17485  11.661  15.783   6.503  0.0267 -0.1815 -0.0542
 1093loPI   C2B17486  11.708  15.769   6.947  0.2066 -0.0469 -0.1250
 1093loPI   C3B17487  11.727  15.880   7.406 -0.1199  0.0790  0.0926
 1093loPI   C4B17488  11.904  16.063   7.763 -0.1341  0.1928 -0.1994
 1094loPI    C117489   4.153  10.579   5.208 -0.0283 -0.0730 -0.0419
 1094loPI    C217490   4.280  10.239   5.040 -0.0098 -0.1551  0.1368
 1094loPI    C317491   4.509  10.566   5.026  0.1077 -0.2326  0.2296
 1094loPI   PO417492   3.943  10.380   5.405 -0.1597 -0.0787 -0.0786
 1094loPI   GL117493   3.875  10.074   5.785  0.3053 -0.0950  0.0039
 1094loPI   GL217494   4.047  10.347   5.912  0.0609  0.1548 -0.0625
 1094loPI   C1A17495   3.856   9.887   6.161 -0.0642  0.2169 -0.1330
 1094loPI   C2A17496   3.985   9.854   6.568  0.0718  0.0189 -0.0208
 1094loPI   C3A17497   4.197   9.902   6.962 -0.3388 -0.0541  0.2573
 1094loPI   C4A17498   4.542   9.950   7.350 -0.1712  0.1436  0.0758
 1094loPI   C5A17499   4.851  10.118   7.642 -0.1213  0.0829 -0.0539
 1094loPI   C6A17500   5.292  10.253   7.596 -0.0214  0.2646 -0.3128
 1094loPI   C1B17501   4.248  10.197   6.320 -0.2192 -0.0340  0.0526
 1094loPI   C2B17502   4.553   9.999   6.470  0.0234  0.1273 -0.0670
 1094loPI   C3B17503   4.762   9.893   6.881 -0.0262 -0.1076 -0.0534
 1094loPI   C4B17504   5.075  10.124   7.067 -0.0184 -0.4702 -0.1887
 1095loPI    C117505   9.217  10.452   5.161  0.0386  0.0363 -0.0030
 1095loPI    C217506   9.084  10.163   4.919 -0.1510  0.0804  0.0465
 1095loPI    C317507   9.212  10.509   4.765 -0.0889  0.0360 -0.0021
 1095loPI   PO417508   8.978  10.470   5.368  0.1850 -0.0819 -0.1939
 1095loPI   GL117509   9.073  10.230   5.798  0.0242 -0.0262 -0.0498
 1095loPI   GL217510   9.350  10.044   5.910  0.0464  0.0991 -0.0006
 1095loPI   C1A17511   8.952  10.216   6.210  0.1713  0.0449  0.1386
 1095loPI   C2A17512   8.944  10.281   6.565 -0.3758  0.0034  0.2117
 1095loPI   C3A17513   8.639  10.275   6.983  0.1332 -0.2695 -0.0750
 1095loPI   C4A17514   8.665  10.295   7.440  0.0536  0.3067  0.2287
 1095loPI   C5A17515   8.614  10.694   7.759 -0.0123 -0.0337 -0.1676
 1095loPI   C6A17516   8.631  10.657   8.297  0.2956 -0.2539 -0.1090
 1095loPI   C1B17517   9.402  10.001   6.409 -0.2713 -0.0076 -0.1285
 1095loPI   C2B17518   9.398  10.049   6.862 -0.0359  0.0970 -0.4156
 1095loPI   C3B17519   9.410   9.977   7.272  0.2276  0.0915  0.2282
 1095loPI   C4B17520   9.557   9.783   7.646  0.3288 -0.0036 -0.2212
 1096loPI    C117521   5.000  10.720   5.466  0.0387 -0.0390 -0.0885
 1096loPI    C217522   5.316  10.840   5.252 -0.0049 -0.0549 -0.1619
 1096loPI    C317523   4.978  10.731   5.067  0.0063 -0.2098 -0.0921
 1096loPI   PO417524   5.032  10.570   5.673 -0.1338  0.1908  0.0055
 1096loPI   GL117525   5.008  10.559   6.016  0.0471 -0.1816  0.1662
 1096loPI   GL217526   5.314  10.535   6.055  0.0407 -0.0723  0.3390
 1096loPI   C1A17527   4.665  10.477   6.163 -0.1709 -0.1509 -0.1065
 1096loPI   C2A17528   4.348  10.692   6.378 -0.3501  0.0470 -0.0808
 1096loPI   C3A17529   4.336  11.001   6.541  0.5492 -0.2884  0.1992
 1096loPI   C4A17530   4.148  11.246   6.884  0.0208 -0.0662  0.2674
 1096loPI   C5A17531   3.984  11.290   7.346  0.0789  0.2589 -0.2043
 1096loPI   C6A17532   3.950  11.551   7.669 -0.4416  0.0087 -0.0373
 1096loPI   C1B17533   5.327  10.191   6.407  0.0569 -0.1691  0.3460
 1096loPI   C2B17534   5.192   9.802   6.614  0.0197 -0.2562 -0.0902
 1096loPI   C3B17535   4.866   9.453   6.557  0.2974 -0.0887 -0.0114
 1096loPI   C4B17536   4.760   9.072   6.706  0.2736 -0.1696 -0.0591
 1097loPI    C117537   1.690  13.099   4.894  0.0630  0.2011 -0.0081
 1097loPI    C217538   1.434  13.216   4.610  0.0879  0.2847  0.0038
 1097loPI    C317539   1.725  12.955   4.522 -0.2032 -0.0689  0.0672
 1097loPI   PO417540   1.680  13.382   5.077  0.2331  0.1326 -0.2112
 1097loPI   GL117541   1.566  13.452   5.433  0.0370  0.1059  0.3202
 1097loPI   GL217542   1.283  13.345   5.674 -0.0629 -0.1297  0.2924
 1097loPI   C1A17543   1.769  13.393   5.871 -0.1965  0.2979  0.1771
 1097loPI   C2A17544   1.995  13.634   6.271 -0.1440 -0.0233  0.0118
 1097loPI   C3A17545   1.984  13.732   6.685 -0.3354  0.3543 -0.0026
 1097loPI   C4A17546   2.157  13.861   7.026  0.1714  0.1025  0.3753
 1097loPI   C5A17547   2.182  13.855   7.499  0.1334  0.2019  0.1806
 1097loPI   C6A17548   2.104  13.657   7.756 -0.0147 -0.0342 -0.1944
 1097loPI   C1B17549   1.099  12.996   5.992 -0.0185 -0.0452  0.0196
 1097loPI   C2B17550   1.204  13.001   6.447 -0.1801  0.0472 -0.2315
 1097loPI   C3B17551   1.196  13.026   6.946  0.2571 -0.0255 -0.0247
 1097loPI   C4B17552   1.236  13.212   7.346 -0.0587  0.2238  0.0518
 1098loPI    C117553   2.241   8.744   4.781 -0.1096 -0.0272 -0.1043
 1098loPI    C217554   2.215   8.417   4.553 -0.1708  0.0213 -0.1668
 1098loPI    C317555   1.985   8.735   4.475  0.0026  0.1389 -0.2050
 1098loPI   PO417556   2.237   8.709   5.023  0.2889  0.0484 -0.2247
 1098loPI   GL117557   2.324   8.537   5.325 -0.1394 -0.1202  0.3446
 1098loPI   GL217558   2.353   8.829   5.496  0.1499 -0.0160  0.2233
 1098loPI   C1A17559   2.277   8.385   5.734  0.0102 -0.0482 -0.0598
 1098loPI   C2A17560   2.351   8.399   6.140  0.3385 -0.0598 -0.1683
 1098loPI   C3A17561   2.231   8.469   6.573  0.1417  0.0660 -0.3542
 1098loPI   C4A17562   2.185   8.571   7.051  0.1340  0.2072  0.1030
 1098loPI   C5A17563   1.967   8.449   7.383  0.3750  0.1627 -0.4119
 1098loPI   C6A17564   1.969   8.428   7.800 -0.1674 -0.0073 -0.0783
 1098loPI   C1B17565   2.446   8.796   5.928 -0.0989 -0.1432 -0.1114
 1098loPI   C2B17566   2.469   8.868   6.255 -0.0908 -0.1458  0.0372
 1098loPI   C3B17567   2.526   8.770   6.753 -0.0969 -0.1256  0.0557
 1098loPI   C4B17568   2.570   8.922   7.180  0.3933  0.0841  0.3032
 1099loPI    C117569   5.762  13.072   4.901 -0.1024 -0.1070  0.0319
 1099loPI    C217570   5.414  12.920   5.025 -0.1409  0.1219  0.2111
 1099loPI    C317571   5.430  13.129   4.685 -0.0752 -0.3288 -0.0708
 1099loPI   PO417572   5.899  13.033   5.153 -0.1116  0.0635 -0.1238
 1099loPI   GL117573   5.719  12.997   5.505  0.2343 -0.4542  0.1760
 1099loPI   GL217574   5.373  13.070   5.525 -0.0131 -0.0793 -0.4397
 1099loPI   C1A17575   6.029  13.076   5.881  0.0465 -0.1925 -0.1487
 1099loPI   C2A17576   6.348  13.051   6.108 -0.0441  0.2989 -0.0400
 1099loPI   C3A17577   6.326  13.219   6.498 -0.0480  0.1311 -0.3554
 1099loPI   C4A17578   6.233  13.636   6.608 -0.1348  0.0827  0.3898
 1099loPI   C5A17579   6.250  14.046   6.714  0.0890 -0.2495 -0.2222
 1099loPI   C6A17580   6.483  14.323   6.506 -0.0322  0.0288  0.1029
 1099loPI   C1B17581   5.470  13.184   5.964  0.0233 -0.0274  0.2926
 1099loPI   C2B17582   5.473  13.155   6.410 -0.2347 -0.1129  0.0897
 1099loPI   C3B17583   5.416  13.242   6.924 -0.1632 -0.0978 -0.0716
 1099loPI   C4B17584   5.681  13.240   7.239 -0.2327  0.0080  0.1844
 1100loPI    C117585   4.295   5.130   4.004 -0.1366 -0.0928  0.2705
 1100loPI    C217586   4.139   4.788   4.142 -0.2025 -0.0960  0.1884
 1100loPI    C317587   4.046   4.917   3.775 -0.0065 -0.1013  0.1358
 1100loPI   PO417588   4.241   5.288   4.243  0.0341  0.4127  0.0042
 1100loPI   GL117589   4.372   5.437   4.731  0.0459  0.0382 -0.1073
 1100loPI   GL217590   4.125   5.306   4.928  0.2105 -0.0268  0.1819
 1100loPI   C1A17591   4.576   5.544   5.132  0.1855  0.2016  0.2381
 1100loPI   C2A17592   4.589   5.615   5.512  0.0596 -0.0177 -0.0597
 1100loPI   C3A17593   4.609   5.573   5.869  0.0534 -0.1608 -0.4902
 1100loPI   C4A17594   4.647   5.528   6.314  0.1253  0.2015 -0.1879
 1100loPI   C5A17595   4.676   5.460   6.796  0.0658  0.2959  0.1528
 1100loPI   C6A17596   4.679   5.239   7.207  0.0506 -0.2021 -0.1719
 1100loPI   C1B17597   4.192   5.335   5.351 -0.0272  0.2434 -0.0339
 1100loPI   C2B17598   4.158   5.386   5.727  0.2629  0.0103  0.0685
 1100loPI   C3B17599   4.220   5.301   6.139  0.1721  0.0733 -0.0074
 1100loPI   C4B17600   4.190   5.189   6.566  0.0654 -0.1040 -0.0666
 1101loPI    C117601  11.286  11.465   4.965  0.0307 -0.1360  0.0523
 1101loPI    C217602  11.636  11.559   4.796 -0.0541  0.0199 -0.0384
 1101loPI    C317603  11.383  11.313   4.608  0.0005 -0.0823  0.0211
 1101loPI   PO417604  11.383  11.554   5.225 -0.1055 -0.2410 -0.2019
 1101loPI   GL117605  11.707  11.706   5.622 -0.0755  0.1499 -0.3253
 1101loPI   GL217606  11.448  11.978   5.620 -0.5667  0.0561 -0.2181
 1101loPI   C1A17607  11.644  11.521   6.031 -0.0876 -0.3641  0.0230
 1101loPI   C2A17608  11.637  11.549   6.442  0.0842  0.1781 -0.2792
 1101loPI   C3A17609  11.678  11.638   6.877 -0.1374 -0.2561 -0.2872
 1101loPI   C4A17610  11.663  11.437   7.373  0.0262 -0.1046 -0.0901
 1101loPI   C5A17611  11.715  11.303   7.681  0.1751  0.2008  0.1459
 1101loPI   C6A17612  11.693  11.449   8.071 -0.1735 -0.1012  0.0744
 1101loPI   C1B17613  11.459  11.988   6.072 -0.2951  0.1052  0.1793
 1101loPI   C2B17614  11.397  12.061   6.540 -0.0676  0.1266 -0.0524
 1101loPI   C3B17615  11.328  12.145   6.953  0.1179 -0.1284  0.1121
 1101loPI   C4B17616  11.321  12.114   7.356  0.1168 -0.1192 -0.0488
 1102loPI    C117617   5.011   2.757   4.466  0.0826  0.3420 -0.0010
 1102loPI    C217618   5.339   2.917   4.301  0.2273  0.0670  0.0133
 1102loPI    C317619   5.154   2.611   4.121  0.2154 -0.0433  0.2106
 1102loPI   PO417620   5.096   2.793   4.744  0.0280 -0.1399 -0.0118
 1102loPI   GL117621   5.230   3.032   5.187 -0.0196  0.1881  0.0413
 1102loPI   GL217622   5.667   3.068   5.275  0.0471  0.0001  0.2393
 1102loPI   C1A17623   5.338   2.846   5.611  0.1084  0.1152  0.2832
 1102loPI   C2A17624   5.373   2.859   6.026 -0.1499 -0.3068  0.2173
 1102loPI   C3A17625   5.427   2.776   6.492  0.1872  0.0473 -0.0441
 1102loPI   C4A17626   5.450   2.790   6.890 -0.0635  0.0309  0.1322
 1102loPI   C5A17627   5.407   3.030   7.318  0.1194 -0.0466 -0.0082
 1102loPI   C6A17628   4.997   3.039   7.611  0.1379  0.1652 -0.1546
 1102loPI   C1B17629   5.763   3.153   5.738  0.5339 -0.0541  0.5763
 1102loPI   C2B17630   5.881   3.159   6.153 -0.2542  0.3407  0.2850
 1102loPI   C3B17631   5.865   3.087   6.624  0.1365 -0.1563  0.1227
 1102loPI   C4B17632   6.012   3.101   7.025  0.1304  0.2743  0.0981
 1103loPI    C117633  16.905  13.443   5.456 -0.0656  0.0028 -0.1174
 1103loPI    C217634  17.135  13.442   5.129 -0.0871  0.1067 -0.1333
 1103loPI    C317635  17.095  13.777   5.344  0.1520 -0.0331  0.1360
 1103loPI   PO417636  17.048  13.202   5.617 -0.1454  0.1440  0.2546
 1103loPI   GL117637  17.088  13.061   6.058  0.2174 -0.1488 -0.1056
 1103loPI   GL217638  17.403  13.001   6.024 -0.2961 -0.0376  0.0067
 1103loPI   C1A17639  17.124  12.981   6.499 -0.3946 -0.0461 -0.0402
 1103loPI   C2A17640  17.206  13.112   6.884 -0.0481 -0.1827  0.1142
 1103loPI   C3A17641  17.262  13.258   7.300 -0.0125  0.0438 -0.3404
 1103loPI   C4A17642  17.511  13.122   7.667 -0.0067  0.1381  0.0029
 1103loPI   C5A17643  17.337  12.748   8.044  0.1127  0.2847  0.0182
 1103loPI   C6A17644  17.126  12.463   7.906 -0.0049  0.1518 -0.0805
 1103loPI   C1B17645  17.627  12.855   6.396  0.1313 -0.2549 -0.0117
 1103loPI   C2B17646  17.614  12.753   6.822 -0.1806  0.3105 -0.0496
 1103loPI   C3B17647  17.403  12.798   7.247 -0.1700  0.3485  0.0049
 1103loPI   C4B17648  17.006  12.813   7.509  0.0632  0.0450  0.1508
 1104loPI    C117649   2.762  13.255   4.673 -0.1423 -0.1076  0.0928
 1104loPI    C217650   2.890  12.946   4.454 -0.0620  0.0251 -0.0500
 1104loPI    C317651   2.627  13.205   4.300 -0.0402  0.0935  0.0272
 1104loPI   PO417652   2.714  13.152   4.879  0.1022 -0.0517 -0.1936
 1104loPI   GL117653   2.583  13.276   5.293  0.2743 -0.1140  0.0542
 1104loPI   GL217654   2.591  13.549   5.137  0.1016 -0.0026 -0.1765
 1104loPI   C1A17655   2.667  13.120   5.673  0.1265  0.0091 -0.4393
 1104loPI   C2A17656   2.884  13.354   6.083 -0.1962 -0.2862  0.0618
 1104loPI   C3A17657   2.927  13.392   6.528 -0.0932  0.0938 -0.2800
 1104loPI   C4A17658   3.139  13.411   6.947 -0.1072 -0.1778 -0.1057
 1104loPI   C5A17659   3.083  13.507   7.496 -0.2462 -0.3847 -0.1287
 1104loPI   C6A17660   2.892  13.266   7.801  0.2607  0.2300  0.0336
 1104loPI   C1B17661   2.689  13.624   5.585  0.0094  0.0663 -0.0578
 1104loPI   C2B17662   2.683  13.840   5.890  0.1385  0.2816 -0.1407
 1104loPI   C3B17663   2.854  13.863   6.358  0.0654  0.3846  0.0825
 1104loPI   C4B17664   2.925  13.841   6.786 -0.0661 -0.1266  0.0507
 1105loPI    C117665   0.319  12.739   4.898  0.2201  0.2489  0.1590
 1105loPI    C217666   0.478  12.797   4.535 -0.0838 -0.0543 -0.0280
 1105loPI    C317667   0.309  13.102   4.731  0.0454  0.1020 -0.1578
 1105loPI   PO417668   0.108  12.477   5.036  0.0460 -0.4006  0.0542
 1105loPI   GL117669  -0.067  12.384   5.438  0.1126 -0.1921  0.0090
 1105loPI   GL217670   0.129  12.051   5.445  0.0929  0.2951  0.0745
 1105loPI   C1A17671  -0.088  12.513   5.912  0.0315  0.2081  0.1492
 1105loPI   C2A17672  -0.141  12.576   6.313  0.1537 -0.0049 -0.0781
 1105loPI   C3A17673   0.014  12.569   6.753 -0.0409 -0.2268 -0.3243
 1105loPI   C4A17674  -0.106  12.662   7.117 -0.1108 -0.2475  0.0967
 1105loPI   C5A17675  -0.051  12.518   7.502  0.1927  0.0547  0.1357
 1105loPI   C6A17676  -0.264  12.642   7.808 -0.0897  0.1258 -0.0525
 1105loPI   C1B17677   0.005  12.007   5.925 -0.0323 -0.0566  0.0794
 1105loPI   C2B17678   0.061  12.017   6.425  0.0974 -0.0013 -0.0838
 1105loPI   C3B17679   0.017  12.074   6.891 -0.1735 -0.0410  0.3487
 1105loPI   C4B17680  -0.007  12.041   7.306 -0.2262  0.0125 -0.1201
 1106loPI    C117681  14.005   5.506   5.073  0.0098  0.0450 -0.3087
 1106loPI    C217682  14.000   5.861   4.889  0.1195 -0.0135 -0.4260
 1106loPI    C317683  13.701   5.602   4.831 -0.0097  0.0967 -0.2641
 1106loPI   PO417684  13.999   5.531   5.290 -0.1824  0.0558 -0.4104
 1106loPI   GL117685  13.802   5.407   5.544 -0.0530  0.0444 -0.4575
 1106loPI   GL217686  13.668   5.628   5.751  0.1546  0.1246  0.0519
 1106loPI   C1A17687  14.032   5.200   5.919  0.1391 -0.1269 -0.2973
 1106loPI   C2A17688  14.027   5.115   6.384 -0.1278  0.1826 -0.0081
 1106loPI   C3A17689  14.060   5.177   6.799 -0.0554 -0.0783 -0.1591
 1106loPI   C4A17690  13.968   5.166   7.240 -0.0024 -0.0446  0.0664
 1106loPI   C5A17691  14.018   5.068   7.689 -0.1905  0.1479 -0.1948
 1106loPI   C6A17692  14.144   5.134   8.096  0.1644 -0.1602 -0.0303
 1106loPI   C1B17693  13.605   5.379   6.097  0.0891  0.2855  0.1805
 1106loPI   C2B17694  13.515   5.391   6.538  0.0202 -0.2467 -0.0980
 1106loPI   C3B17695  13.533   5.407   7.000  0.3847  0.2003  0.0069
 1106loPI   C4B17696  13.466   5.374   7.478 -0.1552  0.0118 -0.1990
 1107loPI    C117697   8.175   7.286   5.128  0.0465  0.1575  0.0553
 1107loPI    C217698   8.014   7.423   4.789 -0.1668  0.0679  0.1188
 1107loPI    C317699   8.410   7.374   4.816 -0.1737 -0.2215 -0.2252
 1107loPI   PO417700   8.000   7.329   5.326  0.1725 -0.0302 -0.0342
 1107loPI   GL117701   7.688   7.156   5.570 -0.2033 -0.0984 -0.0364
 1107loPI   GL217702   7.624   6.946   5.570 -0.0420 -0.0966 -0.0473
 1107loPI   C1A17703   7.830   7.057   6.083 -0.0864 -0.2538  0.4370
 1107loPI   C2A17704   7.809   6.671   6.446  0.0863 -0.0940  0.1830
 1107loPI   C3A17705   7.756   6.632   6.880  0.0758 -0.2307 -0.2273
 1107loPI   C4A17706   7.675   6.745   7.232  0.5340 -0.2118 -0.0192
 1107loPI   C5A17707   7.545   7.098   7.495  0.4322  0.0106 -0.0906
 1107loPI   C6A17708   7.600   7.650   7.438 -0.0098 -0.0638  0.3383
 1107loPI   C1B17709   7.874   6.625   5.930 -0.0067  0.1098 -0.2890
 1107loPI   C2B17710   7.786   6.192   6.210  0.0616 -0.1026 -0.0377
 1107loPI   C3B17711   7.750   6.148   6.683 -0.1251  0.2641 -0.2890
 1107loPI   C4B17712   7.732   6.183   7.126  0.3653  0.0381 -0.0220
 1108loPI    C117713  13.569   6.443   5.145 -0.0213 -0.0865 -0.0869
 1108loPI    C217714  13.214   6.275   5.068  0.0091 -0.1391 -0.1130
 1108loPI    C317715  13.532   6.182   4.844  0.0772 -0.2210  0.0163
 1108loPI   PO417716  13.528   6.413   5.441 -0.0397 -0.3203  0.3202
 1108loPI   GL117717  13.630   6.406   5.971  0.1494 -0.1470  0.0414
 1108loPI   GL217718  13.732   6.132   5.789 -0.2079 -0.0688  0.0454
 1108loPI   C1A17719  13.588   6.380   6.432 -0.1013 -0.3315 -0.0146
 1108loPI   C2A17720  13.518   6.417   6.840  0.0837  0.3527  0.4321
 1108loPI   C3A17721  13.448   6.453   7.249  0.1172 -0.0206 -0.0752
 1108loPI   C4A17722  13.439   6.334   7.650  0.0596  0.0462 -0.2307
 1108loPI   C5A17723  13.359   6.375   8.160  0.2587  0.1269  0.0640
 1108loPI   C6A17724  13.366   6.110   8.504 -0.0497  0.0826  0.0336
 1108loPI   C1B17725  13.645   5.909   6.227  0.2282 -0.4967  0.0443
 1108loPI   C2B17726  13.585   5.850   6.700 -0.0920 -0.1362  0.2226
 1108loPI   C3B17727  13.554   5.964   7.039  0.1446 -0.1277  0.1469
 1108loPI   C4B17728  13.472   5.834   7.523  0.0056  0.1758 -0.0175
 1109loPI    C117729   4.054  12.992   4.981 -0.1085  0.1884 -0.0005
 1109loPI    C217730   3.746  13.179   4.808 -0.0490  0.3025  0.0157
 1109loPI    C317731   4.121  13.287   4.719 -0.0108  0.0823 -0.0959
 1109loPI   PO417732   3.965  12.937   5.287 -0.0152  0.3032  0.1710
 1109loPI   GL117733   4.207  13.200   5.541 -0.0799 -0.0820  0.1589
 1109loPI   GL217734   3.983  13.160   5.759 -0.1402  0.0795 -0.1242
 1109loPI   C1A17735   4.418  13.272   6.026 -0.0642  0.0140  0.0831
 1109loPI   C2A17736   4.405  13.388   6.339 -0.0692 -0.0548  0.0282
 1109loPI   C3A17737   4.395  13.339   6.802  0.4238  0.1213 -0.1418
 1109loPI   C4A17738   4.351  13.118   7.089  0.1296  0.2423  0.1587
 1109loPI   C5A17739   4.246  12.735   7.080  0.0249 -0.0452  0.0444
 1109loPI   C6A17740   4.325  12.377   6.694 -0.0621  0.2858 -0.1939
 1109loPI   C1B17741   3.906  13.398   6.135  0.1853  0.1750  0.0289
 1109loPI   C2B17742   3.988  13.517   6.577  0.0317  0.2436  0.0427
 1109loPI   C3B17743   3.989  13.477   7.089 -0.2473  0.1568  0.3179
 1109loPI   C4B17744   3.686  13.257   7.364  0.0026 -0.2011 -0.2440
 1110loPI    C117745  17.996  10.185   5.002  0.2535  0.1319 -0.1664
 1110loPI    C217746  18.362  10.317   4.910  0.3046 -0.0786 -0.2716
 1110loPI    C317747  18.183  10.046   4.677  0.1223 -0.0515 -0.1649
 1110loPI   PO417748  18.049  10.124   5.261 -0.2446 -0.0099 -0.0390
 1110loPI   GL117749  18.435  10.175   5.557 -0.0017 -0.0248  0.0668
 1110loPI   GL217750  18.279   9.849   5.649  0.1183  0.0665  0.0083
 1110loPI   C1A17751  18.263  10.286   5.936 -0.0998  0.2535 -0.0736
 1110loPI   C2A17752  18.202  10.317   6.378 -0.0092  0.2065 -0.0480
 1110loPI   C3A17753  18.070  10.392   6.725  0.0971 -0.1898  0.1035
 1110loPI   C4A17754  18.042  10.335   7.216 -0.1820  0.2733 -0.0560
 1110loPI   C5A17755  17.921  10.348   7.692  0.0514 -0.0934 -0.0739
 1110loPI   C6A17756  18.057  10.279   8.123 -0.0202  0.0773  0.0003
 1110loPI   C1B17757  18.355   9.745   6.051  0.0725 -0.0711 -0.1839
 1110loPI   C2B17758  18.309   9.869   6.507  0.2702 -0.0688 -0.0097
 1110loPI   C3B17759  18.205   9.868   6.913 -0.1130  0.1766  0.1030
 1110loPI   C4B17760  18.138   9.815   7.296  0.0707  0.0280  0.3574
 1111loPI    C117761  11.384   2.679   4.631  0.0149  0.2603  0.2262
 1111loPI    C217762  11.589   2.910   4.377  0.0607 -0.0487 -0.0252
 1111loPI    C317763  11.194   2.865   4.332  0.0428  0.0222  0.0571
 1111loPI   PO417764  11.495   2.867   4.857 -0.0081  0.2593  0.1290
 1111loPI   GL117765  11.523   3.034   5.265 -0.0202 -0.2605 -0.1414
 1111loPI   GL217766  11.800   3.199   5.455 -0.0468  0.0221  0.0171
 1111loPI   C1A17767  11.203   3.099   5.610 -0.0278  0.0168 -0.1420
 1111loPI   C2A17768  11.240   2.966   6.067 -0.0488  0.0810  0.2278
 1111loPI   C3A17769  11.321   3.066   6.505 -0.5225  0.0171 -0.1662
 1111loPI   C4A17770  11.253   3.030   6.994 -0.0261 -0.1963 -0.0597
 1111loPI   C5A17771  11.384   2.897   7.434  0.0431  0.0541  0.0752
 1111loPI   C6A17772  11.562   3.076   7.781  0.0761 -0.2831 -0.0103
 1111loPI   C1B17773  11.752   3.205   5.917  0.3118  0.2274 -0.1423
 1111loPI   C2B17774  11.755   3.390   6.321  0.0757 -0.2586 -0.0278
 1111loPI   C3B17775  11.723   3.275   6.730 -0.4136 -0.0427 -0.3073
 1111loPI   C4B17776  11.615   3.277   7.155 -0.1338  0.3885 -0.0486
 1112loPI    C117777   8.383  16.920   4.494 -0.0719 -0.2122  0.0469
 1112loPI    C217778   8.544  16.786   4.153 -0.0508 -0.0493 -0.0082
 1112loPI    C317779   8.427  17.168   4.183 -0.0042 -0.0487  0.1846
 1112loPI   PO417780   8.283  16.709   4.634  0.3381 -0.2707  0.0276
 1112loPI   GL117781   7.928  16.701   4.943  0.1060 -0.3261  0.0785
 1112loPI   GL217782   7.705  16.862   5.076  0.2546  0.1881 -0.0638
 1112loPI   C1A17783   7.984  16.590   5.311 -0.1612  0.2163 -0.0720
 1112loPI   C2A17784   7.897  16.534   5.723  0.0856 -0.0817 -0.1375
 1112loPI   C3A17785   7.969  16.578   6.139 -0.3204  0.0220  0.0012
 1112loPI   C4A17786   7.912  16.500   6.598  0.0329 -0.0634 -0.0398
 1112loPI   C5A17787   7.709  16.496   7.006 -0.1126 -0.2880  0.1408
 1112loPI   C6A17788   7.356  16.660   7.130 -0.2069  0.0350  0.0508
 1112loPI   C1B17789   7.739  16.938   5.515  0.2665 -0.2151  0.1391
 1112loPI   C2B17790   7.682  17.011   5.969 -0.0325  0.3047 -0.0476
 1112loPI   C3B17791   7.758  16.987   6.396 -0.0864  0.4308 -0.1599
 1112loPI   C4B17792   7.627  16.967   6.792  0.1203  0.1204 -0.2208
 1113loPI    C117793  11.700  17.550   4.901 -0.1018 -0.0410 -0.2513
 1113loPI    C217794  11.913  17.238   4.770 -0.1841 -0.2450  0.0882
 1113loPI    C317795  11.555  17.317   4.610 -0.1080 -0.2478 -0.0853
 1113loPI   PO417796  11.737  17.510   5.227  0.2910  0.0748  0.5074
 1113loPI   GL117797  11.878  17.327   5.450 -0.3752  0.1249  0.1329
 1113loPI   GL217798  12.065  17.343   5.707 -0.2024  0.1227 -0.1566
 1113loPI   C1A17799  11.656  17.566   5.820  0.4542 -0.0336 -0.4377
 1113loPI   C2A17800  11.411  17.520   6.178  0.2990 -0.0646 -0.0627
 1113loPI   C3A17801  11.397  17.621   6.526 -0.0500  0.2094  0.1628
 1113loPI   C4A17802  11.466  17.874   6.967 -0.2186 -0.1791  0.1562
 1113loPI   C5A17803  11.510  17.999   7.349  0.2647  0.3007 -0.0421
 1113loPI   C6A17804  11.724  18.398   7.557 -0.0274 -0.0382 -0.2199
 1113loPI   C1B17805  11.910  17.267   6.129  0.4776  0.1064 -0.2359
 1113loPI   C2B17806  12.068  17.205   6.495 -0.2302  0.3770 -0.0889
 1113loPI   C3B17807  12.089  17.131   6.934 -0.1516  0.2363 -0.2032
 1113loPI   C4B17808  12.387  17.141   7.264 -0.5123 -0.0249 -0.0189
 1114loPI    C117809  16.428  10.931   4.975 -0.0767 -0.1564 -0.0148
 1114loPI    C217810  16.820  10.865   5.023 -0.0659 -0.1732 -0.1238
 1114loPI    C317811  16.623  10.689   4.723 -0.0247  0.3258 -0.4548
 1114loPI   PO417812  16.363  10.978   5.256  0.1689  0.0861  0.1819
 1114loPI   GL117813  16.593  11.056   5.577 -0.0004  0.3272 -0.1898
 1114loPI   GL217814  16.727  10.747   5.493 -0.2120  0.0970 -0.2681
 1114loPI   C1A17815  16.653  11.210   6.046  0.3258 -0.3537 -0.1411
 1114loPI   C2A17816  16.578  11.263   6.534 -0.3221 -0.0527  0.2209
 1114loPI   C3A17817  16.501  11.389   7.007  0.2248 -0.2067 -0.0745
 1114loPI   C4A17818  16.444  11.303   7.459 -0.2142  0.0392  0.0252
 1114loPI   C5A17819  16.358  11.607   7.815  0.0162 -0.0036 -0.0849
 1114loPI   C6A17820  15.979  11.811   8.040 -0.1423 -0.2751 -0.0700
 1114loPI   C1B17821  16.764  10.716   5.946  0.2164 -0.0457  0.0308
 1114loPI   C2B17822  16.715  10.798   6.357 -0.1962  0.1922 -0.0690
 1114loPI   C3B17823  16.631  10.780   6.808  0.1637 -0.1432 -0.0967
 1114loPI   C4B17824  16.615  10.795   7.290 -0.1441 -0.0581 -0.2845
 1115loPI    C117825  12.681   3.386   4.916 -0.1539 -0.0969 -0.3046
 1115loPI    C217826  13.031   3.236   4.792  0.0104  0.0843 -0.0693
 1115loPI    C317827  12.702   3.186   4.570  0.1900 -0.0629 -0.3072
 1115loPI   PO417828  12.605   3.353   5.126 -0.0829  0.0024 -0.1747
 1115loPI   GL117829  12.464   3.590   5.516 -0.0206 -0.0315 -0.5687
 1115loPI   GL217830  12.669   3.333   5.602 -0.0154 -0.2274 -0.0398
 1115loPI   C1A17831  12.173   3.523   5.773 -0.2879 -0.2580  0.0180
 1115loPI   C2A17832  12.232   3.671   6.191  0.0780  0.0515 -0.2521
 1115loPI   C3A17833  12.165   3.551   6.561 -0.1228 -0.0758 -0.0460
 1115loPI   C4A17834  12.148   3.474   6.933  0.1819 -0.1392  0.3508
 1115loPI   C5A17835  12.140   3.383   7.338 -0.2249 -0.1487  0.1625
 1115loPI   C6A17836  11.810   3.518   7.553 -0.1623  0.1780 -0.2181
 1115loPI   C1B17837  12.625   3.397   6.017  0.2518  0.0293 -0.2874
 1115loPI   C2B17838  12.612   3.372   6.411 -0.1184 -0.0181  0.2844
 1115loPI   C3B17839  12.603   3.404   6.727 -0.0634 -0.0590  0.2107
 1115loPI   C4B17840  12.641   3.297   7.134  0.1474  0.2767 -0.1346
 1116loPI    C117841  12.361   8.067   5.377 -0.0731 -0.1098 -0.1867
 1116loPI    C217842  12.195   7.944   5.034 -0.0925 -0.1687 -0.1563
 1116loPI    C317843  12.059   8.275   5.215 -0.0417 -0.1034 -0.2369
 1116loPI   PO417844  12.329   7.834   5.543  0.2620  0.3777 -0.2268
 1116loPI   GL117845  12.079   7.545   5.763  0.4027  0.3248 -0.0566
 1116loPI   GL217846  12.176   7.731   6.018  0.2778  0.0578 -0.2601
 1116loPI   C1A17847  11.691   7.573   5.976 -0.0277  0.3260 -0.1514
 1116loPI   C2A17848  11.787   7.722   6.309 -0.0712  0.0302 -0.0829
 1116loPI   C3A17849  11.657   7.979   6.613  0.1133  0.0866 -0.0416
 1116loPI   C4A17850  11.582   8.167   7.085  0.2290 -0.1405  0.1121
 1116loPI   C5A17851  11.836   8.255   7.397  0.0688 -0.1605 -0.2676
 1116loPI   C6A17852  12.105   8.285   7.640 -0.0209  0.0263 -0.1256
 1116loPI   C1B17853  12.202   7.705   6.572 -0.0062 -0.4491  0.0571
 1116loPI   C2B17854  12.093   7.636   7.101  0.0399 -0.0081  0.4175
 1116loPI   C3B17855  11.857   7.725   7.355  0.0410  0.0613 -0.0343
 1116loPI   C4B17856  11.461   7.889   7.517 -0.2734  0.0392 -0.1460
 1117loPI    C117857  14.579  10.049   5.300 -0.0521  0.0429  0.1176
 1117loPI    C217858  14.637   9.800   4.993 -0.0969 -0.1059  0.2288
 1117loPI    C317859  14.639  10.195   4.933 -0.1942 -0.1358  0.0217
 1117loPI   PO417860  14.390   9.991   5.423  0.1857 -0.2463 -0.0166
 1117loPI   GL117861  14.271  10.229   5.730 -0.1965 -0.0046 -0.1678
 1117loPI   GL217862  14.444  10.461   5.595 -0.1152 -0.0171  0.0157
 1117loPI   C1A17863  14.430  10.209   6.175 -0.0810  0.1216 -0.0462
 1117loPI   C2A17864  14.497  10.103   6.597 -0.3433 -0.1973  0.0968
 1117loPI   C3A17865  14.502  10.103   7.040 -0.2608  0.0132  0.1163
 1117loPI   C4A17866  14.420  10.100   7.557 -0.0973  0.2895  0.0792
 1117loPI   C5A17867  14.510   9.968   7.900  0.1599 -0.1475  0.2124
 1117loPI   C6A17868  14.295  10.016   8.358  0.1168 -0.1440 -0.0537
 1117loPI   C1B17869  14.699  10.554   5.961  0.1880 -0.2617  0.1920
 1117loPI   C2B17870  14.919  10.412   6.271  0.0338  0.0423 -0.1956
 1117loPI   C3B17871  14.914  10.403   6.648  0.0071  0.0758 -0.0215
 1117loPI   C4B17872  14.832  10.506   7.166 -0.0626 -0.0914 -0.0700
 1118loPI    C117873   4.594   9.613   4.919 -0.2577 -0.3466 -0.0053
 1118loPI    C217874   4.220   9.743   4.867 -0.0880  0.0948 -0.1806
 1118loPI    C317875   4.438   9.630   4.552  0.0827  0.2929 -0.1350
 1118loPI   PO417876   4.504   9.360   5.143  0.1901  0.0772  0.0344
 1118loPI   GL117877   4.323   9.070   5.415 -0.1661 -0.3827 -0.0521
 1118loPI   GL217878   4.565   9.068   5.539  0.0146  0.0895  0.0635
 1118loPI   C1A17879   4.045   9.226   5.818  0.3198  0.0447 -0.0434
 1118loPI   C2A17880   4.021   9.066   6.274 -0.0468  0.1848  0.1480
 1118loPI   C3A17881   3.987   9.097   6.750  0.0891  0.3532 -0.1304
 1118loPI   C4A17882   4.033   9.116   7.149  0.2612  0.2324  0.1156
 1118loPI   C5A17883   4.067   9.107   7.589 -0.2916  0.0209 -0.0123
 1118loPI   C6A17884   4.462   9.185   7.939 -0.1647  0.3055 -0.3541
 1118loPI   C1B17885   4.322   8.701   5.795 -0.1524 -0.0263  0.1574
 1118loPI   C2B17886   4.113   8.479   6.184 -0.0475 -0.2011  0.2114
 1118loPI   C3B17887   3.877   8.636   6.453  0.0981  0.3161  0.0839
 1118loPI   C4B17888   3.888   8.589   6.873  0.0900 -0.0337  0.1346
 1119loPI    C117889   2.577  18.769   4.613  0.0812 -0.1267  0.0693
 1119loPI    C217890   2.804  18.534   4.382  0.1077  0.0369 -0.0727
 1119loPI    C317891   2.419  18.593   4.290  0.0119 -0.2164  0.1514
 1119loPI   PO417892   2.690  18.727   4.834 -0.1236  0.1089  0.0438
 1119loPI   GL117893   2.533  18.616   5.162  0.0829 -0.0340  0.2178
 1119loPI   GL217894   2.364  18.877   5.189 -0.0587 -0.1734 -0.1470
 1119loPI   C1A17895   2.816  18.708   5.512  0.1638 -0.0256  0.2455
 1119loPI   C2A17896   2.770  18.678   5.870  0.0535 -0.2413  0.0452
 1119loPI   C3A17897   2.746  18.633   6.236  0.1539 -0.0367  0.2356
 1119loPI   C4A17898   2.720  18.564   6.683  0.3641 -0.0456  0.0706
 1119loPI   C5A17899   2.674  18.717   7.075  0.0594 -0.1840  0.2933
 1119loPI   C6A17900   2.716  19.076   7.350 -0.2042  0.0974  0.0732
 1119loPI   C1B17901   2.335  18.709   5.637  0.2413  0.0763  0.1048
 1119loPI   C2B17902   2.259  18.721   6.096  0.0497 -0.1487 -0.2617
 1119loPI   C3B17903   2.105  18.784   6.500 -0.0398  0.0865  0.2694
 1119loPI   C4B17904   1.855  18.982   6.791  0.0380 -0.0785  0.1684
 1120loPI    C117905   8.379   8.191   5.260 -0.1514 -0.0907 -0.1861
 1120loPI    C217906   8.743   8.100   5.120 -0.1599 -0.0788 -0.2161
 1120loPI    C317907   8.581   8.457   5.039  0.0324  0.1151  0.2192
 1120loPI   PO417908   8.346   8.099   5.471 -0.1811  0.0474  0.0320
 1120loPI   GL117909   8.327   7.621   5.763  0.1637 -0.4049  0.1397
 1120loPI   GL217910   8.174   7.430   5.806 -0.0464  0.0369  0.3533
 1120loPI   C1A17911   8.498   7.545   6.199 -0.0477 -0.1469 -0.1776
 1120loPI   C2A17912   8.747   7.572   6.500  0.1876  0.2567 -0.1945
 1120loPI   C3A17913   8.904   7.564   7.013  0.1121 -0.1271 -0.2130
 1120loPI   C4A17914   8.969   7.486   7.455  0.2397 -0.2958 -0.0555
 1120loPI   C5A17915   9.009   7.340   7.735  0.2688 -0.0221  0.1004
 1120loPI   C6A17916   9.218   7.287   7.994  0.2974  0.1995 -0.1559
 1120loPI   C1B17917   7.961   7.479   6.260 -0.1170 -0.2012  0.2290
 1120loPI   C2B17918   7.849   7.638   6.625 -0.1195 -0.1908  0.1256
 1120loPI   C3B17919   7.974   7.813   6.969 -0.2635 -0.0912 -0.0074
 1120loPI   C4B17920   8.098   8.133   7.294  0.3019  0.4568 -0.0434
 1121loPI    C117921   2.091  16.498   4.644 -0.0522  0.0716 -0.0426
 1121loPI    C217922   2.256  16.461   4.281 -0.2442  0.0941 -0.1334
 1121loPI    C317923   1.961  16.215   4.392 -0.0007 -0.0929  0.1135
 1121loPI   PO417924   2.277  16.530   4.901 -0.1245  0.2641 -0.1943
 1121loPI   GL117925   2.288  16.642   5.331 -0.0579 -0.0508  0.0715
 1121loPI   GL217926   2.455  16.391   5.600 -0.3124  0.1254  0.1637
 1121loPI   C1A17927   2.246  16.873   5.818  0.1080  0.4388  0.2044
 1121loPI   C2A17928   2.270  16.885   6.217 -0.1344 -0.0505 -0.1400
 1121loPI   C3A17929   2.262  16.812   6.646 -0.0839 -0.0785  0.3051
 1121loPI   C4A17930   2.328  16.927   7.101  0.1481 -0.0209  0.1847
 1121loPI   C5A17931   2.504  16.837   7.540 -0.0949 -0.0433  0.0471
 1121loPI   C6A17932   2.421  16.452   7.788 -0.2496 -0.1216  0.0886
 1121loPI   C1B17933   2.282  16.350   6.000 -0.1548 -0.0873  0.0637
 1121loPI   C2B17934   2.415  16.415   6.389 -0.1191 -0.0497 -0.1591
 1121loPI   C3B17935   2.454  16.323   6.856  0.3055 -0.1520 -0.1118
 1121loPI   C4B17936   2.149  16.107   7.016  0.0637 -0.1846  0.0827
 1122loPI    C117937   4.676  13.595   4.954 -0.2068 -0.3324  0.0168
 1122loPI    C217938   4.481  13.614   4.605 -0.1756 -0.0645  0.0118
 1122loPI    C317939   4.809  13.836   4.663 -0.1228 -0.1835  0.1765
 1122loPI   PO417940   4.497  13.604   5.131  0.0264  0.3558  0.0055
 1122loPI   GL117941   4.237  13.802   5.436  0.1883  0.1601 -0.2033
 1122loPI   GL217942   4.187  14.030   5.340  0.1538  0.2056 -0.0239
 1122loPI   C1A17943   4.125  13.690   5.820 -0.1297  0.2848 -0.0927
 1122loPI   C2A17944   4.293  13.881   6.190  0.0665  0.1424 -0.0316
 1122loPI   C3A17945   4.492  13.985   6.497 -0.0004 -0.0967  0.1851
 1122loPI   C4A17946   4.695  14.177   6.901 -0.1770 -0.1942  0.1252
 1122loPI   C5A17947   4.699  14.188   7.306 -0.0996 -0.1891  0.1107
 1122loPI   C6A17948   4.433  14.130   7.556 -0.0015 -0.1319  0.2138
 1122loPI   C1B17949   4.281  14.192   5.788  0.1615  0.2368  0.2675
 1122loPI   C2B17950   4.221  14.364   6.148 -0.1121 -0.1701  0.3080
 1122loPI   C3B17951   4.243  14.425   6.592 -0.0803  0.2683  0.1310
 1122loPI   C4B17952   4.225  14.299   7.104 -0.1189 -0.0339 -0.1192
 1123loPI    C117953   7.530   4.871   4.932 -0.0902  0.2400  0.1422
 1123loPI    C217954   7.743   5.093   4.675 -0.0681  0.1126  0.0495
 1123loPI    C317955   7.343   5.114   4.675 -0.0654  0.1649  0.0526
 1123loPI   PO417956   7.698   4.843   5.177  0.1003 -0.1455  0.1156
 1123loPI   GL117957   7.467   5.031   5.563 -0.2340  0.0579 -0.0573
 1123loPI   GL217958   7.795   5.155   5.658 -0.3611 -0.1415  0.1348
 1123loPI   C1A17959   7.267   4.876   5.958  0.0612 -0.1227 -0.2685
 1123loPI   C2A17960   7.266   4.837   6.432  0.1743 -0.0182 -0.0143
 1123loPI   C3A17961   7.329   4.832   6.834  0.0114 -0.0876 -0.0073
 1123loPI   C4A17962   7.207   4.808   7.249  0.1807 -0.1490  0.1059
 1123loPI   C5A17963   6.958   4.506   7.524  0.2304  0.0145 -0.2146
 1123loPI   C6A17964   6.953   4.256   7.905  0.0548 -0.2249  0.2142
 1123loPI   C1B17965   7.725   5.075   6.088  0.0023  0.3309  0.2497
 1123loPI   C2B17966   7.687   5.074   6.453 -0.3897 -0.0020 -0.3450
 1123loPI   C3B17967   7.724   5.100   6.895 -0.3008 -0.2205  0.2144
 1123loPI   C4B17968   7.676   5.064   7.338 -0.0826 -0.3108 -0.2238
 1124loPI    C117969   4.363   7.073   4.596  0.0611 -0.1999 -0.1793
 1124loPI    C217970   3.976   7.126   4.510  0.0270 -0.0166  0.0739
 1124loPI    C317971   4.257   7.310   4.292 -0.0401  0.0789  0.0676
 1124loPI   PO417972   4.360   7.096   4.927  0.1113 -0.0292  0.2747
 1124loPI   GL117973   4.340   7.140   5.284 -0.4214 -0.2159  0.1303
 1124loPI   GL217974   4.192   6.957   5.418  0.0108 -0.2021  0.2215
 1124loPI   C1A17975   4.553   7.290   5.682 -0.1093 -0.0033 -0.1673
 1124loPI   C2A17976   4.689   7.240   6.117 -0.3106  0.0552  0.0862
 1124loPI   C3A17977   4.637   7.055   6.500 -0.2869  0.0352  0.1484
 1124loPI   C4A17978   4.696   6.971   6.941  0.0503 -0.2896  0.0847
 1124loPI   C5A17979   4.674   7.137   7.348  0.1710 -0.0331  0.1812
 1124loPI   C6A17980   4.469   7.093   7.710 -0.1864  0.1110  0.0143
 1124loPI   C1B17981   4.195   6.992   5.839  0.1110 -0.0006 -0.1197
 1124loPI   C2B17982   4.229   6.912   6.226 -0.2076  0.0428 -0.0129
 1124loPI   C3B17983   4.241   6.722   6.566 -0.1946 -0.2440  0.0809
 1124loPI   C4B17984   4.228   6.803   7.041  0.0895  0.0571  0.0385
 1125loPI    C117985   7.761  16.031   4.376 -0.0368 -0.0667  0.0353
 1125loPI    C217986   7.446  15.904   4.164  0.0579 -0.0914 -0.0916
 1125loPI    C317987   7.806  15.932   3.992  0.1037  0.0413  0.0231
 1125loPI   PO417988   7.752  15.861   4.606 -0.4038 -0.1453 -0.0922
 1125loPI   GL117989   7.551  15.891   4.949 -0.0042  0.3677  0.1304
 1125loPI   GL217990   7.816  15.772   5.093 -0.1246 -0.0901  0.0127
 1125loPI   C1A17991   7.355  15.760   5.426  0.0124 -0.0820  0.1192
 1125loPI   C2A17992   7.338  15.642   5.804 -0.1480 -0.1654 -0.0968
 1125loPI   C3A17993   7.372  15.687   6.204 -0.0769  0.0135  0.2981
 1125loPI   C4A17994   7.301  15.533   6.586  0.1391 -0.0458 -0.2037
 1125loPI   C5A17995   7.421  15.472   7.086  0.0631  0.1298 -0.0008
 1125loPI   C6A17996   7.118  15.649   7.516  0.0284  0.1702 -0.2827
 1125loPI   C1B17997   7.834  15.584   5.511 -0.0604 -0.1709  0.0954
 1125loPI   C2B17998   7.793  15.505   5.898  0.3755  0.1812 -0.0814
 1125loPI   C3B17999   7.787  15.595   6.394 -0.0742  0.2461 -0.1656
 1125loPI   C4B18000   7.783  15.603   6.796  0.1598  0.3316  0.2758
 1126loPI    C118001  11.999  16.589   5.242  0.0163 -0.0182 -0.2255
 1126loPI    C218002  12.144  16.951   5.151  0.1477 -0.0476 -0.1368
 1126loPI    C318003  12.029  16.702   4.859  0.3582 -0.0572 -0.2130
 1126loPI   PO418004  12.279  16.492   5.485  0.1886 -0.1812  0.1351
 1126loPI   GL118005  12.287  16.453   5.867  0.0191 -0.0724  0.1422
 1126loPI   GL218006  12.470  16.188   5.952  0.2619  0.0552  0.1062
 1126loPI   C1A18007  12.264  16.666   6.281 -0.0413  0.3403  0.1691
 1126loPI   C2A18008  12.387  16.701   6.665 -0.1341 -0.2688  0.4397
 1126loPI   C3A18009  12.323  16.678   7.025 -0.1559 -0.0280  0.0212
 1126loPI   C4A18010  12.131  16.799   7.456 -0.0507  0.2656  0.1668
 1126loPI   C5A18011  11.965  16.561   7.749 -0.0234 -0.1733 -0.1069
 1126loPI   C6A18012  11.892  16.426   8.091  0.1456  0.0351  0.0278
 1126loPI   C1B18013  12.367  15.994   6.291  0.0465 -0.2322 -0.1015
 1126loPI   C2B18014  12.162  15.760   6.569  0.3200  0.0861  0.0939
 1126loPI   C3B18015  12.019  15.345   6.729 -0.1500 -0.1246 -0.1122
 1126loPI   C4B18016  11.917  15.095   6.994  0.2520  0.2180  0.4472
 1127loPI    C118017  17.597   7.572   5.350 -0.2759 -0.0599  0.2069
 1127loPI    C218018  17.534   7.855   5.074 -0.0142 -0.1363  0.0640
 1127loPI    C318019  17.438   7.475   4.996 -0.1784 -0.1199  0.1791
 1127loPI   PO418020  17.474   7.701   5.624 -0.2226 -0.0461 -0.2821
 1127loPI   GL118021  17.441   7.656   6.040  0.0972 -0.0708 -0.0958
 1127loPI   GL218022  17.490   7.985   6.097  0.0207 -0.1855  0.1817
 1127loPI   C1A18023  17.286   7.610   6.435  0.0707  0.0111  0.1937
 1127loPI   C2A18024  17.292   7.745   6.776  0.1430  0.0290  0.1323
 1127loPI   C3A18025  17.227   7.595   7.116  0.3795  0.1291 -0.1833
 1127loPI   C4A18026  17.183   7.757   7.552  0.0691 -0.2955 -0.2527
 1127loPI   C5A18027  17.202   8.039   7.873  0.1650 -0.0308 -0.3539
 1127loPI   C6A18028  16.953   8.198   8.179  0.1649 -0.0142  0.1150
 1127loPI   C1B18029  17.580   8.137   6.512 -0.0964  0.0714 -0.0793
 1127loPI   C2B18030  17.610   8.124   6.894  0.3252 -0.4065  0.0390
 1127loPI   C3B18031  17.677   7.752   7.118 -0.1778  0.2213 -0.2613
 1127loPI   C4B18032  17.742   7.427   7.304  0.1529  0.1978  0.4957
 1128loPI    C118033   7.414  16.709   4.588  0.1794 -0.0734  0.0637
 1128loPI    C218034   7.573  16.824   4.239  0.0977 -0.0871  0.0217
 1128loPI    C318035   7.738  16.523   4.444 -0.0930 -0.3518 -0.2058
 1128loPI   PO418036   7.345  16.914   4.699  0.3163 -0.0370 -0.1425
 1128loPI   GL118037   7.208  17.042   5.152  0.0357 -0.1008  0.0979
 1128loPI   GL218038   7.427  17.361   5.151 -0.2462  0.1547  0.1027
 1128loPI   C1A18039   7.173  16.950   5.573 -0.0739  0.0595  0.0708
 1128loPI   C2A18040   7.163  16.981   5.961  0.1394  0.4268 -0.1074
 1128loPI   C3A18041   7.231  17.028   6.333  0.0240  0.1266  0.0951
 1128loPI   C4A18042   7.155  17.027   6.791 -0.0713  0.0589 -0.0766
 1128loPI   C5A18043   7.301  17.140   7.237  0.2485  0.1168  0.1013
 1128loPI   C6A18044   7.127  17.155   7.636  0.0326  0.2294 -0.0549
 1128loPI   C1B18045   7.422  17.338   5.673  0.0243 -0.0775 -0.0871
 1128loPI   C2B18046   7.436  17.436   6.127  0.1312  0.1075  0.0099
 1128loPI   C3B18047   7.531  17.428   6.498 -0.2112 -0.3088  0.1839
 1128loPI   C4B18048   7.458  17.461   6.914  0.2685 -0.0195  0.1150
 1129loPI    C118049   7.166   9.134   5.512 -0.0951  0.2728 -0.2238
 1129loPI    C218050   6.833   8.949   5.630  0.0232  0.2680  0.1130
 1129loPI    C318051   6.941   8.938   5.246  0.0347 -0.3751  0.1224
 1129loPI   PO418052   7.319   9.049   5.699  0.2101 -0.0400  0.1600
 1129loPI   GL118053   7.570   9.384   5.901  0.2020  0.2085  0.0039
 1129loPI   GL218054   7.856   9.251   6.070  0.2465 -0.0096 -0.0635
 1129loPI   C1A18055   7.538   9.582   6.267  0.2002  0.1658  0.1731
 1129loPI   C2A18056   7.473   9.615   6.716  0.2550  0.3423 -0.0417
 1129loPI   C3A18057   7.355   9.754   7.166  0.1278  0.0527  0.3491
 1129loPI   C4A18058   7.501   9.730   7.635  0.1443  0.2944  0.0161
 1129loPI   C5A18059   7.829  10.018   7.883 -0.0003 -0.0569 -0.2804
 1129loPI   C6A18060   7.903  10.143   8.249 -0.0689 -0.0357 -0.4528
 1129loPI   C1B18061   7.477   9.116   6.365  0.1404  0.1113 -0.0445
 1129loPI   C2B18062   7.527   9.120   6.820 -0.0337  0.0370 -0.2996
 1129loPI   C3B18063   7.745   8.912   7.183 -0.0552  0.1956  0.1302
 1129loPI   C4B18064   7.785   8.536   7.500 -0.2687 -0.0112 -0.0853
 1130loPI    C118065   9.246  18.093   4.726 -0.0567  0.1076 -0.0268
 1130loPI    C218066   9.576  18.215   4.535 -0.0977  0.0576 -0.1300
 1130loPI    C318067   9.280  18.474   4.606  0.0282  0.1406  0.1002
 1130loPI   PO418068   9.324  17.887   4.902 -0.2048  0.2838 -0.0967
 1130loPI   GL118069   9.500  17.766   5.225  0.0970 -0.0363  0.1493
 1130loPI   GL218070   9.686  17.644   5.373 -0.0647  0.0721  0.0851
 1130loPI   C1A18071   9.634  18.126   5.552  0.0543  0.1765  0.0526
 1130loPI   C2A18072   9.592  18.189   5.946  0.0970  0.0921 -0.3546
 1130loPI   C3A18073   9.548  18.211   6.377 -0.3303 -0.1101 -0.4013
 1130loPI   C4A18074   9.545  18.241   6.847  0.2337  0.0147 -0.0611
 1130loPI   C5A18075   9.821  18.222   7.258  0.2547 -0.1987 -0.2853
 1130loPI   C6A18076  10.176  18.345   7.515  0.1724 -0.3201 -0.0855
 1130loPI   C1B18077   9.848  17.603   5.817  0.2292  0.0296 -0.1872
 1130loPI   C2B18078   9.757  17.690   6.227  0.0291  0.2539  0.1520
 1130loPI   C3B18079   9.837  17.752   6.651  0.2452 -0.0328 -0.0987
 1130loPI   C4B18080   9.827  17.701   7.114  0.1043  0.1219 -0.1905
 1131loPI    C118081  17.174   0.291   5.051 -0.1324 -0.0825  0.2207
 1131loPI    C218082  17.541   0.199   4.920 -0.2477 -0.0786 -0.1120
 1131loPI    C318083  17.275   0.367   4.672 -0.2615  0.5408  0.2993
 1131loPI   PO418084  17.152   0.437   5.237  0.0748 -0.0074 -0.1874
 1131loPI   GL118085  17.497   0.499   5.629  0.4035  0.0893 -0.0267
 1131loPI   GL218086  17.202   0.715   5.668  0.1382 -0.0144 -0.1684
 1131loPI   C1A18087  17.644   0.478   6.065  0.2187 -0.1980  0.1307
 1131loPI   C2A18088  17.694   0.560   6.489  0.2859 -0.2124  0.0066
 1131loPI   C3A18089  17.820   0.514   6.896  0.5463 -0.3395 -0.0400
 1131loPI   C4A18090  18.013   0.569   7.339 -0.1274 -0.2029  0.0093
 1131loPI   C5A18091  18.427   0.426   7.610  0.0343 -0.2121 -0.0467
 1131loPI   C6A18092  18.686   0.400   7.943  0.1413 -0.0011 -0.0740
 1131loPI   C1B18093  17.149   0.764   6.157 -0.3517 -0.0945  0.3350
 1131loPI   C2B18094  17.321   0.822   6.607  0.0269 -0.1164 -0.0547
 1131loPI   C3B18095  17.349   0.709   7.075  0.0417  0.1841 -0.0830
 1131loPI   C4B18096  17.430   0.733   7.481 -0.0920 -0.1450  0.0070
 1132loPI    C118097  12.453   1.355   4.837  0.1264  0.1668 -0.1721
 1132loPI    C218098  12.093   1.271   4.685  0.1251  0.3059 -0.2471
 1132loPI    C318099  12.422   1.198   4.471  0.1768 -0.3048  0.0182
 1132loPI   PO418100  12.378   1.278   5.087  0.0630  0.1983 -0.2693
 1132loPI   GL118101  12.479   1.299   5.435 -0.1351 -0.1131  0.0007
 1132loPI   GL218102  12.264   1.592   5.477 -0.0150 -0.0044 -0.4397
 1132loPI   C1A18103  12.732   1.360   5.764 -0.0276 -0.3443 -0.0938
 1132loPI   C2A18104  12.710   1.277   6.175 -0.2630  0.0528  0.0776
 1132loPI   C3A18105  12.761   1.237   6.561  0.0298  0.1568 -0.0753
 1132loPI   C4A18106  12.725   1.267   6.914  0.0265  0.2188  0.0023
 1132loPI   C5A18107  12.824   1.202   7.336 -0.1187 -0.2335  0.4827
 1132loPI   C6A18108  13.049   1.098   7.744  0.0357  0.0906  0.6164
 1132loPI   C1B18109  12.114   1.593   5.911  0.0317 -0.1187  0.2669
 1132loPI   C2B18110  12.304   1.575   6.330  0.4208  0.0748  0.0512
 1132loPI   C3B18111  12.288   1.526   6.756 -0.1566 -0.0841 -0.3727
 1132loPI   C4B18112  12.322   1.470   7.118 -0.1612  0.1359 -0.0705
 1133loPI    C118113   2.956   4.477   4.427 -0.3572 -0.0469  0.0018
 1133loPI    C218114   3.094   4.829   4.299  0.1054 -0.1970  0.0678
 1133loPI    C318115   2.740   4.695   4.171 -0.0857  0.2959  0.0566
 1133loPI   PO418116   3.066   4.457   4.697  0.1060  0.0150  0.0723
 1133loPI   GL118117   3.039   4.433   5.005 -0.2966 -0.0339  0.1703
 1133loPI   GL218118   2.857   4.159   5.235  0.3537  0.0010  0.2420
 1133loPI   C1A18119   3.358   4.297   5.298  0.0766 -0.0730  0.1742
 1133loPI   C2A18120   3.303   4.339   5.743  0.3324 -0.2029  0.4332
 1133loPI   C3A18121   3.287   4.154   6.289 -0.0247  0.0123 -0.1101
 1133loPI   C4A18122   3.260   4.167   6.672  0.0341  0.0690 -0.1756
 1133loPI   C5A18123   3.271   3.997   7.047  0.0892 -0.1776 -0.1117
 1133loPI   C6A18124   3.014   3.791   7.248 -0.0763  0.0641 -0.1382
 1133loPI   C1B18125   3.030   3.945   5.544  0.0612  0.0303 -0.0219
 1133loPI   C2B18126   3.241   3.853   5.916  0.2069  0.1407 -0.0431
 1133loPI   C3B18127   3.197   3.635   6.287 -0.1756 -0.0822 -0.0496
 1133loPI   C4B18128   3.308   3.675   6.630  0.0261  0.3186 -0.1110
 1134loPI    C118129  13.814  14.083   5.438  0.0631  0.1204  0.0754
 1134loPI    C218130  14.153  13.890   5.349 -0.1513 -0.1529 -0.1687
 1134loPI    C318131  13.890  13.976   5.060 -0.4104 -0.1763  0.0557
 1134loPI   PO418132  13.879  14.195   5.589  0.0537 -0.2796 -0.2836
 1134loPI   GL118133  13.943  14.441   5.933  0.1569 -0.1528 -0.1755
 1134loPI   GL218134  13.923  14.176   6.081 -0.2325 -0.1128  0.0580
 1134loPI   C1A18135  14.321  14.483   6.175 -0.2341  0.1221  0.0637
 1134loPI   C2A18136  14.450  14.264   6.526  0.0673 -0.1087 -0.1487
 1134loPI   C3A18137  14.281  14.286   6.883 -0.2014 -0.4110  0.0815
 1134loPI   C4A18138  14.392  14.408   7.279 -0.3726 -0.3055 -0.2267
 1134loPI   C5A18139  14.592  14.720   7.559  0.1350 -0.0278  0.0694
 1134loPI   C6A18140  14.527  15.206   7.502 -0.1249  0.1569 -0.1221
 1134loPI   C1B18141  13.583  14.017   6.357 -0.1457  0.0345  0.5100
 1134loPI   C2B18142  13.415  13.965   6.679  0.0648 -0.0588 -0.0734
 1134loPI   C3B18143  13.481  13.924   7.039  0.5390 -0.0166 -0.0332
 1134loPI   C4B18144  13.776  13.792   7.218 -0.0934 -0.0205  0.3736
 1135loPI    C118145   6.558   8.630   5.141 -0.1946 -0.0234  0.0462
 1135loPI    C218146   6.246   8.644   4.891 -0.0067  0.2790 -0.1779
 1135loPI    C318147   6.509   8.344   4.867 -0.0453  0.2529 -0.2758
 1135loPI   PO418148   6.427   8.725   5.392  0.0828 -0.3067 -0.1137
 1135loPI   GL118149   6.324   8.968   5.764 -0.1519  0.0127 -0.1576
 1135loPI   GL218150   6.142   9.263   5.836 -0.0899 -0.0723  0.1108
 1135loPI   C1A18151   5.897   8.883   6.070  0.1447 -0.1072  0.1145
 1135loPI   C2A18152   5.729   8.590   6.324  0.0127  0.0212 -0.0206
 1135loPI   C3A18153   5.742   8.451   6.731 -0.0775 -0.1433 -0.3238
 1135loPI   C4A18154   6.095   8.530   7.060  0.2067 -0.1173  0.2533
 1135loPI   C5A18155   6.427   8.361   7.431 -0.3118  0.1765  0.0483
 1135loPI   C6A18156   6.769   8.440   7.735 -0.1288 -0.2086 -0.0615
 1135loPI   C1B18157   6.160   9.559   6.080  0.0459 -0.2099  0.1039
 1135loPI   C2B18158   6.178   9.651   6.556  0.4822 -0.1878  0.0597
 1135loPI   C3B18159   5.953   9.802   6.957 -0.0370  0.1813 -0.1029
 1135loPI   C4B18160   6.000   9.918   7.357  0.0019 -0.1425 -0.1875
 1136loPI    C118161   7.249   3.470   4.540 -0.0234 -0.0957 -0.2476
 1136loPI    C218162   7.508   3.768   4.474  0.1672 -0.1206  0.3329
 1136loPI    C318163   7.584   3.402   4.333  0.1149  0.0168 -0.0640
 1136loPI   PO418164   7.084   3.550   4.765 -0.0011  0.0322 -0.4736
 1136loPI   GL118165   7.011   3.635   5.199  0.1577 -0.2290 -0.1617
 1136loPI   GL218166   6.863   3.355   5.225 -0.1320  0.2161  0.0304
 1136loPI   C1A18167   7.252   3.696   5.621 -0.1042 -0.2673  0.0908
 1136loPI   C2A18168   7.196   3.824   5.996 -0.2604 -0.4546 -0.1758
 1136loPI   C3A18169   7.250   3.803   6.437  0.2672  0.4025 -0.1932
 1136loPI   C4A18170   7.271   3.774   6.959 -0.0717 -0.3601 -0.0045
 1136loPI   C5A18171   7.321   3.668   7.425  0.0082  0.0207  0.2902
 1136loPI   C6A18172   7.688   3.485   7.705 -0.0573 -0.1924 -0.0698
 1136loPI   C1B18173   6.795   3.507   5.709  0.0088 -0.3324  0.1481
 1136loPI   C2B18174   6.820   3.543   6.123 -0.0871  0.1847 -0.1917
 1136loPI   C3B18175   6.783   3.576   6.602  0.1445 -0.3497  0.2889
 1136loPI   C4B18176   6.853   3.591   7.031 -0.0030 -0.0312  0.0768
 1137loPI    C118177   2.370   5.613   4.795 -0.0637 -0.3669  0.0638
 1137loPI    C218178   2.086   5.678   4.520 -0.0692  0.0254  0.1570
 1137loPI    C318179   2.466   5.621   4.407 -0.1441 -0.2704  0.0455
 1137loPI   PO418180   2.318   5.461   4.942 -0.1988  0.0998  0.1127
 1137loPI   GL118181   2.354   5.451   5.445 -0.0187  0.0220 -0.0642
 1137loPI   GL218182   2.533   5.255   5.339  0.0933  0.1256 -0.1287
 1137loPI   C1A18183   2.727   5.526   5.720 -0.1923  0.1200 -0.0442
 1137loPI   C2A18184   2.979   5.567   6.053  0.2838  0.1769  0.1660
 1137loPI   C3A18185   2.889   5.605   6.359 -0.3008  0.1146 -0.1013
 1137loPI   C4A18186   2.890   5.493   6.794  0.0067 -0.1698 -0.1437
 1137loPI   C5A18187   2.786   5.309   7.148  0.0797  0.0635 -0.0113
 1137loPI   C6A18188   2.492   5.473   7.463  0.0351 -0.2828  0.0429
 1137loPI   C1B18189   2.753   5.029   5.655  0.2770 -0.1077  0.1092
 1137loPI   C2B18190   2.907   5.010   6.029  0.2003 -0.0675  0.0944
 1137loPI   C3B18191   2.859   4.979   6.481 -0.2561 -0.2373 -0.1411
 1137loPI   C4B18192   2.930   4.958   6.841  0.1726 -0.0460 -0.0331
 1138loPI    C118193  15.208   2.427   5.163  0.0306  0.1074 -0.0893
 1138loPI    C218194  14.977   2.253   4.887 -0.1148  0.2047 -0.0300
 1138loPI    C318195  15.048   2.646   4.869  0.1711  0.1500 -0.1344
 1138loPI   PO418196  15.385   2.212   5.324  0.1238 -0.1805  0.0690
 1138loPI   GL118197  15.085   2.118   5.623  0.1443 -0.3961  0.0528
 1138loPI   GL218198  14.798   2.003   5.726 -0.2114 -0.1157  0.2147
 1138loPI   C1A18199  15.197   1.858   5.918  0.0384 -0.0086  0.2345
 1138loPI   C2A18200  15.275   1.887   6.337 -0.0883 -0.3456 -0.1007
 1138loPI   C3A18201  15.338   1.973   6.787 -0.1737  0.0167  0.2467
 1138loPI   C4A18202  15.290   1.999   7.281 -0.0528  0.0300 -0.0689
 1138loPI   C5A18203  15.268   1.831   7.688 -0.2992  0.0788 -0.0526
 1138loPI   C6A18204  15.523   1.670   7.929  0.0578 -0.1047 -0.1152
 1138loPI   C1B18205  14.883   2.215   6.111 -0.0164 -0.0115 -0.1591
 1138loPI   C2B18206  14.845   2.164   6.537  0.1557 -0.1090  0.0410
 1138loPI   C3B18207  14.892   2.173   6.911  0.1739  0.1312 -0.2190
 1138loPI   C4B18208  14.846   2.231   7.358  0.0564 -0.0424 -0.3035
 1139loPI    C118209  12.594  15.588   5.042 -0.0492  0.2024  0.3272
 1139loPI    C218210  12.640  15.933   4.844 -0.2372 -0.0335 -0.1457
 1139loPI    C318211  12.288  15.844   5.012 -0.2264 -0.0500 -0.1315
 1139loPI   PO418212  12.755  15.629   5.214 -0.1436  0.0376 -0.1533
 1139loPI   GL118213  12.700  15.495   5.713  0.0358  0.0199  0.2824
 1139loPI   GL218214  12.681  15.756   5.864 -0.2531  0.0863 -0.2846
 1139loPI   C1A18215  12.860  15.275   6.066  0.0903 -0.3649 -0.5457
 1139loPI   C2A18216  12.873  15.247   6.467 -0.0863  0.0816  0.0170
 1139loPI   C3A18217  12.969  15.156   6.873 -0.2576 -0.2304  0.0852
 1139loPI   C4A18218  13.182  15.171   7.273 -0.1364  0.3897 -0.0330
 1139loPI   C5A18219  13.440  15.105   7.649 -0.0547 -0.2844  0.0507
 1139loPI   C6A18220  13.836  15.254   7.578 -0.1588 -0.4151  0.0462
 1139loPI   C1B18221  12.910  15.765   6.210  0.1263  0.0177 -0.0953
 1139loPI   C2B18222  13.100  16.160   6.152 -0.0004  0.0302 -0.0501
 1139loPI   C3B18223  13.282  16.508   6.405 -0.1013  0.0102 -0.1283
 1139loPI   C4B18224  13.010  16.724   6.709  0.1294 -0.3294 -0.1562
 1140loPI    C118225   4.715   8.395   4.951  0.0400 -0.1203  0.0462
 1140loPI    C218226   4.720   8.576   4.594  0.0487 -0.3401 -0.0672
 1140loPI    C318227   4.414   8.636   4.845  0.2138  0.0969  0.0395
 1140loPI   PO418228   4.949   8.509   5.097  0.2848  0.2866 -0.1432
 1140loPI   GL118229   5.151   8.234   5.338  0.0445  0.1277  0.0785
 1140loPI   GL218230   5.250   8.422   5.497  0.1150  0.1791 -0.2045
 1140loPI   C1A18231   5.012   8.042   5.763  0.1623  0.2008  0.2149
 1140loPI   C2A18232   5.141   7.890   6.197 -0.0006  0.4881  0.0087
 1140loPI   C3A18233   5.194   7.776   6.546 -0.0076  0.0399 -0.0550
 1140loPI   C4A18234   5.120   7.771   6.979  0.0484 -0.1890 -0.2974
 1140loPI   C5A18235   5.074   8.142   7.238  0.0027  0.3141 -0.0049
 1140loPI   C6A18236   5.189   8.161   7.559  0.0564  0.0655  0.1053
 1140loPI   C1B18237   5.237   8.437   5.985 -0.0734  0.1799  0.1685
 1140loPI   C2B18238   5.291   8.287   6.370  0.2641 -0.0662 -0.0163
 1140loPI   C3B18239   5.253   8.214   6.788  0.0055  0.2814 -0.1787
 1140loPI   C4B18240   5.377   8.501   7.146 -0.4384 -0.2146  0.2326
 1141loPI    C118241  15.356  12.744   5.272  0.0733  0.1896 -0.1005
 1141loPI    C218242  15.555  12.755   4.925  0.0723  0.1266 -0.1032
 1141loPI    C318243  15.199  12.935   4.958  0.0686  0.1258 -0.1373
 1141loPI   PO418244  15.571  12.608   5.441  0.2018  0.0198  0.0698
 1141loPI   GL118245  15.853  12.757   5.743  0.0383 -0.0637 -0.0109
 1141loPI   GL218246  15.767  13.010   6.044 -0.0866 -0.1219  0.1341
 1141loPI   C1A18247  15.860  12.470   6.054  0.0263 -0.2181 -0.1195
 1141loPI   C2A18248  15.834  12.502   6.459  0.0984  0.1622  0.0090
 1141loPI   C3A18249  15.829  12.474   6.999  0.0565 -0.0494 -0.3114
 1141loPI   C4A18250  15.704  12.717   7.438 -0.1018  0.1039  0.0614
 1141loPI   C5A18251  15.542  12.633   7.825 -0.0070  0.1042  0.1843
 1141loPI   C6A18252  15.759  12.531   8.279  0.2307  0.1891  0.1111
 1141loPI   C1B18253  15.719  13.065   6.514 -0.0434  0.2697  0.2514
 1141loPI   C2B18254  15.800  13.055   6.902 -0.1048 -0.0097 -0.2925
 1141loPI   C3B18255  15.807  13.166   7.261 -0.4034 -0.4020  0.0887
 1141loPI   C4B18256  15.769  13.077   7.743  0.0347  0.4181  0.0370
 1142loPI    C118257  14.549   4.000   4.989 -0.2056  0.0310 -0.2720
 1142loPI    C218258  14.627   3.918   4.605  0.0530 -0.2021 -0.1723
 1142loPI    C318259  14.927   3.994   4.859 -0.1371  0.3350 -0.0971
 1142loPI   PO418260  14.325   3.814   5.116 -0.3002 -0.3836  0.0493
 1142loPI   GL118261  14.364   3.586   5.496  0.0291 -0.1391  0.3712
 1142loPI   GL218262  14.613   3.902   5.676  0.0211 -0.1757  0.2422
 1142loPI   C1A18263  14.100   3.762   5.837 -0.1217 -0.0178 -0.2235
 1142loPI   C2A18264  13.986   3.667   6.189  0.2241  0.0162 -0.1690
 1142loPI   C3A18265  13.901   3.651   6.531 -0.0232 -0.2240 -0.1956
 1142loPI   C4A18266  13.868   3.675   6.941 -0.1850  0.0136 -0.2480
 1142loPI   C5A18267  13.954   3.745   7.426 -0.1882  0.0693  0.2904
 1142loPI   C6A18268  14.023   4.123   7.634  0.1869 -0.1551 -0.1060
 1142loPI   C1B18269  14.476   3.830   6.166  0.4072  0.0019  0.0673
 1142loPI   C2B18270  14.379   3.752   6.585  0.0571  0.3009  0.2208
 1142loPI   C3B18271  14.390   3.835   7.046 -0.3550 -0.0133  0.0401
 1142loPI   C4B18272  14.445   3.837   7.494 -0.1699  0.0811  0.1019
 1143loPI    C118273   3.486   4.525   4.426  0.0664  0.0099  0.0946
 1143loPI    C218274   3.700   4.369   4.126  0.0240  0.2317 -0.0540
 1143loPI    C318275   3.437   4.142   4.324  0.2030  0.0286 -0.0458
 1143loPI   PO418276   3.685   4.781   4.514 -0.1354 -0.2058 -0.1885
 1143loPI   GL118277   3.756   4.844   4.861  0.0025  0.3438  0.1058
 1143loPI   GL218278   3.676   4.618   5.025  0.0473  0.0144 -0.1494
 1143loPI   C1A18279   3.781   5.057   5.226  0.1665 -0.0485 -0.1562
 1143loPI   C2A18280   3.743   5.046   5.619 -0.1400  0.2098 -0.1211
 1143loPI   C3A18281   3.741   5.018   6.013  0.0659  0.0551 -0.0827
 1143loPI   C4A18282   3.741   4.931   6.382 -0.1250 -0.2773 -0.1648
 1143loPI   C5A18283   3.727   4.974   6.848  0.0188  0.0707 -0.3545
 1143loPI   C6A18284   3.794   5.158   7.310 -0.0641  0.0277 -0.1429
 1143loPI   C1B18285   3.790   4.535   5.440  0.4691 -0.1127  0.0001
 1143loPI   C2B18286   3.689   4.567   5.917 -0.0263 -0.1898 -0.2106
 1143loPI   C3B18287   3.701   4.421   6.449  0.1431 -0.1926  0.1539
 1143loPI   C4B18288   3.664   4.418   6.880 -0.0717  0.5115 -0.0821
 1144loPI    C118289   7.260  11.875   4.863  0.0318  0.4023  0.1260
 1144loPI    C218290   7.315  11.814   5.255  0.1032  0.1146  0.0740
 1144loPI    C318291   6.952  11.768   5.094  0.1067  0.0726  0.0783
 1144loPI   PO418292   7.476  12.085   4.865 -0.1166  0.1135  0.1535
 1144loPI   GL118293   7.554  12.204   5.242  0.1345 -0.0465  0.0130
 1144loPI   GL218294   7.550  12.539   5.397 -0.0798  0.0244 -0.3211
 1144loPI   C1A18295   7.741  12.145   5.597 -0.2479 -0.0689 -0.0630
 1144loPI   C2A18296   7.769  11.963   5.992  0.0854  0.0682  0.0702
 1144loPI   C3A18297   8.000  12.005   6.378  0.0889 -0.2789 -0.0355
 1144loPI   C4A18298   8.036  11.811   6.798  0.1839 -0.0475 -0.1624
 1144loPI   C5A18299   7.833  11.519   7.098  0.0475  0.0068 -0.1218
 1144loPI   C6A18300   7.782  11.192   7.347  0.2332  0.0535 -0.0327
 1144loPI   C1B18301   7.659  12.687   5.877  0.2572 -0.2364 -0.4007
 1144loPI   C2B18302   7.817  12.460   6.197  0.2368 -0.0133  0.3959
 1144loPI   C3B18303   7.874  12.409   6.634  0.4042 -0.1854  0.1460
 1144loPI   C4B18304   7.953  12.410   7.137  0.0569  0.1577 -0.1591
 1145loPI    C118305  15.912   9.986   4.786 -0.0038 -0.2842 -0.2320
 1145loPI    C218306  16.276  10.150   4.758 -0.0666 -0.0836  0.0733
 1145loPI    C318307  16.016  10.187   4.456  0.0661  0.0187 -0.0301
 1145loPI   PO418308  16.023   9.749   4.931  0.0132 -0.0501  0.1549
 1145loPI   GL118309  16.253   9.924   5.269 -0.1613  0.0634  0.0515
 1145loPI   GL218310  16.525   9.894   5.428  0.3029 -0.3358 -0.2326
 1145loPI   C1A18311  16.106   9.769   5.661  0.2525 -0.0308  0.0647
 1145loPI   C2A18312  16.056   9.528   6.123  0.1618 -0.1434 -0.0566
 1145loPI   C3A18313  15.892   9.654   6.525  0.1440  0.5366 -0.1338
 1145loPI   C4A18314  15.885   9.596   7.006  0.0548  0.0747  0.0481
 1145loPI   C5A18315  15.881   9.681   7.441 -0.3915  0.2610  0.1634
 1145loPI   C6A18316  15.783   9.619   7.897  0.1240 -0.1702  0.2354
 1145loPI   C1B18317  16.501   9.912   5.937 -0.0044  0.0872  0.2628
 1145loPI   C2B18318  16.307   9.933   6.331 -0.2227 -0.1321 -0.3358
 1145loPI   C3B18319  16.347   9.954   6.769  0.1757 -0.1199 -0.0301
 1145loPI   C4B18320  16.271   9.939   7.129 -0.0262 -0.0615  0.2821
 1146loPI    C118321   8.960   3.596   4.458 -0.0735  0.0288  0.1631
 1146loPI    C218322   8.786   3.240   4.403  0.1346 -0.1320  0.5079
 1146loPI    C318323   9.171   3.292   4.306  0.0375  0.0764  0.2206
 1146loPI   PO418324   8.849   3.635   4.719  0.0284 -0.0690 -0.1272
 1146loPI   GL118325   8.844   3.456   5.082  0.2533  0.4174  0.1866
 1146loPI   GL218326   8.891   3.192   5.215 -0.0061 -0.1619  0.0914
 1146loPI   C1A18327   8.770   3.735   5.498  0.1988  0.0217 -0.0261
 1146loPI   C2A18328   9.067   3.801   5.901 -0.1059 -0.0117  0.0299
 1146loPI   C3A18329   8.974   3.730   6.304 -0.2245  0.2271 -0.0740
 1146loPI   C4A18330   8.956   3.698   6.771 -0.2240 -0.1677 -0.0234
 1146loPI   C5A18331   9.111   3.586   7.127 -0.0962  0.2858 -0.0564
 1146loPI   C6A18332   9.391   3.312   7.262 -0.0011  0.1873 -0.2132
 1146loPI   C1B18333   8.988   3.317   5.671  0.1014 -0.1042  0.0589
 1146loPI   C2B18334   8.967   3.258   6.117 -0.1272  0.0467  0.0139
 1146loPI   C3B18335   9.035   3.232   6.590 -0.2471 -0.3022 -0.2122
 1146loPI   C4B18336   8.984   3.132   7.042  0.0563 -0.0893  0.1375
 1147loPI    C118337   3.780  16.842   4.408  0.0516  0.2212  0.1953
 1147loPI    C218338   3.624  16.477   4.458 -0.0197  0.2308  0.0472
 1147loPI    C318339   3.996  16.518   4.317 -0.1071  0.2189 -0.1911
 1147loPI   PO418340   3.698  16.940   4.696 -0.2393 -0.1966 -0.2166
 1147loPI   GL118341   3.828  16.934   5.005  0.2460 -0.0678 -0.1780
 1147loPI   GL218342   3.711  16.634   5.235  0.0320  0.1164 -0.0768
 1147loPI   C1A18343   3.848  17.132   5.334  0.0858 -0.1527 -0.2662
 1147loPI   C2A18344   3.515  17.025   5.617 -0.1088  0.1571 -0.0170
 1147loPI   C3A18345   3.536  16.998   5.998  0.0927  0.0159 -0.1045
 1147loPI   C4A18346   3.632  17.031   6.427 -0.1355  0.3965 -0.2568
 1147loPI   C5A18347   3.737  17.008   6.804  0.1386 -0.1437  0.0244
 1147loPI   C6A18348   3.862  16.966   7.268  0.0352 -0.0634 -0.1246
 1147loPI   C1B18349   3.792  16.553   5.680 -0.0037  0.1780  0.3193
 1147loPI   C2B18350   3.735  16.599   6.094 -0.0189  0.2272 -0.1528
 1147loPI   C3B18351   3.768  16.574   6.515 -0.0181 -0.3622  0.0684
 1147loPI   C4B18352   3.898  16.438   6.894 -0.0040  0.1593 -0.1586
 1148loPI    C118353  17.211   1.385   4.989 -0.0774 -0.0768  0.2342
 1148loPI    C218354  17.576   1.222   5.012 -0.0295 -0.0118 -0.0274
 1148loPI    C318355  17.316   1.092   4.738 -0.0788  0.1807 -0.0739
 1148loPI   PO418356  17.065   1.380   5.239  0.0690 -0.1163  0.1180
 1148loPI   GL118357  16.998   1.480   5.566 -0.2459  0.2832  0.0550
 1148loPI   GL218358  16.981   1.185   5.815 -0.0931 -0.0932 -0.0841
 1148loPI   C1A18359  17.075   1.741   5.933  0.0104  0.0394  0.1555
 1148loPI   C2A18360  17.018   1.709   6.370 -0.0304 -0.0033  0.3155
 1148loPI   C3A18361  17.068   1.858   6.837  0.1110 -0.1963  0.2178
 1148loPI   C4A18362  17.223   1.796   7.119 -0.1645 -0.2151  0.1848
 1148loPI   C5A18363  17.271   1.848   7.579  0.0670  0.1176 -0.0679
 1148loPI   C6A18364  17.064   1.939   7.887 -0.1782 -0.0259 -0.0145
 1148loPI   C1B18365  17.179   1.275   6.238  0.1042 -0.0983 -0.1034
 1148loPI   C2B18366  17.122   1.261   6.673 -0.0934  0.1222  0.4216
 1148loPI   C3B18367  17.258   1.241   7.008  0.4724  0.1044  0.3760
 1148loPI   C4B18368  17.419   1.238   7.446 -0.3016 -0.0285  0.0401
 1149loPI    C118369   5.386   7.385   4.986 -0.0106  0.1494 -0.0136
 1149loPI    C218370   5.223   7.296   4.632 -0.1853  0.0472  0.0908
 1149loPI    C318371   5.620   7.275   4.681 -0.1141  0.4931 -0.2236
 1149loPI   PO418372   5.275   7.262   5.178 -0.2810  0.1321  0.2093
 1149loPI   GL118373   5.489   6.968   5.454  0.1764  0.2105  0.2287
 1149loPI   GL218374   5.546   6.672   5.372  0.2992 -0.0182 -0.0525
 1149loPI   C1A18375   5.568   7.003   5.918 -0.1537  0.0128  0.3931
 1149loPI   C2A18376   5.587   7.061   6.382  0.1827  0.2595 -0.0643
 1149loPI   C3A18377   5.498   7.004   6.761  0.2425  0.2207  0.0674
 1149loPI   C4A18378   5.478   6.881   7.224 -0.2195 -0.2299  0.2426
 1149loPI   C5A18379   5.685   6.958   7.643  0.1742  0.0786  0.3435
 1149loPI   C6A18380   5.817   7.131   8.142 -0.1377  0.1068 -0.4858
 1149loPI   C1B18381   5.499   6.565   5.745 -0.3137  0.2954 -0.0785
 1149loPI   C2B18382   5.537   6.511   6.158 -0.2373 -0.0036 -0.0799
 1149loPI   C3B18383   5.584   6.558   6.591 -0.1316  0.0967 -0.3750
 1149loPI   C4B18384   5.681   6.475   6.964 -0.0872  0.1330 -0.2228
 1150loPI    C118385  12.648  10.477   5.262 -0.0806 -0.1226  0.1066
 1150loPI    C218386  12.728  10.187   4.999  0.1785 -0.0959  0.1528
 1150loPI    C318387  12.698  10.566   4.875 -0.2526 -0.1485  0.0774
 1150loPI   PO418388  12.441  10.412   5.405  0.1642  0.0508 -0.0015
 1150loPI   GL118389  12.163  10.466   5.644 -0.2532 -0.0761 -0.0157
 1150loPI   GL218390  12.139  10.141   5.778  0.3861  0.2346  0.0010
 1150loPI   C1A18391  12.170  10.658   6.080 -0.2155  0.2498  0.0661
 1150loPI   C2A18392  12.136  10.566   6.499 -0.0961 -0.0627  0.0299
 1150loPI   C3A18393  12.435  10.229   6.734  0.1654 -0.4113  0.2205
 1150loPI   C4A18394  12.643  10.127   7.111  0.1163 -0.0657  0.0114
 1150loPI   C5A18395  12.684  10.305   7.528  0.2318 -0.0733 -0.0836
 1150loPI   C6A18396  12.411  10.613   7.666 -0.0834  0.1492 -0.1148
 1150loPI   C1B18397  12.430  10.179   6.163  0.0466 -0.1182  0.0187
 1150loPI   C2B18398  12.816  10.021   6.433  0.1659  0.1806  0.0414
 1150loPI   C3B18399  13.001  10.122   6.750 -0.1098 -0.0651 -0.0130
 1150loPI   C4B18400  13.190  10.295   7.152  0.2635 -0.0662  0.1726
 1151loPI    C118401   7.601  17.831   4.794  0.2242 -0.0035 -0.2089
 1151loPI    C218402   7.550  18.211   4.678  0.0753  0.0918  0.1544
 1151loPI    C318403   7.336  17.919   4.508  0.0558  0.1932  0.0036
 1151loPI   PO418404   7.917  17.903   4.853 -0.1279 -0.2381 -0.0727
 1151loPI   GL118405   8.067  17.870   5.347 -0.0351 -0.1581 -0.1163
 1151loPI   GL218406   7.739  17.750   5.348 -0.0674  0.0990 -0.1014
 1151loPI   C1A18407   8.320  17.772   5.673  0.1494 -0.4642  0.1844
 1151loPI   C2A18408   8.259  17.820   6.101 -0.0198 -0.4271  0.1177
 1151loPI   C3A18409   8.333  17.775   6.529  0.0751  0.1592  0.0660
 1151loPI   C4A18410   8.167  17.863   6.938 -0.3531  0.0506 -0.1581
 1151loPI   C5A18411   8.173  17.654   7.359  0.0566  0.1001 -0.0958
 1151loPI   C6A18412   8.191  17.401   7.630  0.0138  0.0504  0.1598
 1151loPI   C1B18413   7.772  17.804   5.871  0.0098 -0.5080  0.2079
 1151loPI   C2B18414   7.776  17.897   6.334  0.1268 -0.1107  0.3937
 1151loPI   C3B18415   7.679  17.928   6.717 -0.0990 -0.1880  0.1272
 1151loPI   C4B18416   7.744  18.025   7.162 -0.0048  0.0054 -0.1491
 1152loPI    C118417  14.523   3.292   5.120  0.0123  0.1812  0.1674
 1152loPI    C218418  14.125   3.310   5.084  0.0182  0.1324  0.0735
 1152loPI    C318419  14.359   3.432   4.783  0.0713 -0.0729  0.0300
 1152loPI   PO418420  14.622   3.194   5.216 -0.0539 -0.1649  0.1022
 1152loPI   GL118421  14.486   3.027   5.555  0.3080  0.0138 -0.1956
 1152loPI   GL218422  14.182   2.868   5.456 -0.3429  0.2220  0.0600
 1152loPI   C1A18423  14.463   2.914   6.014  0.1036  0.0313 -0.2649
 1152loPI   C2A18424  14.466   2.826   6.383  0.3113  0.0939 -0.1562
 1152loPI   C3A18425  14.738   2.727   6.749  0.1532  0.0424 -0.4336
 1152loPI   C4A18426  14.764   2.676   7.148  0.0557  0.1732  0.0741
 1152loPI   C5A18427  14.902   2.640   7.598  0.0339  0.0409 -0.0062
 1152loPI   C6A18428  15.121   2.354   7.794 -0.0337 -0.1941 -0.1001
 1152loPI   C1B18429  14.065   2.686   5.850 -0.0370  0.2005 -0.0133
 1152loPI   C2B18430  13.993   2.648   6.282 -0.1204  0.1120  0.0724
 1152loPI   C3B18431  13.957   2.646   6.808 -0.0937  0.2525  0.4591
 1152loPI   C4B18432  13.848   2.583   7.200 -0.0788  0.0317 -0.0591
 1153loPI    C118433  14.593   1.528   4.985  0.0154 -0.1251 -0.0144
 1153loPI    C218434  14.410   1.692   4.669  0.0440 -0.0907 -0.0132
 1153loPI    C318435  14.568   1.326   4.641  0.2347 -0.0032 -0.1044
 1153loPI   PO418436  14.472   1.517   5.163 -0.0206 -0.3516  0.0237
 1153loPI   GL118437  14.329   1.882   5.445 -0.2817  0.2944 -0.3527
 1153loPI   GL218438  14.099   1.657   5.500  0.1340 -0.1427 -0.0313
 1153loPI   C1A18439  14.410   1.806   5.865 -0.0190  0.0555 -0.2033
 1153loPI   C2A18440  14.458   1.930   6.319 -0.1842  0.1117 -0.0367
 1153loPI   C3A18441  14.394   1.894   6.690 -0.1255  0.0181  0.1755
 1153loPI   C4A18442  14.428   1.812   7.121 -0.0311 -0.0220 -0.1511
 1153loPI   C5A18443  14.436   1.734   7.593 -0.1347 -0.1936 -0.1386
 1153loPI   C6A18444  14.764   1.694   7.962  0.0801 -0.2689 -0.0680
 1153loPI   C1B18445  13.952   1.726   5.969 -0.0586  0.1817  0.1182
 1153loPI   C2B18446  14.095   1.618   6.366  0.0768  0.1789 -0.2495
 1153loPI   C3B18447  13.963   1.574   6.831  0.3552  0.0076  0.0680
 1153loPI   C4B18448  14.010   1.545   7.300 -0.1184 -0.0219  0.3478
 1154loPI    C118449  15.486  11.197   4.946  0.3162  0.1138  0.0880
 1154loPI    C218450  15.643  11.021   4.623 -0.0803  0.1199 -0.1146
 1154loPI    C318451  15.440  10.804   4.891 -0.0448  0.1714 -0.0454
 1154loPI   PO418452  15.630  11.361   5.122 -0.3082 -0.1800  0.1730
 1154loPI   GL118453  15.801  11.404   5.568 -0.2020  0.1847  0.2696
 1154loPI   GL218454  16.008  11.142   5.600 -0.0353 -0.0867  0.0052
 1154loPI   C1A18455  15.748  11.498   5.972  0.2938  0.1168  0.2003
 1154loPI   C2A18456  15.574  11.599   6.406 -0.1754  0.1700 -0.1329
 1154loPI   C3A18457  15.563  11.644   6.941 -0.0236  0.1705  0.1569
 1154loPI   C4A18458  15.432  11.567   7.333 -0.0492 -0.1148 -0.1352
 1154loPI   C5A18459  15.502  11.739   7.771  0.3486  0.1715  0.0506
 1154loPI   C6A18460  15.179  11.712   8.079 -0.0548  0.0205  0.0424
 1154loPI   C1B18461  16.163  11.033   5.990 -0.0188  0.4017  0.0874
 1154loPI   C2B18462  16.165  10.971   6.431  0.1008 -0.0589 -0.5002
 1154loPI   C3B18463  16.135  10.989   6.933 -0.0052 -0.0049  0.0224
 1154loPI   C4B18464  16.118  10.878   7.354 -0.1354 -0.2213 -0.3344
 1155loPI    C118465   1.329   6.718   5.633 -0.2285  0.6067  0.0193
 1155loPI    C218466   1.446   6.603   5.268 -0.3449 -0.1759  0.2107
 1155loPI    C318467   1.705   6.784   5.513 -0.1079 -0.1405 -0.0601
 1155loPI   PO418468   1.093   6.915   5.547 -0.0716  0.2864 -0.0152
 1155loPI   GL118469   0.992   7.144   5.823 -0.0126  0.1293  0.1622
 1155loPI   GL218470   1.038   7.465   5.919 -0.1869 -0.2540 -0.0053
 1155loPI   C1A18471   0.866   7.050   6.180  0.0110  0.0126 -0.0703
 1155loPI   C2A18472   0.795   6.655   6.487  0.0366  0.1719 -0.0267
 1155loPI   C3A18473   0.667   6.441   6.674 -0.0647 -0.0859 -0.5140
 1155loPI   C4A18474   0.656   6.124   7.041 -0.0861 -0.0719  0.1693
 1155loPI   C5A18475   0.812   5.889   7.347 -0.0928  0.0775 -0.0480
 1155loPI   C6A18476   0.590   5.680   7.646 -0.1855  0.0197  0.1315
 1155loPI   C1B18477   1.156   7.463   6.336 -0.1739 -0.0176  0.0106
 1155loPI   C2B18478   1.067   7.069   6.651 -0.0727  0.0668  0.3069
 1155loPI   C3B18479   1.058   6.908   7.023 -0.2447  0.1718 -0.0324
 1155loPI   C4B18480   0.993   6.905   7.482  0.0778  0.0259 -0.1460
 1156loPI    C118481   6.626  17.575   4.564 -0.1458 -0.0664 -0.1832
 1156loPI    C218482   6.543  17.781   4.231 -0.1314  0.0626 -0.1077
 1156loPI    C318483   6.855  17.886   4.459 -0.0011 -0.1696 -0.1762
 1156loPI   PO418484   6.389  17.538   4.714  0.2560  0.1222 -0.1923
 1156loPI   GL118485   6.160  17.671   5.064  0.3449  0.1995  0.0957
 1156loPI   GL218486   6.027  17.742   5.326 -0.1360 -0.0603 -0.0566
 1156loPI   C1A18487   6.473  17.588   5.534  0.2447  0.3155  0.1790
 1156loPI   C2A18488   6.493  17.574   5.884  0.1307  0.1078  0.0430
 1156loPI   C3A18489   6.330  17.548   6.279 -0.0549  0.1620  0.2779
 1156loPI   C4A18490   6.432  17.485   6.692 -0.1032 -0.0789 -0.1535
 1156loPI   C5A18491   6.251  17.558   7.159 -0.0327 -0.0482 -0.2240
 1156loPI   C6A18492   6.481  17.672   7.511  0.3752 -0.2673  0.2292
 1156loPI   C1B18493   6.018  17.641   5.731  0.1221  0.0648  0.1396
 1156loPI   C2B18494   5.892  17.592   6.043 -0.2250 -0.2329 -0.1386
 1156loPI   C3B18495   5.887  17.617   6.423  0.1171 -0.1290  0.0782
 1156loPI   C4B18496   5.833  17.454   6.764  0.0604  0.0231 -0.2018
 1157loPI    C118497   0.866   5.496   5.282  0.1021 -0.0819 -0.0194
 1157loPI    C218498   0.968   5.464   4.897  0.0022  0.0475 -0.0572
 1157loPI    C318499   0.637   5.664   5.000 -0.0725 -0.1456  0.0827
 1157loPI   PO418500   1.166   5.470   5.419 -0.0321 -0.2898 -0.0284
 1157loPI   GL118501   1.479   5.533   5.743  0.0986  0.0800 -0.3834
 1157loPI   GL218502   1.570   5.886   5.743  0.0049  0.0423 -0.2973
 1157loPI   C1A18503   1.565   5.566   6.167  0.1385 -0.1756 -0.0169
 1157loPI   C2A18504   1.554   5.591   6.590 -0.1142  0.0760  0.0639
 1157loPI   C3A18505   1.537   5.572   7.000 -0.2074  0.1774  0.1628
 1157loPI   C4A18506   1.562   5.401   7.351 -0.1013  0.1130  0.0158
 1157loPI   C5A18507   1.466   5.040   7.641 -0.0785 -0.1036  0.1855
 1157loPI   C6A18508   1.370   4.653   7.931 -0.0173 -0.1170 -0.0466
 1157loPI   C1B18509   1.522   6.081   6.143 -0.0599  0.1934  0.0122
 1157loPI   C2B18510   1.554   6.084   6.568 -0.0374 -0.4114  0.0936
 1157loPI   C3B18511   1.532   6.103   7.000 -0.2306  0.2316 -0.1806
 1157loPI   C4B18512   1.252   6.015   7.331 -0.5631 -0.2131  0.1167
 1158loPI    C118513   5.983  13.668   4.991 -0.0514 -0.1895 -0.0879
 1158loPI    C218514   5.751  13.940   4.812  0.0631 -0.0008  0.0463
 1158loPI    C318515   5.726  13.555   4.707 -0.0897  0.0628 -0.1557
 1158loPI   PO418516   6.123  13.907   5.258 -0.0375 -0.1855 -0.0728
 1158loPI   GL118517   6.131  13.992   5.665 -0.2934  0.3357 -0.3126
 1158loPI   GL218518   6.000  14.295   5.655  0.2148  0.1311  0.0159
 1158loPI   C1A18519   5.761  13.800   5.891 -0.0708  0.1380  0.2818
 1158loPI   C2A18520   5.855  13.469   6.187 -0.5472  0.0314 -0.1643
 1158loPI   C3A18521   5.809  13.386   6.647 -0.1027 -0.0663 -0.0904
 1158loPI   C4A18522   5.747  13.656   6.965  0.0613 -0.1802 -0.1764
 1158loPI   C5A18523   5.597  13.961   7.290  0.0446  0.3159 -0.0039
 1158loPI   C6A18524   5.175  14.109   7.514 -0.1294 -0.1311  0.1949
 1158loPI   C1B18525   5.923  14.769   5.825  0.0533 -0.0137  0.0671
 1158loPI   C2B18526   5.703  14.903   6.177  0.1820  0.0952  0.0025
 1158loPI   C3B18527   5.621  15.109   6.556 -0.3009  0.1284  0.1588
 1158loPI   C4B18528   5.523  15.310   6.962 -0.1682  0.2178  0.0315
 1159loPI    C118529   9.454   6.126   4.974  0.1022 -0.0353  0.0280
 1159loPI    C218530   9.266   6.060   4.627  0.0151 -0.0053  0.0694
 1159loPI    C318531   9.635   6.214   4.628 -0.0116  0.0594 -0.0080
 1159loPI   PO418532   9.215   6.272   5.104  0.1741  0.2650  0.1676
 1159loPI   GL118533   9.036   6.298   5.565  0.4471 -0.1421  0.5224
 1159loPI   GL218534   9.308   6.024   5.520 -0.1080 -0.4613 -0.0710
 1159loPI   C1A18535   9.102   6.367   6.010 -0.0110 -0.1225  0.3857
 1159loPI   C2A18536   9.122   6.313   6.379  0.1070  0.0204 -0.2696
 1159loPI   C3A18537   9.110   6.202   6.780  0.0034  0.1354 -0.0522
 1159loPI   C4A18538   9.021   6.249   7.245  0.0113  0.0479 -0.2363
 1159loPI   C5A18539   8.968   6.592   7.533 -0.0646 -0.1581  0.0750
 1159loPI   C6A18540   9.296   6.876   7.777  0.0838 -0.1902  0.0074
 1159loPI   C1B18541   9.456   6.067   5.860  0.1698 -0.1032  0.0365
 1159loPI   C2B18542   9.531   5.680   6.218 -0.2736 -0.0754 -0.0686
 1159loPI   C3B18543   9.501   5.482   6.690  0.1280 -0.1226  0.2890
 1159loPI   C4B18544   9.564   5.378   7.121  0.2088  0.1207  0.2943
 1160loPI    C118545   7.193   8.406   5.314  0.0519  0.3374  0.0070
 1160loPI    C218546   6.840   8.234   5.239  0.1839 -0.0052  0.1483
 1160loPI    C318547   7.012   8.468   4.963 -0.0803  0.0417  0.0202
 1160loPI   PO418548   7.124   8.501   5.566  0.5485  0.0367  0.0470
 1160loPI   GL118549   7.101   8.566   5.955  0.0096  0.0325  0.0117
 1160loPI   GL218550   7.039   8.895   6.142 -0.3126  0.2110  0.0122
 1160loPI   C1A18551   7.079   8.105   6.200  0.1242  0.1665  0.2056
 1160loPI   C2A18552   6.985   7.869   6.488  0.3776  0.1646  0.3185
 1160loPI   C3A18553   6.985   7.864   6.998  0.0435  0.0240 -0.1924
 1160loPI   C4A18554   6.862   8.177   7.200 -0.1915  0.2269  0.0960
 1160loPI   C5A18555   7.039   8.478   7.194 -0.0661  0.2921 -0.0124
 1160loPI   C6A18556   7.316   8.712   7.162 -0.0599 -0.0774 -0.0710
 1160loPI   C1B18557   7.220   8.647   6.462 -0.3137  0.2032 -0.0913
 1160loPI   C2B18558   7.256   8.231   6.701  0.0544  0.1307 -0.2778
 1160loPI   C3B18559   7.433   7.827   6.778 -0.0295 -0.1726  0.0297
 1160loPI   C4B18560   7.578   7.398   7.019 -0.1897 -0.0125  0.0792
 1161loPI    C118561   7.741   8.950   5.472 -0.1149  0.1456 -0.0728
 1161loPI    C218562   7.667   9.337   5.407 -0.1764  0.1145 -0.1920
 1161loPI    C318563   7.756   9.096   5.101 -0.0806  0.0458 -0.1112
 1161loPI   PO418564   7.979   8.926   5.649 -0.1951 -0.0644  0.1913
 1161loPI   GL118565   8.127   8.698   6.041 -0.0477  0.0257 -0.0017
 1161loPI   GL218566   8.212   8.447   6.331 -0.0017  0.0782 -0.0831
 1161loPI   C1A18567   7.813   8.804   6.374 -0.2445 -0.1013  0.0701
 1161loPI   C2A18568   7.659   8.644   6.678 -0.0922  0.0566 -0.1007
 1161loPI   C3A18569   7.641   8.396   6.961 -0.4163 -0.0999  0.1819
 1161loPI   C4A18570   7.387   8.084   7.238  0.3037  0.3654  0.3836
 1161loPI   C5A18571   7.163   7.939   7.637  0.1955 -0.2040  0.2053
 1161loPI   C6A18572   6.911   7.830   7.954 -0.1433 -0.1887  0.1289
 1161loPI   C1B18573   8.606   8.555   6.532  0.0125 -0.2574 -0.2147
 1161loPI   C2B18574   8.664   8.809   6.841  0.2912  0.1095 -0.2500
 1161loPI   C3B18575   8.765   8.955   7.221  0.1475  0.1871  0.0082
 1161loPI   C4B18576   8.649   9.253   7.445 -0.0284  0.1453  0.2224
 1162loPI    C118577  17.216   9.144   4.933 -0.0399 -0.0319 -0.0876
 1162loPI    C218578  16.929   9.422   4.939  0.1019  0.1134  0.3419
 1162loPI    C318579  17.288   9.509   4.786 -0.1012 -0.0975 -0.2829
 1162loPI   PO418580  17.177   9.005   5.141 -0.2112  0.2205 -0.1662
 1162loPI   GL118581  17.117   9.014   5.525 -0.1156 -0.0783 -0.0262
 1162loPI   GL218582  16.817   8.982   5.715 -0.0347  0.1192  0.2337
 1162loPI   C1A18583  17.119   9.286   5.952 -0.0813 -0.0364 -0.4235
 1162loPI   C2A18584  17.075   9.376   6.375 -0.0401  0.0874 -0.1334
 1162loPI   C3A18585  16.980   9.260   6.829  0.4327  0.4703  0.0404
 1162loPI   C4A18586  16.891   9.439   7.273  0.2784  0.3877  0.1347
 1162loPI   C5A18587  16.816   9.379   7.717  0.0138  0.1527  0.1798
 1162loPI   C6A18588  16.692   9.365   8.100  0.3821  0.0329  0.0448
 1162loPI   C1B18589  16.720   8.971   6.117  0.0033  0.0500 -0.1656
 1162loPI   C2B18590  16.641   9.062   6.484 -0.0711  0.1432  0.0068
 1162loPI   C3B18591  16.459   8.953   6.900 -0.2059 -0.0475 -0.1311
 1162loPI   C4B18592  16.584   9.021   7.309 -0.2802 -0.1532 -0.0592
 1163loPI    C118593   9.970  16.351   4.589 -0.1251 -0.2902  0.0300
 1163loPI    C218594  10.340  16.301   4.445 -0.0812 -0.0761  0.0659
 1163loPI    C318595  10.037  16.379   4.195 -0.0588 -0.0086  0.0593
 1163loPI   PO418596  10.081  16.520   4.819  0.2920  0.3128 -0.0725
 1163loPI   GL118597  10.027  16.447   5.292  0.0225  0.0257  0.3912
 1163loPI   GL218598  10.057  16.240   5.446 -0.1180  0.1493 -0.1364
 1163loPI   C1A18599  10.191  16.683   5.644 -0.3206  0.0365  0.0599
 1163loPI   C2A18600  10.223  16.655   6.056  0.1584  0.0241 -0.0158
 1163loPI   C3A18601  10.220  16.833   6.509  0.2422  0.0404  0.3796
 1163loPI   C4A18602  10.120  16.857   7.009 -0.2070 -0.1776  0.2893
 1163loPI   C5A18603  10.093  16.695   7.411 -0.1130 -0.2456  0.1547
 1163loPI   C6A18604   9.806  16.884   7.691  0.0758  0.1404  0.2727
 1163loPI   C1B18605  10.029  16.209   5.907 -0.2280 -0.0584  0.2226
 1163loPI   C2B18606   9.899  16.233   6.228  0.1696  0.0567  0.0580
 1163loPI   C3B18607   9.906  16.381   6.665 -0.2340  0.2431  0.1163
 1163loPI   C4B18608   9.885  16.415   7.042  0.4276  0.4051  0.0892
 1164loPI    C118609  17.909   6.453   5.432 -0.3349  0.2039  0.2341
 1164loPI    C218610  18.236   6.388   5.653 -0.2251 -0.1275 -0.0156
 1164loPI    C318611  17.908   6.168   5.713 -0.2540 -0.0972 -0.0629
 1164loPI   PO418612  17.912   6.724   5.494 -0.1981 -0.0151 -0.1211
 1164loPI   GL118613  18.067   6.846   5.768  0.3902 -0.2736 -0.1683
 1164loPI   GL218614  17.913   6.644   5.989  0.4329 -0.1333  0.0983
 1164loPI   C1A18615  18.448   7.054   6.001  0.2538  0.4293 -0.0602
 1164loPI   C2A18616  18.588   7.047   6.344  0.0809 -0.1648  0.2350
 1164loPI   C3A18617  18.775   7.003   6.788  0.5121 -0.1315  0.1936
 1164loPI   C4A18618  18.906   7.213   7.173 -0.0939  0.0660  0.3780
 1164loPI   C5A18619  19.212   7.194   7.604 -0.4024 -0.1465  0.3112
 1164loPI   C6A18620  19.533   7.454   7.821  0.0325  0.1992 -0.3802
 1164loPI   C1B18621  18.187   6.688   6.360 -0.1873  0.0407  0.0428
 1164loPI   C2B18622  18.225   6.948   6.725  0.1721 -0.0308  0.0462
 1164loPI   C3B18623  18.034   7.022   7.094 -0.1695  0.2359  0.1061
 1164loPI   C4B18624  18.024   7.144   7.544  0.0769  0.0731 -0.0754
 1165loPI    C118625  17.171   8.261   5.706 -0.0359 -0.0673 -0.1975
 1165loPI    C218626  16.911   8.464   5.480  0.1804  0.2328 -0.1829
 1165loPI    C318627  17.174   8.216   5.309 -0.1872 -0.1655 -0.1884
 1165loPI   PO418628  17.242   8.461   5.848 -0.1155  0.1316 -0.0148
 1165loPI   GL118629  17.140   8.749   6.139 -0.0120 -0.0939 -0.1899
 1165loPI   GL218630  17.204   8.393   6.325 -0.1674  0.0601  0.1045
 1165loPI   C1A18631  17.103   8.822   6.569  0.0757 -0.1379 -0.0945
 1165loPI   C2A18632  16.882   8.724   6.831 -0.1004  0.0589  0.0095
 1165loPI   C3A18633  16.822   8.568   7.296  0.1889  0.0104  0.1613
 1165loPI   C4A18634  16.396   8.529   7.654  0.0009  0.1924  0.3064
 1165loPI   C5A18635  16.128   8.627   7.975  0.1102 -0.2284  0.0882
 1165loPI   C6A18636  15.780   8.538   8.020  0.3490 -0.0555 -0.1124
 1165loPI   C1B18637  17.158   8.324   6.803  0.0833 -0.2445  0.1992
 1165loPI   C2B18638  17.044   8.112   7.239 -0.3203 -0.1053  0.1056
 1165loPI   C3B18639  16.810   8.149   7.582 -0.2623 -0.0558  0.0846
 1165loPI   C4B18640  16.484   8.108   7.922  0.0289 -0.1523  0.2303
 1166loPI    C118641   8.798  14.394   4.595  0.1664 -0.0983  0.0990
 1166loPI    C218642   8.962  14.504   4.247 -0.1222  0.0068 -0.0074
 1166loPI    C318643   8.603  14.328   4.252 -0.1493  0.0652  0.2429
 1166loPI   PO418644   8.969  14.321   4.732 -0.0809 -0.1060  0.1910
 1166loPI   GL118645   9.122  14.434   5.105  0.1380 -0.0021 -0.1413
 1166loPI   GL218646   8.974  14.111   5.176 -0.2144  0.1699 -0.0698
 1166loPI   C1A18647   9.213  14.493   5.546  0.1637  0.2330 -0.0336
 1166loPI   C2A18648   9.261  14.461   5.952 -0.0170  0.1943  0.0961
 1166loPI   C3A18649   9.301  14.536   6.414 -0.2696 -0.0031  0.2563
 1166loPI   C4A18650   9.219  14.559   6.768  0.3577  0.0587  0.1128
 1166loPI   C5A18651   9.320  14.831   6.946  0.0906 -0.1584  0.1383
 1166loPI   C6A18652   9.337  15.211   7.225  0.0299 -0.2070  0.1754
 1166loPI   C1B18653   9.002  14.032   5.687 -0.0868 -0.1256  0.0613
 1166loPI   C2B18654   8.981  14.022   6.117 -0.3216  0.0750 -0.1087
 1166loPI   C3B18655   8.999  14.096   6.485 -0.4439 -0.1391 -0.1354
 1166loPI   C4B18656   8.932  14.178   6.897  0.3677 -0.0594 -0.1672
 1167loPI    C118657   9.337   1.176   4.815  0.2246 -0.0047  0.0665
 1167loPI    C218658   9.067   1.403   4.627  0.1608  0.1331  0.3204
 1167loPI    C318659   9.395   1.282   4.433 -0.2641 -0.3672 -0.1205
 1167loPI   PO418660   9.435   1.314   5.049  0.3885  0.1289 -0.0759
 1167loPI   GL118661   9.261   1.399   5.436 -0.0063 -0.1300  0.3597
 1167loPI   GL218662   9.491   1.297   5.550  0.0066 -0.0813  0.0976
 1167loPI   C1A18663   9.081   1.377   5.849 -0.0234  0.1128  0.1040
 1167loPI   C2A18664   9.195   1.606   6.170  0.1005 -0.1154  0.0138
 1167loPI   C3A18665   9.103   1.604   6.638  0.0865 -0.0631 -0.1373
 1167loPI   C4A18666   8.967   1.590   7.077  0.0312 -0.1053  0.0571
 1167loPI   C5A18667   8.598   1.812   7.260 -0.1546 -0.0069  0.0675
 1167loPI   C6A18668   8.159   1.758   7.349  0.0762 -0.0657  0.1314
 1167loPI   C1B18669   9.620   1.359   5.954 -0.5988  0.2112  0.3505
 1167loPI   C2B18670   9.961   1.248   6.297 -0.1909  0.0555 -0.4433
 1167loPI   C3B18671   9.893   1.174   6.737 -0.1758 -0.0438  0.1762
 1167loPI   C4B18672   9.938   1.194   7.221  0.0036  0.0552  0.0323
 1168loPI    C118673   0.856   7.738   5.236 -0.0691  0.0773  0.1920
 1168loPI    C218674   0.678   7.937   4.938  0.1373 -0.1208 -0.0693
 1168loPI    C318675   1.077   7.932   4.965  0.1225 -0.1796  0.1603
 1168loPI   PO418676   0.732   7.814   5.446  0.3628  0.0589  0.4333
 1168loPI   GL118677   0.900   7.957   5.792 -0.1637 -0.2191  0.1598
 1168loPI   GL218678   0.835   7.934   6.111  0.1313  0.2497 -0.0621
 1168loPI   C1A18679   1.135   8.363   5.957 -0.0209 -0.0939  0.0312
 1168loPI   C2A18680   1.100   8.562   6.309  0.0783 -0.0693 -0.2217
 1168loPI   C3A18681   1.127   8.747   6.709  0.0856  0.0003  0.4033
 1168loPI   C4A18682   1.069   8.790   7.093  0.0629 -0.1939  0.0002
 1168loPI   C5A18683   0.985   8.781   7.432  0.1715  0.1856 -0.1161
 1168loPI   C6A18684   1.202   8.474   7.707  0.1147  0.0641  0.0476
 1168loPI   C1B18685   0.776   7.965   6.530  0.0613 -0.3197 -0.1849
 1168loPI   C2B18686   0.802   7.969   6.964  0.1106  0.0338  0.1240
 1168loPI   C3B18687   0.728   7.836   7.461  0.0480  0.0155  0.4006
 1168loPI   C4B18688   1.071   7.905   7.664  0.0045  0.0429  0.1052
 1169loPI    C118689   0.327   7.067   5.333 -0.0141  0.0303  0.1713
 1169loPI    C218690   0.567   6.852   5.570  0.0237  0.0678  0.1671
 1169loPI    C318691   0.640   6.874   5.177 -0.1843 -0.2013  0.1108
 1169loPI   PO418692   0.292   7.269   5.471 -0.2962  0.0438 -0.0951
 1169loPI   GL118693   0.428   7.350   5.830 -0.3355 -0.3920  0.2772
 1169loPI   GL218694   0.441   7.773   5.852 -0.1174 -0.4618 -0.0794
 1169loPI   C1A18695   0.583   7.450   6.166 -0.1544  0.0948 -0.4201
 1169loPI   C2A18696   0.731   7.436   6.637 -0.0163 -0.1740 -0.0260
 1169loPI   C3A18697   1.076   7.544   6.834  0.3016  0.0595  0.0667
 1169loPI   C4A18698   1.225   7.792   7.182  0.2501 -0.0936 -0.1550
 1169loPI   C5A18699   1.527   7.754   7.453 -0.0741 -0.0128  0.1497
 1169loPI   C6A18700   1.776   7.387   7.699  0.1347 -0.0151 -0.1172
 1169loPI   C1B18701   0.353   7.918   6.328  0.0443  0.0665  0.2504
 1169loPI   C2B18702   0.230   8.123   6.772  0.0642  0.0609 -0.3366
 1169loPI   C3B18703   0.254   8.111   7.127 -0.2253 -0.2419  0.0139
 1169loPI   C4B18704   0.145   8.162   7.590  0.0458  0.0376  0.0469
 1170loPI    C118705   1.364  13.814   5.098 -0.1300  0.0838  0.0519
 1170loPI    C218706   1.266  13.855   4.712  0.4853 -0.0071 -0.1247
 1170loPI    C318707   1.177  13.517   4.906  0.0943  0.0736 -0.1556
 1170loPI   PO418708   1.645  13.955   5.080  0.2803  0.0850 -0.2502
 1170loPI   GL118709   1.895  13.848   5.450 -0.1218  0.2433 -0.0796
 1170loPI   GL218710   2.226  13.678   5.452 -0.1138 -0.1817 -0.1950
 1170loPI   C1A18711   2.117  13.915   5.864  0.1115 -0.3940  0.1269
 1170loPI   C2A18712   2.373  14.033   6.196 -0.1919 -0.0138 -0.1224
 1170loPI   C3A18713   2.446  14.073   6.649  0.0654  0.3657 -0.1728
 1170loPI   C4A18714   2.534  14.147   7.044  0.0689 -0.1719  0.0042
 1170loPI   C5A18715   2.809  14.012   7.381 -0.1829 -0.0189  0.3997
 1170loPI   C6A18716   3.038  14.086   7.740  0.0471  0.1558  0.0059
 1170loPI   C1B18717   2.338  13.472   5.859 -0.1323  0.1016  0.1846
 1170loPI   C2B18718   2.481  13.519   6.253 -0.0655 -0.0886  0.2067
 1170loPI   C3B18719   2.467  13.582   6.702 -0.1735  0.0226  0.0268
 1170loPI   C4B18720   2.648  13.606   7.131 -0.0571 -0.4150 -0.1660
 1171loPI    C118721  10.277  14.788   4.667  0.1154 -0.1495 -0.1146
 1171loPI    C218722   9.991  14.926   4.423  0.1588 -0.1148 -0.1461
 1171loPI    C318723  10.365  15.065   4.392  0.0863  0.1709  0.1915
 1171loPI   PO418724  10.180  14.744   4.919  0.1993  0.1295  0.0654
 1171loPI   GL118725   9.863  14.677   5.200 -0.0379  0.2195  0.2934
 1171loPI   GL218726   9.775  14.458   5.153  0.1101  0.0378 -0.1625
 1171loPI   C1A18727   9.984  14.800   5.679  0.1141  0.2945 -0.2131
 1171loPI   C2A18728  10.094  14.858   6.062  0.0543 -0.1692  0.2479
 1171loPI   C3A18729  10.131  15.001   6.424  0.3755 -0.0454 -0.1844
 1171loPI   C4A18730  10.133  15.028   6.868  0.0144  0.2896  0.0913
 1171loPI   C5A18731  10.111  14.859   7.147  0.0018 -0.6208 -0.1635
 1171loPI   C6A18732  10.215  14.485   7.335  0.1948  0.0152 -0.1414
 1171loPI   C1B18733   9.708  14.369   5.572 -0.3912  0.0579  0.1162
 1171loPI   C2B18734   9.748  14.512   5.988  0.0502  0.2075 -0.3264
 1171loPI   C3B18735   9.796  14.604   6.478 -0.0347 -0.1676  0.1635
 1171loPI   C4B18736   9.762  14.496   6.993 -0.0741  0.4399  0.2200
 1172loPI    C118737  14.507   6.752   5.057 -0.0758  0.0348  0.0648
 1172loPI    C218738  14.208   6.860   4.813  0.1286  0.1633 -0.1328
 1172loPI    C318739  14.581   6.828   4.671  0.2210  0.0647  0.1251
 1172loPI   PO418740  14.460   6.872   5.280  0.0852 -0.3640 -0.0467
 1172loPI   GL118741  14.435   6.679   5.770 -0.0957 -0.1749 -0.1765
 1172loPI   GL218742  14.096   6.650   5.898  0.3067 -0.0656  0.0634
 1172loPI   C1A18743  14.437   6.476   6.184  0.0183 -0.0273  0.0534
 1172loPI   C2A18744  14.449   6.503   6.476  0.1836  0.1333 -0.0602
 1172loPI   C3A18745  14.429   6.411   6.847  0.2586  0.1233 -0.0712
 1172loPI   C4A18746  14.341   6.567   7.281  0.0734 -0.1656  0.0202
 1172loPI   C5A18747  14.409   6.493   7.701 -0.6041  0.2255 -0.2691
 1172loPI   C6A18748  14.703   6.576   7.969 -0.2135  0.1471  0.5479
 1172loPI   C1B18749  13.953   6.716   6.290  0.2079 -0.3025 -0.0350
 1172loPI   C2B18750  14.017   6.744   6.707  0.0830  0.0028 -0.2841
 1172loPI   C3B18751  13.881   6.672   7.113  0.1661  0.1559 -0.1151
 1172loPI   C4B18752  13.870   6.662   7.550 -0.1931 -0.3312 -0.1178
 1173loPI    C118753   3.333   2.251   4.583 -0.1078  0.2755 -0.0620
 1173loPI    C218754   3.239   2.626   4.684  0.2138  0.3740 -0.1200
 1173loPI    C318755   3.396   2.549   4.324 -0.0158  0.1577 -0.1764
 1173loPI   PO418756   3.161   2.039   4.737 -0.1380 -0.1902  0.0856
 1173loPI   GL118757   3.113   1.900   5.254 -0.3332  0.1263  0.2345
 1173loPI   GL218758   3.423   1.922   5.386 -0.0563 -0.0515 -0.2532
 1173loPI   C1A18759   3.144   2.072   5.783  0.1536  0.1412 -0.4145
 1173loPI   C2A18760   3.149   2.073   6.156  0.2201 -0.0607 -0.0038
 1173loPI   C3A18761   3.104   2.072   6.592  0.1787 -0.1883 -0.2170
 1173loPI   C4A18762   3.213   2.151   7.084  0.0525  0.1837 -0.0548
 1173loPI   C5A18763   3.188   2.278   7.499 -0.0879 -0.1252  0.0184
 1173loPI   C6A18764   3.567   2.241   7.696  0.1974 -0.2376 -0.0258
 1173loPI   C1B18765   3.683   1.926   5.660  0.3506 -0.3360  0.0416
 1173loPI   C2B18766   3.694   1.921   6.100 -0.1160  0.5218 -0.2072
 1173loPI   C3B18767   3.878   1.850   6.491  0.0829 -0.0348 -0.1058
 1173loPI   C4B18768   3.986   1.467   6.760 -0.2066 -0.3257  0.0515
 1174loPI    C118769  10.226   9.539   5.421  0.2147  0.2917 -0.1737
 1174loPI    C218770  10.214   9.457   5.030 -0.0479 -0.2634 -0.0600
 1174loPI    C318771   9.898   9.626   5.209  0.0535 -0.0545 -0.0752
 1174loPI   PO418772  10.327   9.275   5.518  0.2466  0.2484  0.0376
 1174loPI   GL118773  10.148   9.088   5.937  0.0136 -0.0664  0.0884
 1174loPI   GL218774  10.139   9.466   5.960 -0.1350 -0.0870  0.0895
 1174loPI   C1A18775  10.376   9.175   6.354 -0.0634 -0.0571  0.3451
 1174loPI   C2A18776  10.335   9.274   6.821 -0.0552 -0.1289 -0.0153
 1174loPI   C3A18777  10.377   8.995   7.143 -0.2296  0.2515  0.0002
 1174loPI   C4A18778  10.432   8.837   7.531  0.0011  0.1068 -0.1993
 1174loPI   C5A18779  10.600   8.915   7.909 -0.2765  0.0031  0.1096
 1174loPI   C6A18780  10.891   8.863   8.166 -0.0369 -0.0525  0.2334
 1174loPI   C1B18781  10.042   9.511   6.438 -0.0193 -0.1598 -0.3372
 1174loPI   C2B18782   9.855   9.815   6.722  0.0513  0.1853  0.1025
 1174loPI   C3B18783   9.924  10.060   7.012 -0.1328 -0.3529 -0.0881
 1174loPI   C4B18784   9.727  10.250   7.440 -0.0384  0.0387  0.1159
 1175loPI    C118785   1.570   7.882   5.244  0.1284 -0.1579 -0.0892
 1175loPI    C218786   1.618   7.928   5.639 -0.1684  0.2558 -0.0950
 1175loPI    C318787   1.283   7.764   5.496 -0.1249  0.2417 -0.1816
 1175loPI   PO418788   1.563   8.092   5.134 -0.3350  0.0721 -0.5415
 1175loPI   GL118789   1.767   8.440   5.417 -0.2029  0.0842  0.0809
 1175loPI   GL218790   1.810   8.685   5.311 -0.0484 -0.1422 -0.0824
 1175loPI   C1A18791   1.705   8.311   5.904 -0.1819  0.1014 -0.1166
 1175loPI   C2A18792   1.835   8.271   6.316 -0.0439 -0.2284 -0.0232
 1175loPI   C3A18793   1.773   8.247   6.718 -0.1179  0.2399 -0.1203
 1175loPI   C4A18794   1.631   8.170   7.181  0.2612 -0.0953 -0.0200
 1175loPI   C5A18795   1.608   8.210   7.599  0.0851  0.0230  0.3637
 1175loPI   C6A18796   1.404   8.072   7.965 -0.2463  0.0166 -0.0943
 1175loPI   C1B18797   1.884   8.832   5.679  0.0938 -0.0104 -0.0663
 1175loPI   C2B18798   1.962   8.735   6.142 -0.1211 -0.3437 -0.0183
 1175loPI   C3B18799   1.990   8.902   6.614  0.0325  0.1701  0.2018
 1175loPI   C4B18800   1.968   9.021   7.053  0.3138  0.0037 -0.0301
 1176loPI    C118801  14.326  11.671   5.312  0.0891 -0.1207  0.1367
 1176loPI    C218802  14.346  11.301   5.163 -0.0499 -0.0063 -0.1740
 1176loPI    C318803  14.390  11.616   4.921  0.0945  0.1819  0.0926
 1176loPI   PO418804  14.537  11.760   5.568 -0.1281 -0.0521 -0.1843
 1176loPI   GL118805  14.609  11.895   6.002 -0.0026  0.0444 -0.1175
 1176loPI   GL218806  14.782  11.499   5.979 -0.0614  0.0994  0.0640
 1176loPI   C1A18807  14.656  12.065   6.448  0.0569  0.3238  0.0375
 1176loPI   C2A18808  14.587  12.026   6.914  0.3504 -0.2857 -0.0421
 1176loPI   C3A18809  14.264  11.887   7.262 -0.1466  0.1063  0.2666
 1176loPI   C4A18810  14.119  11.539   7.613 -0.4071 -0.3450 -0.1634
 1176loPI   C5A18811  13.790  11.289   7.963 -0.0756  0.0192 -0.4796
 1176loPI   C6A18812  13.829  11.124   8.381  0.3937 -0.2789 -0.1009
 1176loPI   C1B18813  14.784  11.526   6.507  0.0729  0.0064 -0.2844
 1176loPI   C2B18814  14.648  11.477   6.908  0.3201  0.0677  0.1039
 1176loPI   C3B18815  14.551  11.505   7.289 -0.0320 -0.0799 -0.0574
 1176loPI   C4B18816  14.593  11.425   7.678 -0.0576  0.5354  0.0985
 1177loPI    C118817  17.653   0.743   4.926 -0.0981  0.0326 -0.0437
 1177loPI    C218818  17.985   0.520   4.903  0.0398  0.2239  0.0663
 1177loPI    C318819  17.722   0.520   4.601  0.0154 -0.1208  0.0839
 1177loPI   PO418820  17.620   0.697   5.155  0.1501  0.1462  0.1775
 1177loPI   GL118821  17.715   0.915   5.442  0.0089 -0.0069  0.1476
 1177loPI   GL218822  17.430   1.146   5.508  0.0488  0.2075 -0.0582
 1177loPI   C1A18823  17.867   0.847   5.785  0.0738  0.2030  0.1849
 1177loPI   C2A18824  18.080   0.910   6.267  0.1089 -0.1038 -0.2242
 1177loPI   C3A18825  18.206   0.874   6.682  0.0986  0.0637  0.1706
 1177loPI   C4A18826  18.331   0.921   7.102 -0.2515  0.0728  0.1864
 1177loPI   C5A18827  18.238   1.153   7.445 -0.2175  0.2782 -0.1895
 1177loPI   C6A18828  18.136   1.495   7.795 -0.0854  0.3774  0.0712
 1177loPI   C1B18829  17.486   1.114   5.914  0.0699 -0.1211 -0.2107
 1177loPI   C2B18830  17.639   1.174   6.356  0.0024 -0.0381 -0.2745
 1177loPI   C3B18831  17.763   1.060   6.767  0.1321 -0.0733  0.1463
 1177loPI   C4B18832  17.789   0.994   7.152  0.1249  0.1369 -0.1773
 1178loPI    C118833   1.939  18.052   4.691  0.1727  0.0051 -0.0350
 1178loPI    C218834   1.667  18.324   4.581  0.0020 -0.2574 -0.2775
 1178loPI    C318835   2.029  18.323   4.411  0.1635  0.0956  0.0492
 1178loPI   PO418836   2.002  18.093   4.951  0.1287  0.3400 -0.1774
 1178loPI   GL118837   2.397  18.083   5.165 -0.2630 -0.3473 -0.0122
 1178loPI   GL218838   2.131  17.928   5.442 -0.2066 -0.1212 -0.5723
 1178loPI   C1A18839   2.537  18.275   5.534  0.4022 -0.2275  0.0916
 1178loPI   C2A18840   2.386  18.193   5.979 -0.1293  0.0595  0.0317
 1178loPI   C3A18841   2.435  18.206   6.385 -0.1032 -0.1774 -0.1873
 1178loPI   C4A18842   2.471  18.172   6.791  0.0042  0.0289 -0.2197
 1178loPI   C5A18843   2.473  18.232   7.193 -0.1171 -0.1080 -0.0368
 1178loPI   C6A18844   2.566  18.033   7.598  0.3464 -0.0455  0.0263
 1178loPI   C1B18845   1.990  17.861   5.828  0.1852  0.3351 -0.0302
 1178loPI   C2B18846   2.062  17.858   6.340 -0.0736 -0.0819 -0.3833
 1178loPI   C3B18847   2.112  17.845   6.793  0.0640 -0.0830 -0.0524
 1178loPI   C4B18848   2.017  17.799   7.257 -0.0536  0.1446  0.2937
 1179loPI    C118849  11.099   9.706   5.120 -0.2064 -0.0064  0.0356
 1179loPI    C218850  11.152   9.330   5.244  0.3141  0.0775  0.0877
 1179loPI    C318851  11.231   9.428   4.865 -0.3242  0.0320 -0.0687
 1179loPI   PO418852  11.242   9.852   5.308 -0.0399 -0.1171  0.1551
 1179loPI   GL118853  11.131   9.966   5.714 -0.1602  0.1298  0.2371
 1179loPI   GL218854  11.356  10.126   5.856 -0.6813  0.0424 -0.2522
 1179loPI   C1A18855  10.974   9.908   6.153 -0.1320  0.1290 -0.0652
 1179loPI   C2A18856  11.001   9.855   6.581  0.2763 -0.1659 -0.0222
 1179loPI   C3A18857  11.243   9.691   6.923  0.0995 -0.1990  0.0920
 1179loPI   C4A18858  11.474   9.557   7.167 -0.2070  0.0933 -0.1538
 1179loPI   C5A18859  11.508   9.586   7.669  0.2084 -0.2014 -0.3204
 1179loPI   C6A18860  11.771   9.642   8.025  0.1951  0.0727 -0.1924
 1179loPI   C1B18861  11.343  10.292   6.265  0.1135  0.0859  0.1769
 1179loPI   C2B18862  11.391  10.264   6.678 -0.3608 -0.1764  0.1250
 1179loPI   C3B18863  11.231  10.217   7.012  0.0506 -0.3285 -0.0919
 1179loPI   C4B18864  11.353   9.987   7.352 -0.1200 -0.0444 -0.2322
 1180loPI    C118865  13.016   3.734   4.934 -0.3945  0.0704  0.2106
 1180loPI    C218866  12.830   4.031   4.742 -0.0843 -0.0617 -0.3134
 1180loPI    C318867  12.912   3.690   4.551 -0.0837 -0.3396  0.1663
 1180loPI   PO418868  12.906   3.726   5.208  0.0832  0.2744 -0.0926
 1180loPI   GL118869  12.951   3.722   5.656  0.0881  0.4579 -0.0909
 1180loPI   GL218870  13.052   4.034   5.638  0.0784  0.2549  0.2583
 1180loPI   C1A18871  13.120   3.657   6.107  0.2991 -0.0510  0.0788
 1180loPI   C2A18872  13.057   3.642   6.532 -0.1700  0.5778 -0.1116
 1180loPI   C3A18873  13.113   3.606   6.922  0.2770 -0.0758 -0.1530
 1180loPI   C4A18874  12.987   3.573   7.413  0.1247 -0.1407 -0.1122
 1180loPI   C5A18875  13.002   3.593   7.952  0.1977  0.1479 -0.2505
 1180loPI   C6A18876  13.204   3.430   8.229 -0.0671  0.0881 -0.1147
 1180loPI   C1B18877  13.097   4.172   6.041 -0.1907 -0.4108 -0.3416
 1180loPI   C2B18878  13.112   4.118   6.437 -0.1082  0.2740  0.1113
 1180loPI   C3B18879  13.069   4.113   6.825  0.2633  0.2005  0.2882
 1180loPI   C4B18880  13.000   4.080   7.258 -0.0566  0.0826 -0.0492
 1181loPI    C118881  18.300   6.850   5.215  0.0267  0.0093  0.0199
 1181loPI    C218882  18.457   6.729   4.867  0.0328 -0.2359  0.1056
 1181loPI    C318883  18.219   7.050   4.878  0.2755 -0.0451 -0.0750
 1181loPI   PO418884  18.503   6.704   5.372  0.0188  0.1925  0.1953
 1181loPI   GL118885  18.812   6.813   5.715 -0.1592  0.4298  0.1088
 1181loPI   GL218886  18.701   6.516   5.806  0.0724  0.2968 -0.0560
 1181loPI   C1A18887  18.983   6.871   6.105 -0.2771  0.0373 -0.0077
 1181loPI   C2A18888  19.211   7.017   6.437 -0.2800 -0.0618  0.1543
 1181loPI   C3A18889  19.304   7.045   6.853 -0.1399 -0.0647  0.2958
 1181loPI   C4A18890  19.309   6.834   7.191 -0.1210  0.3061  0.0903
 1181loPI   C5A18891  19.365   6.641   7.617  0.0415 -0.1178  0.2650
 1181loPI   C6A18892  19.213   6.596   7.950 -0.4096  0.2510 -0.0088
 1181loPI   C1B18893  18.644   6.571   6.242 -0.1510  0.2851  0.1798
 1181loPI   C2B18894  18.494   6.530   6.676  0.0290 -0.1821 -0.2904
 1181loPI   C3B18895  18.165   6.478   7.001 -0.0447  0.0979 -0.4864
 1181loPI   C4B18896  18.050   6.628   7.405 -0.1306  0.2606 -0.1722
 1182loPI    C118897   6.059   4.245   4.352  0.0676  0.0194 -0.1556
 1182loPI    C218898   5.802   4.160   4.057 -0.1238 -0.0897  0.0396
 1182loPI    C318899   6.146   3.958   4.088 -0.0353  0.0221 -0.1931
 1182loPI   PO418900   5.955   4.322   4.515  0.2135  0.1039  0.0212
 1182loPI   GL118901   5.823   4.246   5.007 -0.0183 -0.1857 -0.3699
 1182loPI   GL218902   5.612   4.031   5.054 -0.1046  0.1653 -0.0306
 1182loPI   C1A18903   5.871   4.210   5.476 -0.0625  0.2331  0.1226
 1182loPI   C2A18904   5.970   4.199   5.951  0.3934 -0.0421 -0.1047
 1182loPI   C3A18905   5.918   4.140   6.308 -0.1630 -0.1082  0.1674
 1182loPI   C4A18906   5.901   4.057   6.666 -0.1026  0.2299 -0.0776
 1182loPI   C5A18907   5.930   4.182   7.086  0.4262  0.0841  0.0230
 1182loPI   C6A18908   5.976   3.978   7.459  0.1166 -0.1768  0.0750
 1182loPI   C1B18909   5.430   3.961   5.447 -0.1377  0.1095 -0.3135
 1182loPI   C2B18910   5.473   3.984   5.959  0.3258  0.0081 -0.1193
 1182loPI   C3B18911   5.464   3.827   6.349 -0.0811  0.2041  0.4391
 1182loPI   C4B18912   5.537   3.710   6.666  0.0007  0.0200 -0.0888
 1183loPI    C118913   1.623  15.418   4.993 -0.0809 -0.0163 -0.0340
 1183loPI    C218914   1.676  15.232   4.642  0.1037 -0.0486  0.0103
 1183loPI    C318915   1.458  15.567   4.660 -0.0219 -0.1229 -0.1115
 1183loPI   PO418916   1.858  15.314   5.169 -0.3568 -0.1423  0.1477
 1183loPI   GL118917   1.964  15.338   5.570  0.1491 -0.0491  0.2052
 1183loPI   GL218918   2.239  15.394   5.562  0.1567 -0.1509  0.2296
 1183loPI   C1A18919   1.675  15.229   5.938  0.0382  0.1166  0.0672
 1183loPI   C2A18920   1.740  15.449   6.361  0.0177  0.0736 -0.0836
 1183loPI   C3A18921   1.815  15.233   6.745 -0.0430  0.0365  0.0591
 1183loPI   C4A18922   2.016  15.035   7.108 -0.1832 -0.0168 -0.0476
 1183loPI   C5A18923   1.806  14.805   7.406 -0.2302 -0.1293  0.0205
 1183loPI   C6A18924   1.388  14.838   7.420 -0.0966 -0.2724 -0.0287
 1183loPI   C1B18925   2.189  15.520   6.006 -0.2573 -0.0733  0.1078
 1183loPI   C2B18926   2.215  15.429   6.466  0.1456  0.1313  0.1138
 1183loPI   C3B18927   2.223  15.500   6.900 -0.2918  0.1500  0.0808
 1183loPI   C4B18928   1.928  15.639   7.237 -0.2537  0.0871 -0.0995
 1184loPI    C118929  12.835  15.127   4.737  0.0123 -0.1217 -0.1523
 1184loPI    C218930  12.841  15.497   4.584  0.4151 -0.0463  0.0325
 1184loPI    C318931  13.034  15.200   4.397  0.0390 -0.1819 -0.1497
 1184loPI   PO418932  12.925  15.185   4.982 -0.0423  0.3064  0.1847
 1184loPI   GL118933  12.998  15.078   5.424  0.3613 -0.0162  0.1122
 1184loPI   GL218934  12.834  14.909   5.757  0.0429 -0.3346  0.0039
 1184loPI   C1A18935  13.238  15.331   5.754  0.2916  0.1492 -0.0286
 1184loPI   C2A18936  13.384  15.309   6.180  0.1999  0.0708 -0.1681
 1184loPI   C3A18937  13.340  15.448   6.620 -0.1010 -0.2250  0.1248
 1184loPI   C4A18938  13.136  15.682   7.019 -0.0009  0.0006  0.0267
 1184loPI   C5A18939  13.096  15.895   7.355 -0.0218 -0.4581 -0.0235
 1184loPI   C6A18940  12.701  16.034   7.478  0.0345 -0.2422 -0.0485
 1184loPI   C1B18941  13.186  14.817   6.184  0.0154 -0.3218  0.1610
 1184loPI   C2B18942  13.334  14.950   6.545  0.1419  0.1259  0.1521
 1184loPI   C3B18943  13.438  14.873   6.924  0.0131  0.4615 -0.3415
 1184loPI   C4B18944  13.286  14.663   7.309 -0.0253 -0.0852 -0.1390
 1185loPI    C118945  15.724  15.064   5.142 -0.0791  0.0546 -0.0660
 1185loPI    C218946  15.613  15.413   4.980  0.0432  0.1834  0.1226
 1185loPI    C318947  15.506  15.068   4.807 -0.1131  0.3131 -0.0429
 1185loPI   PO418948  16.037  15.137   5.150  0.0987 -0.0120  0.2730
 1185loPI   GL118949  16.065  15.311   5.500 -0.3486 -0.0188  0.1799
 1185loPI   GL218950  16.168  15.048   5.740  0.0677 -0.1148 -0.0042
 1185loPI   C1A18951  15.843  15.678   5.841  0.3096 -0.2187  0.0806
 1185loPI   C2A18952  15.729  15.825   6.219  0.1646 -0.0401 -0.2626
 1185loPI   C3A18953  15.662  16.077   6.656 -0.0695  0.0512 -0.0239
 1185loPI   C4A18954  15.648  16.323   6.948 -0.1518  0.0252 -0.0152
 1185loPI   C5A18955  15.726  16.563   7.195  0.0562  0.0579  0.0271
 1185loPI   C6A18956  15.994  16.787   7.468  0.2924 -0.2130  0.0952
 1185loPI   C1B18957  16.236  14.981   6.119  0.0730 -0.0296  0.1755
 1185loPI   C2B18958  16.291  14.894   6.568  0.1569  0.3123 -0.3232
 1185loPI   C3B18959  16.260  14.767   7.043 -0.2600  0.0961 -0.0005
 1185loPI   C4B18960  16.080  14.540   7.378  0.2297  0.1955 -0.1061
 1186loPI    C118961  17.798   3.244   5.412  0.0689  0.1273 -0.0276
 1186loPI    C218962  17.775   3.021   5.081 -0.0628 -0.0651  0.1091
 1186loPI    C318963  17.935   3.387   5.065 -0.0868 -0.0651 -0.1704
 1186loPI   PO418964  17.781   3.013   5.659  0.2484  0.0325 -0.0895
 1186loPI   GL118965  17.940   2.871   6.110 -0.0735 -0.0467  0.2481
 1186loPI   GL218966  18.184   2.829   5.908 -0.2906 -0.0159  0.5357
 1186loPI   C1A18967  17.718   2.934   6.461  0.2305  0.1762  0.0907
 1186loPI   C2A18968  17.864   2.969   6.911  0.0382 -0.0586  0.0617
 1186loPI   C3A18969  17.874   2.880   7.304 -0.3996  0.0367 -0.1058
 1186loPI   C4A18970  17.916   2.838   7.697  0.0290 -0.1011 -0.0346
 1186loPI   C5A18971  17.988   3.050   8.036  0.1393 -0.0472 -0.1314
 1186loPI   C6A18972  17.727   3.479   8.184  0.0775 -0.2362  0.0011
 1186loPI   C1B18973  18.392   3.118   6.117 -0.2220 -0.1922  0.0210
 1186loPI   C2B18974  18.678   3.182   6.503 -0.1000  0.1814 -0.0217
 1186loPI   C3B18975  18.700   3.105   6.933  0.1026 -0.0025  0.2385
 1186loPI   C4B18976  18.808   3.306   7.380  0.2650  0.0660  0.1003
 1187loPI    C118977   2.762   9.525   4.917 -0.0064  0.2437  0.0786
 1187loPI    C218978   2.571   9.654   4.591 -0.3130 -0.2244  0.0637
 1187loPI    C318979   2.822   9.344   4.566 -0.2101 -0.1570  0.2438
 1187loPI   PO418980   2.794   9.747   5.080 -0.2082 -0.2141 -0.2424
 1187loPI   GL118981   2.668   9.807   5.477 -0.1789 -0.0212  0.2190
 1187loPI   GL218982   2.539  10.068   5.427 -0.0912  0.3944  0.2300
 1187loPI   C1A18983   2.503   9.731   5.890  0.1152 -0.0908 -0.0969
 1187loPI   C2A18984   2.314   9.707   6.252 -0.1273 -0.2387  0.0861
 1187loPI   C3A18985   2.308   9.703   6.783  0.1930 -0.3782  0.1844
 1187loPI   C4A18986   2.120   9.892   7.166 -0.1249  0.0390  0.0555
 1187loPI   C5A18987   2.013  10.257   7.413 -0.2772 -0.1469 -0.5835
 1187loPI   C6A18988   1.651  10.578   7.426  0.3690  0.0328 -0.1292
 1187loPI   C1B18989   2.630  10.241   5.764  0.1211  0.0715 -0.2445
 1187loPI   C2B18990   2.547  10.131   6.149 -0.0959 -0.1488  0.1586
 1187loPI   C3B18991   2.165  10.150   6.439  0.1540  0.3690 -0.2387
 1187loPI   C4B18992   1.855   9.947   6.556 -0.1816 -0.2814 -0.1901
 1188loPI    C118993   5.554   2.587   4.597  0.0170  0.0494 -0.0558
 1188loPI    C218994   5.914   2.676   4.448  0.0533 -0.1340 -0.0801
 1188loPI    C318995   5.657   2.458   4.233  0.0205 -0.2099  0.0348
 1188loPI   PO418996   5.602   2.626   4.924  0.0669 -0.2885  0.1243
 1188loPI   GL118997   5.460   2.588   5.255  0.2062  0.0073 -0.0411
 1188loPI   GL218998   5.677   2.423   5.391 -0.1851  0.0500 -0.0807
 1188loPI   C1A18999   5.212   2.328   5.629 -0.0863 -0.2431  0.0224
 1188loPI   C2A19000   5.293   2.313   6.012 -0.2384  0.0368 -0.0324
 1188loPI   C3A19001   5.363   2.238   6.409  0.1962 -0.1047 -0.0381
 1188loPI   C4A19002   5.418   2.304   6.896  0.0036 -0.0403  0.0150
 1188loPI   C5A19003   5.460   2.142   7.291 -0.4028 -0.2224  0.0146
 1188loPI   C6A19004   5.706   2.039   7.635  0.1475 -0.3393 -0.0434
 1188loPI   C1B19005   5.737   2.573   5.888 -0.1471 -0.1007 -0.0897
 1188loPI   C2B19006   5.765   2.488   6.236  0.0404  0.2136 -0.0658
 1188loPI   C3B19007   5.880   2.588   6.718 -0.1243 -0.4313  0.1049
 1188loPI   C4B19008   5.889   2.598   7.192  0.0549  0.1056 -0.2255
 1189loPI    C119009   7.082   6.455   4.536  0.0734 -0.0488  0.1321
 1189loPI    C219010   7.469   6.450   4.635  0.0823 -0.0472  0.0977
 1189loPI    C319011   7.321   6.754   4.421  0.0979 -0.1303 -0.0321
 1189loPI   PO419012   6.891   6.368   4.786 -0.0811 -0.3056 -0.0102
 1189loPI   GL119013   6.925   6.395   5.239 -0.1263 -0.0400 -0.2802
 1189loPI   GL219014   6.736   6.603   5.424 -0.1842 -0.0435 -0.0790
 1189loPI   C1A19015   6.656   6.079   5.520  0.1847  0.1864 -0.0950
 1189loPI   C2A19016   6.413   5.891   5.905  0.0469 -0.0144  0.0355
 1189loPI   C3A19017   6.421   5.848   6.359  0.0973  0.0823  0.0688
 1189loPI   C4A19018   6.353   5.860   6.786  0.0300 -0.0430 -0.1565
 1189loPI   C5A19019   6.366   5.836   7.196  0.2170 -0.0009 -0.0554
 1189loPI   C6A19020   6.410   5.808   7.654 -0.2535  0.1943  0.2474
 1189loPI   C1B19021   6.915   6.859   5.811 -0.2342 -0.0951  0.1139
 1189loPI   C2B19022   6.858   6.672   6.221  0.0616  0.1676 -0.3062
 1189loPI   C3B19023   6.833   6.674   6.753  0.0727 -0.3163 -0.0241
 1189loPI   C4B19024   6.847   6.494   7.205 -0.1046  0.3199 -0.2440
 1190loPI    C119025  16.520  17.586   4.958  0.1747  0.0314 -0.0603
 1190loPI    C219026  16.436  17.311   4.681  0.2341 -0.1675  0.1163
 1190loPI    C319027  16.711  17.592   4.607  0.0143 -0.0171 -0.1492
 1190loPI   PO419028  16.481  17.493   5.200 -0.3491 -0.0868 -0.2084
 1190loPI   GL119029  16.474  17.673   5.539  0.1179 -0.2521  0.0944
 1190loPI   GL219030  16.360  17.554   5.779 -0.0698  0.1979  0.2952
 1190loPI   C1A19031  16.071  17.954   5.779  0.2865 -0.2328  0.1122
 1190loPI   C2A19032  16.045  17.981   6.188  0.2765  0.1526 -0.2439
 1190loPI   C3A19033  16.202  17.826   6.625 -0.0465  0.0005 -0.0029
 1190loPI   C4A19034  16.301  17.967   7.112  0.0681  0.2977  0.2659
 1190loPI   C5A19035  16.158  18.033   7.579 -0.1405  0.0097 -0.0098
 1190loPI   C6A19036  15.833  18.053   7.812 -0.2500 -0.1359  0.2540
 1190loPI   C1B19037  16.508  17.822   6.089  0.2342  0.0556 -0.2480
 1190loPI   C2B19038  16.664  17.703   6.482 -0.1949  0.0825 -0.0840
 1190loPI   C3B19039  16.739  17.700   6.976 -0.0265  0.1935  0.1789
 1190loPI   C4B19040  16.758  17.472   7.374 -0.2682  0.3490  0.1790
 1191loPI    C119041  18.282  17.303   4.980  0.0959  0.2083 -0.0814
 1191loPI    C219042  17.884  17.263   4.974  0.0801  0.3210  0.1187
 1191loPI    C319043  18.079  17.379   4.644 -0.0303  0.0751 -0.0363
 1191loPI   PO419044  18.374  17.150   5.198  0.0925  0.0274 -0.2145
 1191loPI   GL119045  18.304  16.831   5.587 -0.0129  0.1482  0.0425
 1191loPI   GL219046  18.304  16.667   5.919 -0.0227 -0.0447  0.1160
 1191loPI   C1A19047  18.091  17.124   5.956  0.3030  0.0251  0.0652
 1191loPI   C2A19048  18.151  17.280   6.334  0.0560 -0.1425 -0.0428
 1191loPI   C3A19049  18.218  17.356   6.785  0.0594 -0.0541  0.3340
 1191loPI   C4A19050  18.165  17.409   7.201 -0.0447 -0.0872 -0.1890
 1191loPI   C5A19051  17.831  17.549   7.610  0.0685 -0.0826 -0.3743
 1191loPI   C6A19052  17.461  17.803   7.665 -0.1634 -0.1612  0.0011
 1191loPI   C1B19053  18.265  16.755   6.294 -0.0666  0.0053  0.1184
 1191loPI   C2B19054  18.095  16.910   6.617 -0.1851  0.4134 -0.3710
 1191loPI   C3B19055  17.840  17.136   6.967 -0.0147  0.2039  0.0504
 1191loPI   C4B19056  17.630  17.448   7.175 -0.2692  0.0238  0.0420
 1192loPI    C119057   3.359   8.224   4.606  0.3380  0.0985 -0.0360
 1192loPI    C219058   3.402   7.826   4.609  0.3272  0.0978  0.2180
 1192loPI    C319059   3.387   8.023   4.261 -0.1036 -0.1707  0.0765
 1192loPI   PO419060   3.399   8.218   4.977 -0.0049  0.1129 -0.0470
 1192loPI   GL119061   3.604   8.224   5.302  0.0826 -0.1536  0.2695
 1192loPI   GL219062   3.629   7.871   5.373 -0.1433  0.0582  0.1705
 1192loPI   C1A19063   3.682   8.282   5.731 -0.1237 -0.3638  0.1761
 1192loPI   C2A19064   3.642   8.183   6.221 -0.0309 -0.0548  0.0034
 1192loPI   C3A19065   3.741   8.158   6.647  0.1719  0.0237 -0.2376
 1192loPI   C4A19066   3.800   8.159   7.068 -0.0022  0.0402 -0.1042
 1192loPI   C5A19067   4.046   8.125   7.460  0.1434  0.3271  0.2938
 1192loPI   C6A19068   4.346   8.270   7.736  0.1086  0.1188  0.0964
 1192loPI   C1B19069   3.524   7.703   5.766 -0.3574 -0.0720 -0.1907
 1192loPI   C2B19070   3.694   7.687   6.163  0.1416 -0.2577 -0.0170
 1192loPI   C3B19071   3.755   7.638   6.534  0.0476 -0.0070 -0.1153
 1192loPI   C4B19072   3.617   7.698   6.880  0.0731 -0.3031  0.1879
 1193loPI    C119073   1.890   8.071   4.744 -0.0537 -0.1206 -0.0600
 1193loPI    C219074   1.892   7.706   4.907  0.0149 -0.0685  0.0570
 1193loPI    C319075   1.782   7.754   4.526  0.2058 -0.2385 -0.0210
 1193loPI   PO419076   2.071   8.220   5.002 -0.3462  0.2065  0.1726
 1193loPI   GL119077   2.088   8.012   5.356 -0.0342 -0.2742 -0.1079
 1193loPI   GL219078   2.439   8.029   5.309 -0.1515  0.0276 -0.3366
 1193loPI   C1A19079   2.143   7.926   5.832 -0.1680 -0.0284  0.0632
 1193loPI   C2A19080   2.187   7.896   6.187 -0.1002  0.1108  0.0035
 1193loPI   C3A19081   2.300   7.968   6.606  0.0634 -0.0944 -0.2029
 1193loPI   C4A19082   2.042   7.830   6.991 -0.2981 -0.1323  0.1982
 1193loPI   C5A19083   1.746   7.527   7.124  0.1753 -0.2039 -0.2450
 1193loPI   C6A19084   1.515   7.270   6.908  0.1715 -0.1165 -0.1521
 1193loPI   C1B19085   2.617   7.975   5.714 -0.1084 -0.0522 -0.1171
 1193loPI   C2B19086   2.698   7.943   6.180  0.0054 -0.0574 -0.1197
 1193loPI   C3B19087   2.755   7.693   6.619 -0.0131  0.1502  0.1717
 1193loPI   C4B19088   2.551   7.638   7.058 -0.1961 -0.1581  0.2152
 1194loPI    C119089   6.713  16.384   4.633 -0.0222  0.0999 -0.0585
 1194loPI    C219090   6.343  16.475   4.510 -0.0501 -0.0075 -0.0544
 1194loPI    C319091   6.571  16.226   4.295 -0.0070  0.0009 -0.0189
 1194loPI   PO419092   6.866  16.662   4.645  0.1831  0.0602 -0.1524
 1194loPI   GL119093   6.818  16.735   5.054  0.2992  0.1095 -0.0466
 1194loPI   GL219094   6.516  16.733   4.996  0.0481  0.2758 -0.0249
 1194loPI   C1A19095   6.693  16.942   5.426  0.1407 -0.1366 -0.3137
 1194loPI   C2A19096   6.691  17.040   5.787  0.1497 -0.1090 -0.0802
 1194loPI   C3A19097   6.678  17.150   6.161  0.2141 -0.1050 -0.2885
 1194loPI   C4A19098   6.651  17.055   6.530 -0.4462  0.1400  0.2783
 1194loPI   C5A19099   6.648  16.998   6.915  0.1299 -0.1933 -0.4609
 1194loPI   C6A19100   6.869  16.854   7.294  0.1765  0.0056  0.2406
 1194loPI   C1B19101   6.248  16.710   5.263  0.1054 -0.2139 -0.0359
 1194loPI   C2B19102   6.357  16.624   5.653  0.1856  0.0086 -0.0219
 1194loPI   C3B19103   6.426  16.655   6.045  0.0195  0.0590 -0.1371
 1194loPI   C4B19104   6.399  16.695   6.430 -0.1809  0.0968 -0.2353
 1195loPI    C119105  13.620   2.100   4.576  0.1159  0.1897 -0.0057
 1195loPI    C219106  13.224   2.152   4.544  0.0653 -0.1581  0.0136
 1195loPI    C319107  13.432   2.000   4.238  0.1804 -0.0063  0.0151
 1195loPI   PO419108  13.603   1.907   4.859 -0.1532 -0.0476  0.2035
 1195loPI   GL119109  13.633   1.488   5.082  0.2087 -0.1009 -0.0577
 1195loPI   GL219110  13.722   1.251   5.393  0.0064  0.1019 -0.0663
 1195loPI   C1A19111  13.639   1.739   5.478 -0.2427  0.0307  0.3758
 1195loPI   C2A19112  13.557   1.968   5.902 -0.0062 -0.0885 -0.1457
 1195loPI   C3A19113  13.543   1.904   6.240 -0.2512 -0.0710 -0.1066
 1195loPI   C4A19114  13.569   1.800   6.602 -0.2584  0.0246  0.0740
 1195loPI   C5A19115  13.539   1.786   7.044  0.0060  0.1146 -0.1439
 1195loPI   C6A19116  13.243   1.994   7.321 -0.1901  0.0746 -0.1215
 1195loPI   C1B19117  13.697   1.341   5.838  0.1174  0.3655  0.0283
 1195loPI   C2B19118  13.583   1.395   6.259  0.1495 -0.1219 -0.2630
 1195loPI   C3B19119  13.559   1.269   6.615  0.2133 -0.2650  0.0406
 1195loPI   C4B19120  13.678   1.219   7.092 -0.1864  0.1981 -0.0435
 1196loPI    C119121  16.227   4.067   5.105  0.1233  0.1360  0.1142
 1196loPI    C219122  15.935   4.176   4.855 -0.0796 -0.3201  0.1407
 1196loPI    C319123  16.318   4.209   4.742 -0.1415  0.1048  0.0336
 1196loPI   PO419124  16.121   4.096   5.381  0.0469 -0.1662  0.0828
 1196loPI   GL119125  16.174   3.831   5.705 -0.1754 -0.1706 -0.2826
 1196loPI   GL219126  16.274   4.107   5.868 -0.1279 -0.1957 -0.3428
 1196loPI   C1A19127  16.018   3.789   6.180 -0.3894  0.4047  0.1247
 1196loPI   C2A19128  15.869   3.715   6.572  0.0368  0.5651 -0.1083
 1196loPI   C3A19129  15.786   3.659   7.026  0.1779  0.2394 -0.1515
 1196loPI   C4A19130  15.810   3.756   7.373  0.0522  0.0608  0.0047
 1196loPI   C5A19131  16.035   3.653   7.601  0.0692 -0.1318 -0.0645
 1196loPI   C6A19132  16.249   3.518   8.069 -0.0845 -0.2130 -0.1388
 1196loPI   C1B19133  16.399   4.123   6.307 -0.2116 -0.2076  0.1839
 1196loPI   C2B19134  16.235   4.039   6.629 -0.1583 -0.1563  0.1245
 1196loPI   C3B19135  16.269   4.052   7.065  0.2574  0.1581  0.2396
 1196loPI   C4B19136  16.403   4.079   7.378 -0.1209 -0.0221 -0.1428
 1197loPI    C119137   8.350   9.183   5.342 -0.0438  0.1066  0.1811
 1197loPI    C219138   8.664   9.070   5.122 -0.1329 -0.0873  0.1514
 1197loPI    C319139   8.529   9.446   5.100 -0.0361 -0.0606  0.0032
 1197loPI   PO419140   8.467   9.170   5.615  0.1498 -0.0438  0.0189
 1197loPI   GL119141   8.387   9.186   6.097  0.0068 -0.1470  0.1408
 1197loPI   GL219142   8.260   9.487   6.132 -0.1205 -0.2110 -0.2236
 1197loPI   C1A19143   8.286   8.973   6.510  0.2032 -0.2058 -0.1481
 1197loPI   C2A19144   8.187   8.896   6.911 -0.2245 -0.2430 -0.2219
 1197loPI   C3A19145   8.292   8.705   7.346  0.1802  0.1342 -0.3890
 1197loPI   C4A19146   8.394   8.759   7.762 -0.3269  0.1161 -0.0646
 1197loPI   C5A19147   8.261   8.941   8.204  0.2600  0.0502  0.0237
 1197loPI   C6A19148   8.173   9.024   8.587 -0.0352 -0.1752  0.2898
 1197loPI   C1B19149   7.969   9.403   6.531  0.3866  0.3526 -0.1225
 1197loPI   C2B19150   7.889   9.387   6.959 -0.1879 -0.0218 -0.1282
 1197loPI   C3B19151   7.663   9.358   7.355 -0.2435 -0.0066 -0.0025
 1197loPI   C4B19152   7.508   9.036   7.593 -0.1782  0.1342 -0.2207
 1198loPI    C119153  14.245   0.827   4.648 -0.0923 -0.0007 -0.0723
 1198loPI    C219154  13.875   0.848   4.497 -0.0295  0.1179 -0.2115
 1198loPI    C319155  14.166   0.665   4.291 -0.0703 -0.2156  0.0186
 1198loPI   PO419156  14.229   0.743   4.913  0.1719  0.0931  0.1856
 1198loPI   GL119157  14.079   0.660   5.247  0.1440  0.0694  0.2131
 1198loPI   GL219158  14.146   0.357   5.207  0.0747 -0.0078 -0.0688
 1198loPI   C1A19159  14.117   0.568   5.656  0.1416  0.1700  0.1098
 1198loPI   C2A19160  14.093   0.660   6.057  0.4090  0.2066 -0.1058
 1198loPI   C3A19161  14.068   0.531   6.390 -0.0111 -0.3107 -0.2265
 1198loPI   C4A19162  14.098   0.522   6.771  0.2382 -0.0691 -0.0693
 1198loPI   C5A19163  14.176   0.291   7.071 -0.1614  0.0015 -0.0800
 1198loPI   C6A19164  14.210   0.047   7.379 -0.1643 -0.4120 -0.0296
 1198loPI   C1B19165  14.401   0.169   5.461  0.1720 -0.1859  0.2115
 1198loPI   C2B19166  14.291   0.149   5.806 -0.1379  0.1030  0.2104
 1198loPI   C3B19167  14.050   0.093   6.132  0.1572 -0.0123  0.2820
 1198loPI   C4B19168  14.083   0.049   6.635  0.0076  0.1941  0.0261
 1199loPI    C119169  11.824  12.434   4.694 -0.2434  0.1183  0.0191
 1199loPI    C219170  11.764  12.041   4.741  0.1756  0.0650  0.1444
 1199loPI    C319171  11.707  12.211   4.383 -0.3258 -0.0451  0.1657
 1199loPI   PO419172  11.862  12.618   4.841 -0.2584  0.1551 -0.0117
 1199loPI   GL119173  11.570  12.680   5.277  0.2187  0.1702  0.0449
 1199loPI   GL219174  11.631  12.398   5.465  0.1323  0.1671  0.1110
 1199loPI   C1A19175  11.501  12.894   5.680  0.0323 -0.1204  0.3880
 1199loPI   C2A19176  11.431  12.949   6.097  0.1302  0.0443 -0.0672
 1199loPI   C3A19177  11.479  13.055   6.556 -0.0776 -0.1191  0.1579
 1199loPI   C4A19178  11.416  13.084   6.905 -0.0551  0.3345  0.0460
 1199loPI   C5A19179  11.347  12.935   7.325 -0.1186  0.0242 -0.0151
 1199loPI   C6A19180  11.234  13.058   7.712  0.1235 -0.2986 -0.1137
 1199loPI   C1B19181  11.763  12.419   5.862  0.2373 -0.0537  0.3122
 1199loPI   C2B19182  11.677  12.376   6.264 -0.1853 -0.1682  0.1642
 1199loPI   C3B19183  11.660  12.520   6.704  0.0843 -0.1577 -0.1807
 1199loPI   C4B19184  11.654  12.571   7.079 -0.0674 -0.1552  0.0867
 1200loPI    C119185   8.463   0.589   4.941  0.4146  0.0379 -0.0869
 1200loPI    C219186   8.638   0.655   5.294  0.3623 -0.0902 -0.0367
 1200loPI    C319187   8.656   0.292   5.127  0.0413 -0.1391  0.0279
 1200loPI   PO419188   8.239   0.598   4.991 -0.0041  0.1691 -0.0268
 1200loPI   GL119189   7.925   0.402   5.274  0.0079 -0.1285 -0.1916
 1200loPI   GL219190   7.621   0.475   5.334 -0.1938 -0.1448 -0.4673
 1200loPI   C1A19191   8.293   0.281   5.589 -0.1639 -0.1381 -0.2217
 1200loPI   C2A19192   8.290  -0.034   5.841 -0.2055 -0.2671  0.1535
 1200loPI   C3A19193   8.370  -0.043   6.236  0.0116  0.0734  0.0629
 1200loPI   C4A19194   8.312   0.011   6.663 -0.1168 -0.1297 -0.4588
 1200loPI   C5A19195   8.367   0.317   7.006  0.1101  0.3236  0.0745
 1200loPI   C6A19196   8.160   0.470   7.358  0.4155  0.0751  0.0537
 1200loPI   C1B19197   7.587   0.361   5.792  0.0859 -0.0118  0.0616
 1200loPI   C2B19198   7.561   0.385   6.270  0.0317  0.0064  0.0834
 1200loPI   C3B19199   7.380   0.142   6.635 -0.0281 -0.0852  0.2546
 1200loPI   C4B19200   7.350   0.039   7.041  0.1434 -0.1267  0.1120
 1201loPI    C119201  12.124  14.801   4.968 -0.0811  0.0187 -0.1060
 1201loPI    C219202  12.159  14.403   4.951  0.1429  0.0376 -0.1100
 1201loPI    C319203  12.157  14.618   4.614 -0.0441  0.0353 -0.1112
 1201loPI   PO419204  12.039  14.848   5.167 -0.0482 -0.2853 -0.1268
 1201loPI   GL119205  12.141  14.943   5.689  0.2735  0.1201  0.1657
 1201loPI   GL219206  12.377  15.099   5.793 -0.1045 -0.1362 -0.1480
 1201loPI   C1A19207  12.005  14.962   6.111 -0.0147  0.1612 -0.0874
 1201loPI   C2A19208  12.346  15.011   6.372  0.0241 -0.2208  0.2944
 1201loPI   C3A19209  12.469  15.040   6.760 -0.2160  0.0045  0.1339
 1201loPI   C4A19210  12.461  15.278   7.103  0.3571  0.1842 -0.1038
 1201loPI   C5A19211  12.837  15.472   7.351  0.2445 -0.2976  0.3326
 1201loPI   C6A19212  13.058  15.543   7.691 -0.1665 -0.2272 -0.0733
 1201loPI   C1B19213  12.361  14.628   5.978 -0.1501  0.0320 -0.1122
 1201loPI   C2B19214  12.355  14.317   6.276  0.0199 -0.2151 -0.1370
 1201loPI   C3B19215  12.571  14.234   6.624 -0.1075  0.1738  0.2977
 1201loPI   C4B19216  12.576  14.294   7.083 -0.0963  0.0310 -0.5369
 1202loPI    C119217  13.421   4.053   4.858 -0.0216  0.1583 -0.1136
 1202loPI    C219218  13.627   3.999   4.519  0.0003 -0.1381 -0.0559
 1202loPI    C319219  13.239   4.095   4.504  0.1333  0.4193 -0.1649
 1202loPI   PO419220  13.473   3.931   5.103  0.3005 -0.2267 -0.1737
 1202loPI   GL119221  13.409   3.676   5.473  0.1836 -0.3222 -0.1477
 1202loPI   GL219222  13.614   3.867   5.730  0.0783  0.0731 -0.1390
 1202loPI   C1A19223  13.542   3.438   5.903 -0.0772  0.0738  0.0529
 1202loPI   C2A19224  13.476   3.442   6.351  0.1199  0.1892 -0.3089
 1202loPI   C3A19225  13.505   3.324   6.795 -0.1704  0.1444 -0.0658
 1202loPI   C4A19226  13.492   3.419   7.233  0.1220  0.2769 -0.3437
 1202loPI   C5A19227  13.376   3.289   7.696 -0.1775 -0.0514  0.1793
 1202loPI   C6A19228  13.094   2.964   7.978 -0.4029  0.1887  0.0412
 1202loPI   C1B19229  13.553   3.935   6.181 -0.1905 -0.0215  0.0505
 1202loPI   C2B19230  13.483   3.818   6.683 -0.0661  0.0098  0.1240
 1202loPI   C3B19231  13.471   3.886   7.102  0.1448 -0.1793 -0.0937
 1202loPI   C4B19232  13.452   3.875   7.541 -0.1261 -0.0235  0.1435
 1203loPI    C119233   0.613  17.230   4.630  0.0214  0.2464  0.1099
 1203loPI    C219234   0.307  17.433   4.472 -0.1559 -0.1230 -0.0333
 1203loPI    C319235   0.564  17.241   4.233  0.0638  0.0059  0.0964
 1203loPI   PO419236   0.514  17.099   4.834  0.0477 -0.0911  0.2434
 1203loPI   GL119237   0.402  17.208   5.187  0.3503 -0.0547 -0.2109
 1203loPI   GL219238   0.193  17.021   5.317 -0.1005  0.3060  0.0403
 1203loPI   C1A19239   0.598  17.341   5.602 -0.0633  0.0507  0.0274
 1203loPI   C2A19240   0.729  17.473   6.046 -0.2226  0.1752 -0.0954
 1203loPI   C3A19241   0.789  17.350   6.456 -0.0802 -0.0450  0.0024
 1203loPI   C4A19242   0.795  17.358   6.946 -0.0325  0.4060 -0.1998
 1203loPI   C5A19243   1.134  17.577   7.241  0.2269  0.0265 -0.2104
 1203loPI   C6A19244   1.208  17.491   7.633 -0.0274 -0.2950 -0.0169
 1203loPI   C1B19245   0.099  17.124   5.661 -0.0365 -0.2180 -0.0470
 1203loPI   C2B19246  -0.101  17.064   6.005  0.1585 -0.1617 -0.0807
 1203loPI   C3B19247  -0.106  17.117   6.448  0.0800  0.1692 -0.1426
 1203loPI   C4B19248  -0.076  17.155   6.950 -0.1432 -0.0117 -0.0109
 1204loPI    C119249  11.811  14.080   4.903 -0.0392  0.2004  0.0521
 1204loPI    C219250  11.589  14.188   4.588 -0.0225  0.1335  0.0172
 1204loPI    C319251  11.985  14.145   4.549 -0.0578 -0.1708 -0.0294
 1204loPI   PO419252  11.690  14.302   5.133  0.2777  0.0467  0.0562
 1204loPI   GL119253  11.830  14.541   5.513 -0.1951  0.2861  0.1599
 1204loPI   GL219254  11.781  14.638   5.721  0.0252  0.1141 -0.2928
 1204loPI   C1A19255  11.984  14.243   5.953  0.0360 -0.0183 -0.1458
 1204loPI   C2A19256  11.914  14.490   6.380  0.1726  0.3106  0.0733
 1204loPI   C3A19257  12.169  14.555   6.723  0.0896  0.3459  0.2510
 1204loPI   C4A19258  12.278  14.615   7.225  0.0665  0.2541 -0.2083
 1204loPI   C5A19259  12.347  14.527   7.611  0.0116  0.4083 -0.0642
 1204loPI   C6A19260  12.594  14.173   7.859  0.1220 -0.0555  0.1822
 1204loPI   C1B19261  11.597  14.692   6.088 -0.1643  0.2473  0.0367
 1204loPI   C2B19262  11.672  14.898   6.552 -0.1643  0.2663  0.4435
 1204loPI   C3B19263  11.332  14.894   6.819 -0.2926  0.0734 -0.3950
 1204loPI   C4B19264  11.064  15.198   7.040  0.0810 -0.0925  0.4333
 1205loPI    C119265  15.207   4.827   5.081  0.1333  0.0434  0.0443
 1205loPI    C219266  14.881   4.988   4.914 -0.0189 -0.1299  0.1689
 1205loPI    C319267  15.123   4.756   4.696  0.0717  0.0705  0.0526
 1205loPI   PO419268  15.185   4.730   5.271  0.2349 -0.0376  0.2216
 1205loPI   GL119269  15.244   4.619   5.590 -0.1732  0.0297 -0.1616
 1205loPI   GL219270  14.924   4.579   5.685  0.1063  0.1726  0.0622
 1205loPI   C1A19271  15.283   4.618   6.027  0.0183  0.0926  0.1242
 1205loPI   C2A19272  15.289   4.427   6.475 -0.0885  0.0259  0.1508
 1205loPI   C3A19273  15.266   4.344   6.871  0.1068 -0.1312 -0.3542
 1205loPI   C4A19274  15.293   4.326   7.321  0.0925  0.1158  0.1535
 1205loPI   C5A19275  15.428   4.247   7.678  0.2410 -0.3734  0.1034
 1205loPI   C6A19276  15.592   3.910   7.793 -0.0438  0.0645  0.4305
 1205loPI   C1B19277  14.890   4.214   5.996 -0.0805 -0.3561  0.1014
 1205loPI   C2B19278  14.907   4.134   6.324  0.4019 -0.0767  0.1848
 1205loPI   C3B19279  14.849   4.070   6.735  0.2559 -0.1955  0.2032
 1205loPI   C4B19280  14.860   4.074   7.191  0.0573  0.1974 -0.2177
 1206loPI    C119281  18.406   9.798   5.039  0.0180 -0.0889 -0.1639
 1206loPI    C219282  18.178   9.546   5.249  0.0385 -0.0076 -0.0429
 1206loPI    C319283  18.219   9.497   4.854 -0.2092 -0.0071 -0.0698
 1206loPI   PO419284  18.632   9.870   5.201  0.0669  0.0250 -0.1298
 1206loPI   GL119285  19.079  10.042   5.308  0.2777  0.0785 -0.1585
 1206loPI   GL219286  18.983   9.803   5.528  0.0909  0.2475  0.3135
 1206loPI   C1A19287  19.285  10.216   5.718 -0.1284 -0.0198  0.0215
 1206loPI   C2A19288  19.159  10.400   6.166  0.0451  0.1843  0.0267
 1206loPI   C3A19289  19.139  10.546   6.541 -0.1250 -0.2487 -0.2654
 1206loPI   C4A19290  18.959  10.541   6.926 -0.0101 -0.1229 -0.1779
 1206loPI   C5A19291  18.880  10.453   7.390 -0.0115  0.3662  0.0482
 1206loPI   C6A19292  18.396  10.531   7.597  0.0336 -0.1466  0.0611
 1206loPI   C1B19293  18.828   9.956   5.895  0.0877  0.2693  0.1815
 1206loPI   C2B19294  18.662  10.134   6.261 -0.0321  0.1704 -0.0398
 1206loPI   C3B19295  18.653  10.242   6.684  0.0423  0.1576  0.2380
 1206loPI   C4B19296  18.527  10.189   7.172 -0.0872 -0.2159 -0.0363
 1207loPI    C119297  16.276  13.328   4.792  0.1967  0.0937  0.1061
 1207loPI    C219298  16.357  13.017   4.554 -0.0138 -0.0046  0.1607
 1207loPI    C319299  16.024  13.232   4.497  0.0651  0.1313  0.2054
 1207loPI   PO419300  16.302  13.191   5.098  0.0531  0.2370 -0.1378
 1207loPI   GL119301  16.177  13.098   5.544 -0.0048  0.0599  0.0566
 1207loPI   GL219302  15.949  13.352   5.778 -0.0157 -0.1585  0.0054
 1207loPI   C1A19303  16.276  12.900   5.937  0.1250  0.2740  0.1890
 1207loPI   C2A19304  16.184  12.851   6.415  0.2995  0.0090 -0.1897
 1207loPI   C3A19305  16.291  12.851   6.864  0.3342 -0.0554  0.0965
 1207loPI   C4A19306  16.165  12.794   7.257  0.1502  0.0163 -0.0931
 1207loPI   C5A19307  16.331  12.833   7.657 -0.0593  0.0505 -0.0932
 1207loPI   C6A19308  16.060  12.800   8.034 -0.0501 -0.1457 -0.1004
 1207loPI   C1B19309  16.028  13.377   6.200 -0.0136 -0.0624  0.0623
 1207loPI   C2B19310  16.241  13.314   6.630  0.1029  0.0085  0.1562
 1207loPI   C3B19311  16.305  13.307   7.055 -0.1096  0.1933  0.3965
 1207loPI   C4B19312  16.271  13.398   7.525  0.0957 -0.0138  0.0717
 1208loPI    C119313   2.123   1.039   4.689 -0.0693  0.3537  0.3647
 1208loPI    C219314   1.970   1.234   4.374  0.0737  0.0333  0.0903
 1208loPI    C319315   2.355   1.281   4.471  0.0822 -0.0304  0.0882
 1208loPI   PO419316   2.011   0.762   4.628  0.4253 -0.1418 -0.0867
 1208loPI   GL119317   1.855   0.603   4.990 -0.2659 -0.1100 -0.0091
 1208loPI   GL219318   1.914   0.320   5.044  0.1116 -0.1420  0.1056
 1208loPI   C1A19319   1.656   0.479   5.468 -0.0456 -0.0030  0.0907
 1208loPI   C2A19320   1.322   0.289   5.735  0.0215  0.0334  0.0096
 1208loPI   C3A19321   1.317   0.239   6.153  0.1845 -0.1752 -0.1258
 1208loPI   C4A19322   1.357   0.287   6.613  0.0676 -0.2469 -0.1140
 1208loPI   C5A19323   1.405   0.293   7.001 -0.2023  0.0697  0.2136
 1208loPI   C6A19324   1.603   0.269   7.328 -0.4117 -0.1350  0.1849
 1208loPI   C1B19325   2.127   0.415   5.472  0.0796  0.3675 -0.0476
 1208loPI   C2B19326   2.189   0.491   5.841  0.3503  0.0737 -0.1310
 1208loPI   C3B19327   2.075   0.556   6.271 -0.0311 -0.2343 -0.1664
 1208loPI   C4B19328   1.724   0.717   6.605 -0.4997 -0.0806  0.1356
 1209loPI    C119329  14.744  14.510   4.894 -0.3218 -0.0267  0.0700
 1209loPI    C219330  14.642  14.693   4.554  0.1535  0.1859  0.0341
 1209loPI    C319331  14.614  14.295   4.583 -0.1803  0.1926 -0.1441
 1209loPI   PO419332  14.641  14.631   5.211 -0.1789 -0.1065  0.1393
 1209loPI   GL119333  14.746  14.889   5.495 -0.1135  0.0569 -0.2531
 1209loPI   GL219334  14.905  15.099   5.627 -0.1810  0.0007  0.0869
 1209loPI   C1A19335  14.648  14.687   5.915 -0.2040 -0.2676 -0.1126
 1209loPI   C2A19336  14.805  14.763   6.290 -0.0515  0.0178 -0.1499
 1209loPI   C3A19337  14.769  14.679   6.628 -0.0516  0.2591 -0.1981
 1209loPI   C4A19338  14.892  14.554   6.975 -0.0538 -0.1355 -0.0008
 1209loPI   C5A19339  15.005  14.564   7.394  0.1885  0.0016 -0.1347
 1209loPI   C6A19340  15.086  14.547   7.765 -0.0195 -0.2377 -0.1215
 1209loPI   C1B19341  14.845  15.264   6.046 -0.3273  0.0109 -0.0009
 1209loPI   C2B19342  14.696  15.185   6.448 -0.1878 -0.0549  0.0322
 1209loPI   C3B19343  14.399  15.215   6.680  0.2318 -0.3328 -0.0837
 1209loPI   C4B19344  14.105  15.211   7.102 -0.1110 -0.1046 -0.0580
 1210loPI    C119345  10.774  13.989   4.779 -0.1538 -0.0302  0.0099
 1210loPI    C219346  10.512  13.711   4.895 -0.0058 -0.1286  0.1125
 1210loPI    C319347  10.588  13.765   4.506 -0.3714  0.0806  0.0653
 1210loPI   PO419348  10.790  14.166   4.950 -0.4196  0.5642  0.1765
 1210loPI   GL119349  10.473  14.081   5.229  0.0875 -0.2247  0.2379
 1210loPI   GL219350  10.317  14.290   5.066  0.0722 -0.4642  0.3364
 1210loPI   C1A19351  10.503  13.889   5.645  0.4817  0.0890  0.0369
 1210loPI   C2A19352  10.479  13.939   6.094 -0.1809  0.3752  0.2136
 1210loPI   C3A19353  10.571  14.033   6.435  0.1878  0.1221  0.0256
 1210loPI   C4A19354  10.583  14.131   6.952 -0.1305 -0.0513  0.0493
 1210loPI   C5A19355  10.692  14.366   7.388 -0.0096  0.0624 -0.0431
 1210loPI   C6A19356  10.735  14.730   7.598  0.1165  0.1550 -0.0863
 1210loPI   C1B19357  10.164  14.400   5.496 -0.1841 -0.0036  0.0035
 1210loPI   C2B19358  10.256  14.311   5.854 -0.0342 -0.0393 -0.1687
 1210loPI   C3B19359  10.283  14.487   6.357  0.2260  0.1649 -0.1463
 1210loPI   C4B19360  10.280  14.587   6.749 -0.0255  0.1915  0.0523
 1211loPI    C119361   6.865   1.249   4.689  0.2882 -0.0197 -0.3506
 1211loPI    C219362   6.564   1.067   4.498  0.1762 -0.0265 -0.1697
 1211loPI    C319363   6.741   1.386   4.334 -0.1596  0.1900 -0.1228
 1211loPI   PO419364   6.836   1.290   4.928 -0.0902 -0.2001 -0.0620
 1211loPI   GL119365   6.674   1.272   5.318  0.0881 -0.1266 -0.2236
 1211loPI   GL219366   6.640   1.593   5.390  0.0979 -0.1651  0.1293
 1211loPI   C1A19367   6.783   1.131   5.618  0.1222 -0.0149 -0.1726
 1211loPI   C2A19368   7.096   1.223   5.840 -0.2598 -0.3754 -0.1939
 1211loPI   C3A19369   7.394   1.228   6.164  0.2032  0.1010  0.0047
 1211loPI   C4A19370   7.536   1.338   6.489  0.1879 -0.1486 -0.0010
 1211loPI   C5A19371   7.784   1.419   6.766  0.1161 -0.0753  0.2339
 1211loPI   C6A19372   8.021   1.328   7.120 -0.0308 -0.1679 -0.1358
 1211loPI   C1B19373   6.575   1.508   5.843 -0.1058 -0.1432  0.1077
 1211loPI   C2B19374   6.505   1.495   6.240  0.1418  0.3377  0.5680
 1211loPI   C3B19375   6.527   1.238   6.561  0.2944 -0.1931 -0.4236
 1211loPI   C4B19376   6.688   0.855   6.754 -0.2566 -0.0452 -0.1200
 1212loPI    C119377   9.546   7.074   5.250  0.0602 -0.1132  0.0645
 1212loPI    C219378   9.892   6.900   5.152  0.1148  0.0271  0.0060
 1212loPI    C319379   9.554   6.790   4.967  0.0855 -0.2879  0.2383
 1212loPI   PO419380   9.520   7.003   5.592 -0.0842  0.0696  0.2842
 1212loPI   GL119381   9.614   6.725   5.868 -0.0338 -0.0504  0.4766
 1212loPI   GL219382   9.935   6.863   5.779 -0.0686  0.0085  0.1845
 1212loPI   C1A19383   9.414   6.747   6.260  0.2506  0.0835 -0.0253
 1212loPI   C2A19384   9.089   6.863   6.317 -0.1477  0.2080 -0.1976
 1212loPI   C3A19385   8.775   7.068   6.585  0.0321 -0.3216  0.2726
 1212loPI   C4A19386   8.652   7.156   7.004  0.0104 -0.3520 -0.1712
 1212loPI   C5A19387   8.639   7.107   7.414  0.2568  0.0193 -0.0007
 1212loPI   C6A19388   8.742   6.938   7.835  0.2335 -0.3311 -0.1779
 1212loPI   C1B19389   9.999   6.687   6.216 -0.1001 -0.0046  0.2113
 1212loPI   C2B19390   9.823   6.817   6.626 -0.0723 -0.1373 -0.0347
 1212loPI   C3B19391   9.438   6.588   6.768  0.0856 -0.1655 -0.0049
 1212loPI   C4B19392   9.231   6.642   6.992  0.2460  0.0916  0.1911
 1213loPI    C119393  13.610  15.610   5.075 -0.0512 -0.0589 -0.1763
 1213loPI    C219394  13.290  15.448   5.251 -0.0256 -0.0213 -0.0948
 1213loPI    C319395  13.351  15.395   4.860 -0.1361 -0.0213 -0.1124
 1213loPI   PO419396  13.732  15.657   5.305  0.1152  0.1345  0.2033
 1213loPI   GL119397  13.640  15.642   5.800  0.0929 -0.0809  0.0532
 1213loPI   GL219398  14.002  15.474   5.645  0.1097  0.3348  0.3319
 1213loPI   C1A19399  13.374  15.771   6.166  0.1705  0.2743 -0.1064
 1213loPI   C2A19400  13.382  15.923   6.480  0.2375 -0.0141 -0.1649
 1213loPI   C3A19401  13.584  15.934   6.833  0.0626 -0.0977 -0.1581
 1213loPI   C4A19402  13.961  16.043   7.104 -0.1080  0.0698  0.2652
 1213loPI   C5A19403  14.429  16.046   7.312 -0.3805 -0.0907 -0.0361
 1213loPI   C6A19404  14.726  15.890   7.510  0.1238 -0.0502  0.0910
 1213loPI   C1B19405  13.945  15.297   6.041 -0.0582  0.2376 -0.1162
 1213loPI   C2B19406  13.870  15.232   6.532 -0.1144 -0.1443  0.0185
 1213loPI   C3B19407  13.648  15.366   7.042  0.0139 -0.2224  0.4108
 1213loPI   C4B19408  13.468  15.589   7.392  0.2795  0.1224  0.2194
 1214loPI    C119409   7.822   9.814   5.374 -0.1468  0.0598 -0.0783
 1214loPI    C219410   8.197   9.941   5.315 -0.0891 -0.0824 -0.0231
 1214loPI    C319411   8.074   9.597   5.151 -0.1776 -0.0658  0.0076
 1214loPI   PO419412   7.784   9.837   5.608 -0.2622  0.0083  0.0979
 1214loPI   GL119413   7.943   9.952   5.940 -0.0619  0.1046  0.0757
 1214loPI   GL219414   7.959  10.306   5.903 -0.1103 -0.1243  0.0961
 1214loPI   C1A19415   8.049   9.910   6.478 -0.1046  0.0530 -0.0655
 1214loPI   C2A19416   7.806   9.934   6.919  0.1887  0.0108  0.3028
 1214loPI   C3A19417   7.943  10.110   7.308  0.1602 -0.0948  0.1178
 1214loPI   C4A19418   8.351   9.921   7.615  0.1218  0.0400 -0.0720
 1214loPI   C5A19419   8.753   9.828   7.705  0.0178 -0.2491 -0.0801
 1214loPI   C6A19420   9.209   9.724   7.984 -0.0999 -0.2039 -0.1882
 1214loPI   C1B19421   7.986  10.408   6.351 -0.0274 -0.0183 -0.0999
 1214loPI   C2B19422   8.043  10.370   6.816 -0.1203  0.2524 -0.1169
 1214loPI   C3B19423   8.278  10.485   7.234  0.0640 -0.1224  0.3419
 1214loPI   C4B19424   8.301  10.844   7.389 -0.0663  0.0055  0.1764
 1215loPI    C119425  11.112  13.701   4.645 -0.2357  0.0928 -0.1805
 1215loPI    C219426  10.991  13.613   4.275 -0.1401  0.0396 -0.1995
 1215loPI    C319427  11.368  13.729   4.339 -0.0985 -0.1518 -0.0911
 1215loPI   PO419428  11.031  13.527   4.827 -0.0378  0.0969  0.1071
 1215loPI   GL119429  10.920  13.619   5.250 -0.1020  0.1939  0.0496
 1215loPI   GL219430  10.984  13.979   5.362  0.1537 -0.0578 -0.2624
 1215loPI   C1A19431  10.857  13.481   5.615 -0.1037  0.1363  0.0628
 1215loPI   C2A19432  10.788  13.527   5.981 -0.1477  0.4464 -0.1013
 1215loPI   C3A19433  10.759  13.588   6.464  0.0064 -0.0003  0.0495
 1215loPI   C4A19434  10.833  13.510   6.975  0.3097  0.0184 -0.2314
 1215loPI   C5A19435  10.750  13.435   7.375 -0.0625  0.2805 -0.0511
 1215loPI   C6A19436  10.781  13.362   7.765 -0.0073  0.0005  0.1882
 1215loPI   C1B19437  11.140  13.960   5.748  0.0245  0.1222 -0.0773
 1215loPI   C2B19438  11.037  13.894   6.132  0.0981 -0.3500 -0.1050
 1215loPI   C3B19439  11.003  14.034   6.638  0.1192  0.2444 -0.0674
 1215loPI   C4B19440  11.031  13.967   7.058 -0.0052 -0.1780  0.1975
 1216loPI    C119441   6.503   8.012   5.753  0.0404 -0.0510  0.1197
 1216loPI    C219442   6.895   8.091   5.762  0.0589 -0.1324  0.0397
 1216loPI    C319443   6.634   8.385   5.691  0.1152 -0.1053 -0.0578
 1216loPI   PO419444   6.492   7.752   5.578  0.0501 -0.1708  0.0563
 1216loPI   GL119445   6.401   7.469   5.839 -0.0690  0.3508 -0.1505
 1216loPI   GL219446   6.213   7.709   6.019  0.1363 -0.2212 -0.1870
 1216loPI   C1A19447   6.616   7.555   6.304  0.0893 -0.1304  0.0481
 1216loPI   C2A19448   6.566   7.597   6.734  0.0731 -0.0077 -0.0846
 1216loPI   C3A19449   6.508   7.485   7.180  0.1260 -0.3744 -0.0648
 1216loPI   C4A19450   6.404   7.371   7.441 -0.1440  0.1121 -0.1128
 1216loPI   C5A19451   6.362   7.572   7.810  0.1429  0.0069 -0.2104
 1216loPI   C6A19452   6.558   7.570   8.190  0.1967  0.0843 -0.1624
 1216loPI   C1B19453   6.063   7.714   6.452 -0.2174  0.2016  0.1207
 1216loPI   C2B19454   6.035   7.617   6.825 -0.1607 -0.0049 -0.0290
 1216loPI   C3B19455   5.980   7.725   7.219 -0.0901  0.0572 -0.3271
 1216loPI   C4B19456   6.162   7.954   7.531 -0.1936 -0.0025  0.0435
 1217loPI    C119457  12.349   0.435   4.723 -0.1241  0.1137 -0.0563
 1217loPI    C219458  12.303   0.427   4.326 -0.2855  0.0254 -0.0370
 1217loPI    C319459  12.236   0.766   4.528  0.2305  0.1935 -0.1324
 1217loPI   PO419460  12.640   0.297   4.755 -0.1326 -0.2402  0.2542
 1217loPI   GL119461  12.618   0.279   5.198 -0.0903 -0.1504 -0.0645
 1217loPI   GL219462  12.833   0.570   5.115 -0.0401 -0.2356  0.3650
 1217loPI   C1A19463  12.758   0.246   5.558  0.1273 -0.1818 -0.2207
 1217loPI   C2A19464  12.813   0.312   5.972 -0.2362 -0.1031  0.0074
 1217loPI   C3A19465  12.769   0.188   6.346 -0.3827  0.2341 -0.5386
 1217loPI   C4A19466  12.875   0.263   6.758 -0.0197  0.0398 -0.2598
 1217loPI   C5A19467  12.855   0.142   7.161 -0.0344 -0.0025 -0.1848
 1217loPI   C6A19468  12.609   0.102   7.591  0.1274  0.2532  0.2721
 1217loPI   C1B19469  12.642   0.847   5.539  0.4917 -0.0624  0.1637
 1217loPI   C2B19470  12.793   0.822   5.858 -0.0380  0.0929  0.2378
 1217loPI   C3B19471  12.761   0.772   6.319 -0.1931  0.2327 -0.0220
 1217loPI   C4B19472  12.759   0.747   6.760  0.3189 -0.1119  0.2039
 1218loPI    C119473   9.663  10.229   4.875 -0.0629 -0.1173  0.3039
 1218loPI    C219474   9.854  10.060   4.566  0.1481  0.2775  0.2122
 1218loPI    C319475   9.456  10.103   4.557  0.1560  0.3130 -0.0193
 1218loPI   PO419476   9.780  10.154   5.056 -0.1883 -0.1090 -0.1185
 1218loPI   GL119477   9.868  10.089   5.492 -0.2663 -0.1323  0.0228
 1218loPI   GL219478   9.966   9.853   5.657 -0.1126 -0.1124  0.3786
 1218loPI   C1A19479   9.810  10.325   5.909 -0.1355  0.0384 -0.0015
 1218loPI   C2A19480   9.965  10.702   6.252 -0.1006 -0.0342  0.0667
 1218loPI   C3A19481  10.123  10.847   6.682 -0.1845  0.0303 -0.2391
 1218loPI   C4A19482  10.242  10.666   7.155  0.2626  0.0948 -0.3654
 1218loPI   C5A19483  10.054  10.575   7.554  0.2709 -0.1566  0.0289
 1218loPI   C6A19484   9.949  10.403   7.909 -0.0723  0.2096  0.1845
 1218loPI   C1B19485   9.933   9.908   6.127  0.1128 -0.0209 -0.0193
 1218loPI   C2B19486   9.848  10.244   6.469  0.3033  0.1254 -0.0077
 1218loPI   C3B19487   9.825  10.491   6.755  0.2507  0.0893  0.0721
 1218loPI   C4B19488   9.676  10.817   7.005 -0.0640 -0.0052  0.1487
 1219loPI    C119489   5.945   6.605   5.109 -0.0369  0.1822 -0.1550
 1219loPI    C219490   6.054   6.238   4.993 -0.0592  0.1885 -0.1958
 1219loPI    C319491   5.679   6.365   4.933 -0.1037  0.1480 -0.0092
 1219loPI   PO419492   6.048   6.668   5.243 -0.3004 -0.2903  0.1558
 1219loPI   GL119493   6.221   6.341   5.445 -0.2504 -0.1466  0.1321
 1219loPI   GL219494   5.887   6.306   5.511 -0.3302  0.1240  0.4120
 1219loPI   C1A19495   6.445   6.463   5.799  0.0551  0.4034  0.1107
 1219loPI   C2A19496   6.439   6.421   6.256  0.2660 -0.0968 -0.1299
 1219loPI   C3A19497   6.456   6.414   6.660 -0.0498  0.0768  0.1289
 1219loPI   C4A19498   6.281   6.281   7.048 -0.3486  0.0658  0.3128
 1219loPI   C5A19499   6.353   6.286   7.431 -0.0487 -0.4224  0.0183
 1219loPI   C6A19500   6.462   6.313   7.981 -0.0755  0.1678  0.2144
 1219loPI   C1B19501   5.999   6.174   5.943  0.0999 -0.0067 -0.1462
 1219loPI   C2B19502   5.945   6.224   6.320  0.1652 -0.0532 -0.4153
 1219loPI   C3B19503   5.924   6.113   6.755 -0.3076 -0.0004 -0.2466
 1219loPI   C4B19504   5.876   6.051   7.232  0.2290  0.1261 -0.0077
 1220loPI    C119505   7.978   8.446   5.396  0.0423  0.0654 -0.0667
 1220loPI    C219506   7.665   8.203   5.339 -0.0099  0.1107  0.0237
 1220loPI    C319507   7.676   8.561   5.161  0.0682  0.0419 -0.1115
 1220loPI   PO419508   7.987   8.434   5.682 -0.3961  0.2372  0.2917
 1220loPI   GL119509   8.223   8.138   5.975 -0.1563 -0.0227 -0.0751
 1220loPI   GL219510   8.031   7.982   6.121 -0.1043  0.1268 -0.1842
 1220loPI   C1A19511   8.636   8.106   6.150 -0.1011  0.0697 -0.1999
 1220loPI   C2A19512   8.862   8.058   6.546  0.0256 -0.0387 -0.0202
 1220loPI   C3A19513   9.041   8.085   6.955  0.0955  0.2207  0.1935
 1220loPI   C4A19514   8.826   7.951   7.396 -0.1620 -0.2500  0.1325
 1220loPI   C5A19515   8.669   7.728   7.801 -0.2716 -0.0169 -0.1517
 1220loPI   C6A19516   8.276   7.741   8.073 -0.3918 -0.1383 -0.0189
 1220loPI   C1B19517   8.285   7.920   6.556  0.0389  0.1546  0.1295
 1220loPI   C2B19518   8.517   7.855   6.921  0.0270 -0.2340 -0.1038
 1220loPI   C3B19519   8.404   7.669   7.294 -0.1372 -0.0243 -0.3650
 1220loPI   C4B19520   8.087   7.682   7.603  0.1026  0.1300  0.1699
 1221loPI    C119521  17.810   9.736   4.860  0.2038  0.1756 -0.1245
 1221loPI    C219522  17.533   9.947   4.664 -0.2052 -0.2872 -0.0635
 1221loPI    C319523  17.742   9.665   4.472 -0.0626 -0.2176 -0.0116
 1221loPI   PO419524  17.711   9.714   5.073 -0.4355 -0.1703 -0.0046
 1221loPI   GL119525  17.798   9.730   5.584  0.2035 -0.1583 -0.2205
 1221loPI   GL219526  17.531   9.529   5.778 -0.2558 -0.0252  0.1650
 1221loPI   C1A19527  17.801   9.905   6.010 -0.1555  0.3274 -0.2994
 1221loPI   C2A19528  17.796  10.031   6.553 -0.0746  0.1806 -0.0157
 1221loPI   C3A19529  17.736   9.972   6.979 -0.1475  0.1039 -0.0645
 1221loPI   C4A19530  17.685  10.009   7.432  0.0512 -0.0088  0.0358
 1221loPI   C5A19531  17.753   9.811   7.814 -0.3363  0.1880  0.0743
 1221loPI   C6A19532  17.615   9.694   8.205  0.0660 -0.1694 -0.1321
 1221loPI   C1B19533  17.505   9.566   6.179 -0.2134  0.1246  0.2489
 1221loPI   C2B19534  17.417   9.677   6.663  0.0342  0.1449 -0.0103
 1221loPI   C3B19535  17.307   9.688   7.106  0.0616 -0.0174 -0.1533
 1221loPI   C4B19536  17.206   9.702   7.607  0.0018 -0.2059  0.0905
 1222loPI    C119537  17.812  15.409   5.018 -0.1500  0.0151 -0.1049
 1222loPI    C219538  18.064  15.715   5.076 -0.0774 -0.0974  0.1902
 1222loPI    C319539  17.777  15.742   4.799  0.2325  0.0474 -0.1246
 1222loPI   PO419540  17.810  15.301   5.307  0.2356 -0.2211 -0.0234
 1222loPI   GL119541  17.893  15.461   5.776 -0.1156  0.0689 -0.0415
 1222loPI   GL219542  17.638  15.349   5.858 -0.1460 -0.1832  0.0330
 1222loPI   C1A19543  18.133  15.214   6.119 -0.3367  0.0716  0.1071
 1222loPI   C2A19544  18.169  15.219   6.628  0.3745  0.1176  0.4911
 1222loPI   C3A19545  17.886  15.075   6.984  0.1111 -0.0729  0.3549
 1222loPI   C4A19546  17.861  15.117   7.410 -0.0011  0.2813  0.2196
 1222loPI   C5A19547  17.496  15.279   7.464  0.0125 -0.1824  0.2399
 1222loPI   C6A19548  17.259  15.240   7.920  0.3210 -0.1761 -0.2108
 1222loPI   C1B19549  17.467  15.712   6.079  0.0631  0.0463  0.1193
 1222loPI   C2B19550  17.655  15.917   6.430  0.3415 -0.1315 -0.2423
 1222loPI   C3B19551  17.688  16.071   6.802  0.1186  0.2941 -0.2876
 1222loPI   C4B19552  18.011  16.132   7.120  0.1360  0.0004  0.2228
 1223loPI    C119553  11.302   7.192   5.190 -0.0017  0.2506 -0.0208
 1223loPI    C219554  11.450   7.071   4.839  0.0755  0.2242  0.0206
 1223loPI    C319555  11.574   6.899   5.179 -0.2594  0.0041  0.0367
 1223loPI   PO419556  11.297   7.393   5.263  0.0389  0.0524 -0.0569
 1223loPI   GL119557  11.174   7.539   5.713  0.0353 -0.1160  0.2232
 1223loPI   GL219558  11.387   7.768   5.605  0.2212 -0.0528  0.1694
 1223loPI   C1A19559  11.310   7.245   5.957 -0.4749 -0.1637  0.1330
 1223loPI   C2A19560  11.405   7.042   6.363  0.2370 -0.4334  0.0626
 1223loPI   C3A19561  11.624   6.907   6.694  0.1436  0.0780 -0.0709
 1223loPI   C4A19562  11.705   6.682   7.053  0.2196 -0.1710  0.1414
 1223loPI   C5A19563  11.766   6.278   7.154 -0.0202  0.2682  0.0629
 1223loPI   C6A19564  11.627   6.315   7.639 -0.2450  0.0104 -0.2305
 1223loPI   C1B19565  11.332   7.930   6.052 -0.2172  0.0751 -0.0493
 1223loPI   C2B19566  11.137   8.124   6.305 -0.1866 -0.1428 -0.0867
 1223loPI   C3B19567  11.185   7.954   6.797 -0.1984  0.0016  0.0889
 1223loPI   C4B19568  11.001   7.787   7.102 -0.2946  0.1249  0.2167
 1224loPI    C119569   2.001  11.026   5.076  0.0814  0.2100 -0.0914
 1224loPI    C219570   1.955  10.820   4.736  0.1483  0.0140  0.0168
 1224loPI    C319571   1.774  11.173   4.782 -0.0680 -0.0769 -0.1232
 1224loPI   PO419572   2.180  10.932   5.185  0.3252  0.2998 -0.2866
 1224loPI   GL119573   2.410  11.111   5.509 -0.1191 -0.0333  0.1144
 1224loPI   GL219574   2.119  11.232   5.587 -0.0271  0.0355 -0.1039
 1224loPI   C1A19575   2.523  11.110   5.883  0.2546  0.1474 -0.3449
 1224loPI   C2A19576   2.524  11.058   6.367  0.0560 -0.1407 -0.0104
 1224loPI   C3A19577   2.510  11.137   6.794 -0.3572 -0.1657  0.0696
 1224loPI   C4A19578   2.377  10.939   7.191  0.2243  0.5360  0.0494
 1224loPI   C5A19579   1.988  10.969   7.440 -0.0671 -0.0098 -0.1901
 1224loPI   C6A19580   1.579  11.001   7.711 -0.0601 -0.0458  0.1926
 1224loPI   C1B19581   2.051  11.192   6.016  0.2067 -0.1245  0.0158
 1224loPI   C2B19582   1.997  11.204   6.514 -0.0389 -0.2012 -0.0754
 1224loPI   C3B19583   2.010  11.252   6.950  0.5938 -0.0808 -0.3080
 1224loPI   C4B19584   1.814  11.511   7.271 -0.2214 -0.0066 -0.0551
 1225loPI    C119585   9.818   4.749   4.536 -0.1744 -0.0072 -0.1204
 1225loPI    C219586   9.621   4.424   4.411 -0.1009 -0.0675 -0.0805
 1225loPI    C319587   9.970   4.523   4.242 -0.0120 -0.1368  0.0603
 1225loPI   PO419588   9.839   4.716   4.841 -0.1520  0.0795  0.1071
 1225loPI   GL119589   9.905   4.396   5.276  0.0029  0.0147  0.0366
 1225loPI   GL219590  10.195   4.265   5.222  0.2408  0.0252 -0.3871
 1225loPI   C1A19591  10.002   4.331   5.737  0.0445  0.0323  0.4183
 1225loPI   C2A19592  10.027   4.384   6.123 -0.0064  0.0590 -0.1304
 1225loPI   C3A19593   9.909   4.294   6.533  0.0562  0.1388 -0.0234
 1225loPI   C4A19594   9.908   4.167   6.995  0.1637  0.0187  0.0866
 1225loPI   C5A19595   9.882   4.292   7.397  0.0070  0.1027 -0.3520
 1225loPI   C6A19596   9.680   4.410   7.896  0.1929 -0.0041  0.2864
 1225loPI   C1B19597  10.418   4.087   5.577 -0.2973  0.0936 -0.3717
 1225loPI   C2B19598  10.369   4.036   6.039  0.3223 -0.0345  0.1652
 1225loPI   C3B19599  10.431   4.081   6.490 -0.1062 -0.4175 -0.1405
 1225loPI   C4B19600  10.311   3.965   6.855  0.4761  0.2447 -0.1999
 1226loPI    C119601  12.687   7.066   5.317  0.0813  0.5335  0.1128
 1226loPI    C219602  12.810   7.099   4.938 -0.2889  0.0363 -0.0607
 1226loPI    C319603  12.421   7.060   5.019 -0.2018 -0.0004  0.3628
 1226loPI   PO419604  12.807   6.929   5.469 -0.0542 -0.2437 -0.0924
 1226loPI   GL119605  12.774   6.781   5.876  0.0880  0.3273  0.0624
 1226loPI   GL219606  12.639   6.573   6.046  0.2394  0.0943  0.0510
 1226loPI   C1A19607  12.917   7.075   6.260  0.3072 -0.0699 -0.2447
 1226loPI   C2A19608  13.027   7.242   6.708 -0.2218 -0.1925 -0.3528
 1226loPI   C3A19609  12.712   7.531   6.962  0.1303 -0.1685  0.1419
 1226loPI   C4A19610  12.537   7.390   7.356  0.1322  0.2503  0.0529
 1226loPI   C5A19611  12.486   7.215   7.823  0.1108  0.1085 -0.0866
 1226loPI   C6A19612  12.174   7.470   8.085  0.0825  0.0143 -0.1238
 1226loPI   C1B19613  12.954   6.605   6.322  0.3450  0.1687  0.1560
 1226loPI   C2B19614  13.013   6.650   6.752 -0.2116 -0.2932  0.5912
 1226loPI   C3B19615  13.017   6.634   7.178 -0.1067 -0.0981 -0.0994
 1226loPI   C4B19616  13.053   6.628   7.604  0.0457 -0.2237  0.0572
 1227loPI    C119617  11.855   5.940   4.701 -0.1875  0.0736  0.1149
 1227loPI    C219618  12.191   6.157   4.693 -0.2554  0.1793  0.1099
 1227loPI    C319619  12.148   5.846   4.446 -0.1632  0.1679  0.1077
 1227loPI   PO419620  11.821   5.800   4.971  0.1186  0.4507 -0.0115
 1227loPI   GL119621  11.728   5.741   5.388  0.1092 -0.1358  0.1464
 1227loPI   GL219622  11.990   5.709   5.585 -0.3265  0.1086  0.1909
 1227loPI   C1A19623  11.541   5.707   5.736 -0.1458 -0.0064 -0.0361
 1227loPI   C2A19624  11.352   5.602   6.098  0.0434  0.1683  0.1733
 1227loPI   C3A19625  11.273   5.520   6.546  0.0361 -0.1389  0.1006
 1227loPI   C4A19626  11.195   5.569   7.059  0.1784  0.0281  0.1504
 1227loPI   C5A19627  11.099   5.506   7.519  0.1239 -0.2423 -0.0049
 1227loPI   C6A19628  11.232   5.532   7.872  0.1769 -0.0122 -0.0941
 1227loPI   C1B19629  12.182   5.627   6.016 -0.0576  0.0490  0.0142
 1227loPI   C2B19630  12.231   5.715   6.454  0.0965  0.1503  0.0813
 1227loPI   C3B19631  12.141   5.594   6.801 -0.1495  0.0921 -0.0947
 1227loPI   C4B19632  12.119   5.526   7.164 -0.1658  0.1309 -0.1718
 1228loPI    C119633  16.507  15.439   5.201 -0.1588 -0.0276  0.0616
 1228loPI    C219634  16.822  15.456   4.955  0.0168  0.0254  0.2864
 1228loPI    C319635  16.453  15.505   4.810  0.1051 -0.1043  0.0096
 1228loPI   PO419636  16.566  15.540   5.503 -0.1338 -0.0465  0.0317
 1228loPI   GL119637  16.451  15.426   5.886 -0.0901 -0.0662  0.0156
 1228loPI   GL219638  16.666  15.260   6.144 -0.0031 -0.2209 -0.3134
 1228loPI   C1A19639  16.192  15.463   6.225 -0.0429  0.1966  0.1618
 1228loPI   C2A19640  16.112  15.454   6.626  0.1882 -0.0594 -0.4025
 1228loPI   C3A19641  15.996  15.352   7.093  0.0218 -0.0164  0.1046
 1228loPI   C4A19642  15.863  15.409   7.508  0.1144 -0.2059 -0.2057
 1228loPI   C5A19643  15.923  15.314   7.871 -0.1413 -0.1170 -0.0764
 1228loPI   C6A19644  15.992  15.427   8.282  0.1944 -0.0553 -0.4967
 1228loPI   C1B19645  16.690  15.253   6.543  0.4460 -0.2754 -0.0944
 1228loPI   C2B19646  16.516  15.209   6.955 -0.1847 -0.0530 -0.2603
 1228loPI   C3B19647  16.613  15.031   7.300  0.0554 -0.1177  0.3162
 1228loPI   C4B19648  16.232  14.948   7.553 -0.1899 -0.0798  0.0234
 1229loPI    C119649  16.945  12.695   5.026 -0.2904 -0.3414 -0.2433
 1229loPI    C219650  16.781  13.048   4.933  0.4574  0.1312  0.1311
 1229loPI    C319651  16.803  12.759   4.657 -0.1479  0.3721 -0.1888
 1229loPI   PO419652  17.111  12.727   5.242 -0.2533 -0.0934 -0.1451
 1229loPI   GL119653  17.268  12.714   5.636  0.0515 -0.0230  0.3377
 1229loPI   GL219654  17.296  12.411   5.655 -0.2459 -0.0496 -0.0265
 1229loPI   C1A19655  17.733  12.717   5.857  0.2131 -0.0208 -0.3463
 1229loPI   C2A19656  18.063  12.660   6.196 -0.0168 -0.3612 -0.3078
 1229loPI   C3A19657  18.135  12.739   6.691 -0.0460  0.2125 -0.1873
 1229loPI   C4A19658  18.031  12.693   7.230  0.0998 -0.1578  0.1510
 1229loPI   C5A19659  18.019  12.829   7.588 -0.0855 -0.3600  0.2519
 1229loPI   C6A19660  17.827  12.827   7.914  0.1870  0.2561 -0.2920
 1229loPI   C1B19661  17.222  12.508   6.146 -0.0753 -0.2622 -0.0303
 1229loPI   C2B19662  17.248  12.428   6.615 -0.0306  0.3881  0.2018
 1229loPI   C3B19663  17.129  12.357   7.018 -0.0558 -0.1695  0.0383
 1229loPI   C4B19664  17.025  12.323   7.480 -0.3847  0.4561  0.0309
 1230loPI    C119665  15.287  10.492   5.409  0.0217  0.1026  0.1721
 1230loPI    C219666  15.059  10.818   5.365  0.1025  0.1227 -0.1164
 1230loPI    C319667  14.898  10.454   5.324  0.0330  0.1266  0.1091
 1230loPI   PO419668  15.526  10.519   5.295 -0.1689  0.1654 -0.0398
 1230loPI   GL119669  15.800  10.200   5.562 -0.0249 -0.1933 -0.1662
 1230loPI   GL219670  15.517  10.127   5.666  0.1581 -0.1341 -0.2409
 1230loPI   C1A19671  15.991  10.202   5.970  0.1491  0.1749 -0.1936
 1230loPI   C2A19672  15.854  10.089   6.453  0.1179 -0.2152 -0.2549
 1230loPI   C3A19673  15.874  10.137   6.870  0.0822  0.0220 -0.0178
 1230loPI   C4A19674  15.734  10.058   7.215  0.0925 -0.1052 -0.0050
 1230loPI   C5A19675  15.526  10.072   7.691 -0.0301  0.1112 -0.0728
 1230loPI   C6A19676  15.358  10.297   8.023  0.0648 -0.0513  0.3413
 1230loPI   C1B19677  15.459  10.160   6.152  0.0209 -0.0810 -0.0216
 1230loPI   C2B19678  15.413  10.318   6.633 -0.0337  0.0731 -0.1548
 1230loPI   C3B19679  15.262  10.270   7.126 -0.2069 -0.3939 -0.3345
 1230loPI   C4B19680  15.147  10.392   7.595 -0.1887  0.2602 -0.3278
 1231loPI    C119681   2.026   2.139   5.135 -0.0845 -0.0493  0.2557
 1231loPI    C219682   1.739   1.938   4.943  0.0746  0.0242 -0.0647
 1231loPI    C319683   1.687   2.325   5.030  0.0159 -0.0009  0.0133
 1231loPI   PO419684   2.247   1.956   5.075 -0.4032  0.0671  0.2111
 1231loPI   GL119685   2.541   1.804   5.307 -0.0714 -0.0805 -0.1068
 1231loPI   GL219686   2.361   1.862   5.544  0.1960  0.1275 -0.1462
 1231loPI   C1A19687   2.773   1.719   5.715  0.0410  0.0522  0.1601
 1231loPI   C2A19688   2.679   1.774   6.152  0.4855  0.3419 -0.1753
 1231loPI   C3A19689   2.803   1.675   6.502  0.2844  0.0273 -0.0242
 1231loPI   C4A19690   3.039   1.680   6.901 -0.2024  0.1731  0.0356
 1231loPI   C5A19691   3.090   1.694   7.301 -0.3631  0.1386 -0.0923
 1231loPI   C6A19692   2.974   1.349   7.506  0.3543  0.1696 -0.0384
 1231loPI   C1B19693   2.263   1.894   5.870  0.1105 -0.1639 -0.0588
 1231loPI   C2B19694   2.282   2.027   6.254 -0.0119  0.0935 -0.2786
 1231loPI   C3B19695   2.233   2.051   6.742  0.0281  0.1550 -0.0825
 1231loPI   C4B19696   2.176   1.909   7.103 -0.0451 -0.2897 -0.1700
 1232loPI    C119697   8.451   3.094   4.823 -0.0757  0.0836  0.1886
 1232loPI    C219698   8.372   3.456   4.672  0.0444  0.0811  0.1187
 1232loPI    C319699   8.285   3.128   4.461 -0.1115  0.0672  0.2034
 1232loPI   PO419700   8.403   3.111   5.148 -0.2308 -0.1835  0.2698
 1232loPI   GL119701   8.356   3.413   5.517  0.0996  0.0424  0.0443
 1232loPI   GL219702   8.460   3.129   5.658 -0.1268  0.0991  0.1046
 1232loPI   C1A19703   8.560   3.568   5.908 -0.1167  0.1294 -0.0825
 1232loPI   C2A19704   8.506   3.506   6.365  0.0319 -0.1623 -0.1205
 1232loPI   C3A19705   8.537   3.436   6.763 -0.1360  0.0529 -0.1424
 1232loPI   C4A19706   8.469   3.247   7.280 -0.1299 -0.0936 -0.0862
 1232loPI   C5A19707   8.492   3.097   7.636  0.0194  0.0479 -0.1612
 1232loPI   C6A19708   8.306   2.964   8.055  0.0452 -0.0762  0.0720
 1232loPI   C1B19709   8.506   2.983   6.024  0.1664  0.3221 -0.1597
 1232loPI   C2B19710   8.460   2.991   6.430  0.1145  0.3012  0.0086
 1232loPI   C3B19711   8.588   2.901   6.887 -0.0745  0.0953  0.1337
 1232loPI   C4B19712   8.655   2.720   7.239 -0.3196 -0.1608 -0.1359
 1233loPI    C119713   5.550   8.269   4.998 -0.0650 -0.0325  0.0447
 1233loPI    C219714   5.744   8.514   4.749 -0.0660 -0.1686 -0.0911
 1233loPI    C319715   5.396   8.627   4.910  0.1407  0.0921  0.1834
 1233loPI   PO419716   5.645   8.205   5.321 -0.2162  0.2486 -0.3894
 1233loPI   GL119717   5.478   7.994   5.695 -0.1670  0.0773  0.0361
 1233loPI   GL219718   5.754   8.177   5.895  0.1937 -0.0103  0.0282
 1233loPI   C1A19719   5.580   7.659   6.095 -0.0814 -0.0168 -0.1359
 1233loPI   C2A19720   5.615   7.517   6.521 -0.4587 -0.0377 -0.0093
 1233loPI   C3A19721   5.522   7.476   6.940  0.0774 -0.2164  0.1464
 1233loPI   C4A19722   5.516   7.419   7.312 -0.1328 -0.2138 -0.0180
 1233loPI   C5A19723   5.478   7.710   7.525 -0.0087  0.2576 -0.2374
 1233loPI   C6A19724   5.506   7.889   7.920 -0.1632 -0.0308 -0.1024
 1233loPI   C1B19725   5.713   8.053   6.326  0.1462 -0.4358 -0.0452
 1233loPI   C2B19726   5.660   7.941   6.729 -0.1867  0.0480 -0.0707
 1233loPI   C3B19727   5.611   8.035   7.072  0.0782  0.1381  0.1038
 1233loPI   C4B19728   5.678   8.241   7.516 -0.0815 -0.0252  0.1452
 1234loPI    C119729  14.923  11.928   5.029  0.2230 -0.0468 -0.1263
 1234loPI    C219730  14.606  12.129   5.166  0.2715  0.0324 -0.1298
 1234loPI    C319731  14.626  12.025   4.780  0.0489 -0.3523 -0.0425
 1234loPI   PO419732  14.984  11.710   5.184 -0.4770  0.1719  0.0151
 1234loPI   GL119733  15.079  11.807   5.555 -0.4235 -0.1742 -0.1053
 1234loPI   GL219734  15.089  11.982   5.874  0.0218  0.0838 -0.2651
 1234loPI   C1A19735  15.231  11.523   5.860  0.1202  0.1237  0.0394
 1234loPI   C2A19736  15.194  11.312   6.253  0.0206 -0.0198 -0.2950
 1234loPI   C3A19737  15.181  11.348   6.679 -0.0723 -0.1779 -0.0085
 1234loPI   C4A19738  15.122  11.266   7.119 -0.0543  0.1075 -0.0040
 1234loPI   C5A19739  15.008  11.222   7.451  0.1903  0.0893 -0.0531
 1234loPI   C6A19740  14.987  11.307   7.916 -0.1824  0.2715  0.2793
 1234loPI   C1B19741  15.088  11.824   6.275 -0.1950  0.0813  0.0938
 1234loPI   C2B19742  15.066  11.854   6.741  0.1046 -0.5150  0.0987
 1234loPI   C3B19743  15.042  11.775   7.116 -0.0069  0.3242 -0.0144
 1234loPI   C4B19744  14.987  11.709   7.533  0.1141 -0.1007  0.1090
 1235loPI    C119745  14.211   9.526   5.219 -0.0263  0.1182 -0.1047
 1235loPI    C219746  14.136   9.172   5.047  0.3015 -0.0708  0.1306
 1235loPI    C319747  14.284   9.473   4.829 -0.1641 -0.0109 -0.1141
 1235loPI   PO419748  14.354   9.432   5.477  0.1153 -0.1385  0.0862
 1235loPI   GL119749  14.262   9.599   5.868  0.2080 -0.1210 -0.3975
 1235loPI   GL219750  14.099   9.801   6.058 -0.1878  0.0221 -0.2112
 1235loPI   C1A19751  14.548   9.532   6.271  0.1567  0.1677  0.1683
 1235loPI   C2A19752  14.565   9.624   6.694  0.2897  0.1326 -0.1266
 1235loPI   C3A19753  14.533   9.476   7.101 -0.0534  0.0835  0.0284
 1235loPI   C4A19754  14.464   9.591   7.526  0.0093 -0.2036  0.4441
 1235loPI   C5A19755  14.048   9.324   7.717 -0.1915 -0.0991 -0.0100
 1235loPI   C6A19756  13.842   9.341   8.079 -0.0214 -0.0619 -0.0304
 1235loPI   C1B19757  14.130   9.811   6.453 -0.0523  0.0744 -0.1749
 1235loPI   C2B19758  14.098   9.745   6.804 -0.2225  0.0303 -0.2227
 1235loPI   C3B19759  14.086   9.695   7.187  0.2370  0.1565 -0.0955
 1235loPI   C4B19760  13.992   9.830   7.614 -0.0772 -0.5863 -0.0023
 1236loPI    C119761   3.758  14.024   4.811  0.1466  0.0636  0.1446
 1236loPI    C219762   4.104  13.822   4.810  0.0256 -0.1469  0.0110
 1236loPI    C319763   3.783  13.670   4.626 -0.0209  0.2545 -0.2543
 1236loPI   PO419764   3.723  14.084   5.050 -0.2490  0.1412 -0.0013
 1236loPI   GL119765   3.714  14.142   5.463 -0.1777  0.1261  0.1824
 1236loPI   GL219766   3.900  14.471   5.602  0.1373  0.0079 -0.0214
 1236loPI   C1A19767   3.836  14.101   5.936 -0.0777  0.2235 -0.3445
 1236loPI   C2A19768   3.835  14.019   6.418 -0.2394  0.1380  0.1211
 1236loPI   C3A19769   4.007  14.019   6.752 -0.3420 -0.0798 -0.3027
 1236loPI   C4A19770   4.378  13.783   6.998 -0.2000 -0.2817 -0.2594
 1236loPI   C5A19771   4.361  13.552   7.376 -0.3106 -0.1774  0.2660
 1236loPI   C6A19772   3.960  13.476   7.684  0.1572 -0.0192  0.0557
 1236loPI   C1B19773   3.785  14.661   6.097  0.0806  0.3255 -0.0207
 1236loPI   C2B19774   3.768  14.514   6.542  0.4325 -0.0104 -0.1262
 1236loPI   C3B19775   3.682  14.303   6.977  0.2015  0.1435  0.2179
 1236loPI   C4B19776   3.571  14.243   7.496 -0.1980 -0.0168  0.1585
 1237loPI    C119777  12.162   7.412   5.301 -0.0755 -0.0417  0.0224
 1237loPI    C219778  11.856   7.301   5.068 -0.1233 -0.1351  0.1285
 1237loPI    C319779  12.175   7.482   4.908 -0.2092 -0.0885  0.0091
 1237loPI   PO419780  12.164   7.149   5.494  0.2044 -0.0755  0.0674
 1237loPI   GL119781  12.323   6.972   5.864 -0.1047 -0.2313 -0.1241
 1237loPI   GL219782  12.439   7.119   6.140 -0.1137  0.0182  0.3454
 1237loPI   C1A19783  12.134   6.721   6.314  0.0521 -0.0525  0.0748
 1237loPI   C2A19784  12.137   6.709   6.685 -0.0105  0.1762 -0.2465
 1237loPI   C3A19785  12.172   6.578   7.024  0.0774 -0.2364 -0.0606
 1237loPI   C4A19786  12.075   6.529   7.450  0.3137  0.2064 -0.0721
 1237loPI   C5A19787  12.227   6.714   7.755 -0.0756 -0.2486  0.0617
 1237loPI   C6A19788  12.264   6.938   8.200  0.1999 -0.3199 -0.1047
 1237loPI   C1B19789  12.572   6.894   6.560  0.1006 -0.1268 -0.1175
 1237loPI   C2B19790  12.683   6.967   6.938 -0.1568  0.0553 -0.2546
 1237loPI   C3B19791  12.919   7.123   7.175 -0.1376 -0.0003 -0.1192
 1237loPI   C4B19792  12.953   7.262   7.610 -0.2435  0.0468  0.2579
 1238loPI    C119793   4.564  15.206   4.588  0.0012  0.1478  0.0130
 1238loPI    C219794   4.383  14.879   4.446  0.0215  0.0764  0.1499
 1238loPI    C319795   4.266  15.242   4.325 -0.2119  0.0310  0.2348
 1238loPI   PO419796   4.651  15.122   4.874  0.3242  0.2035  0.2226
 1238loPI   GL119797   4.542  14.948   5.260  0.0803  0.1931 -0.0279
 1238loPI   GL219798   4.832  14.970   5.380 -0.0979  0.1451 -0.1460
 1238loPI   C1A19799   4.207  15.166   5.481 -0.1280 -0.0549  0.3296
 1238loPI   C2A19800   4.249  15.147   5.952  0.0188  0.0274 -0.0506
 1238loPI   C3A19801   4.057  14.997   6.310  0.1754 -0.1233 -0.0658
 1238loPI   C4A19802   4.073  14.866   6.740  0.0687 -0.1328 -0.0042
 1238loPI   C5A19803   4.040  14.823   7.127  0.3723  0.2735 -0.0209
 1238loPI   C6A19804   3.994  14.544   7.490  0.0883 -0.0158  0.2153
 1238loPI   C1B19805   4.937  15.015   5.755 -0.1952 -0.2475  0.3072
 1238loPI   C2B19806   4.868  15.204   6.101 -0.0152  0.0429 -0.0995
 1238loPI   C3B19807   4.573  15.391   6.362 -0.3536  0.0870  0.0558
 1238loPI   C4B19808   4.544  15.584   6.803  0.2269  0.1033 -0.1871
 1239loPI    C119809  15.054   1.396   4.760 -0.1885 -0.0639 -0.0062
 1239loPI    C219810  14.943   1.768   4.661  0.0090 -0.0257 -0.0904
 1239loPI    C319811  14.937   1.477   4.386  0.1004 -0.0268 -0.0915
 1239loPI   PO419812  15.101   1.414   5.063 -0.0657  0.1414 -0.2341
 1239loPI   GL119813  14.858   1.296   5.418 -0.1473  0.1660  0.4089
 1239loPI   GL219814  14.763   1.519   5.608  0.1041  0.0616  0.0442
 1239loPI   C1A19815  14.889   1.069   5.825  0.3874  0.1120 -0.1123
 1239loPI   C2A19816  14.950   1.185   6.269  0.0077  0.2283 -0.1145
 1239loPI   C3A19817  14.906   1.169   6.732  0.3603 -0.0735  0.0247
 1239loPI   C4A19818  15.001   1.116   7.165  0.1021  0.1143 -0.2781
 1239loPI   C5A19819  14.988   0.935   7.615 -0.0770 -0.3862  0.0302
 1239loPI   C6A19820  14.853   0.987   7.997 -0.1607  0.0725  0.1694
 1239loPI   C1B19821  14.791   1.613   6.079 -0.0794 -0.0454 -0.0623
 1239loPI   C2B19822  14.895   1.675   6.547 -0.0237  0.1350 -0.1381
 1239loPI   C3B19823  14.892   1.621   6.958  0.1784  0.0052 -0.2526
 1239loPI   C4B19824  14.871   1.763   7.377  0.1771 -0.1812 -0.0979
 1240loPI    C119825   3.440   3.172   4.777  0.0900 -0.2837 -0.1324
 1240loPI    C219826   3.708   2.968   4.561  0.0305 -0.1486 -0.3372
 1240loPI    C319827   3.377   3.109   4.387  0.0396  0.0665 -0.1844
 1240loPI   PO419828   3.398   3.049   4.944  0.1298 -0.1655 -0.1745
 1240loPI   GL119829   3.377   2.930   5.270  0.0960  0.1689 -0.1081
 1240loPI   GL219830   3.116   2.856   5.255  0.0023  0.1653 -0.3178
 1240loPI   C1A19831   3.587   2.992   5.659 -0.0407 -0.3151 -0.3627
 1240loPI   C2A19832   3.735   2.943   6.097 -0.0352 -0.0225  0.0740
 1240loPI   C3A19833   3.618   2.845   6.596  0.2121 -0.0844 -0.1952
 1240loPI   C4A19834   3.778   2.737   6.990  0.1263 -0.3247  0.2418
 1240loPI   C5A19835   3.834   2.315   7.233 -0.2203 -0.1272 -0.0757
 1240loPI   C6A19836   4.276   2.185   7.311 -0.0860 -0.2267 -0.0015
 1240loPI   C1B19837   2.949   2.930   5.600  0.1787 -0.4092 -0.1518
 1240loPI   C2B19838   2.685   2.824   6.021 -0.2419 -0.3101 -0.4021
 1240loPI   C3B19839   2.732   2.815   6.466 -0.0342 -0.0500  0.0273
 1240loPI   C4B19840   2.670   2.950   6.966 -0.3110  0.0816  0.1759
 1241loPI    C119841   8.184  13.553   4.620 -0.0420 -0.2390 -0.1374
 1241loPI    C219842   7.981  13.221   4.711 -0.3772 -0.0046 -0.0068
 1241loPI    C319843   8.051  13.314   4.329 -0.0214 -0.3718 -0.0389
 1241loPI   PO419844   8.380  13.479   4.813 -0.3600 -0.0654 -0.0687
 1241loPI   GL119845   8.597  13.488   5.183  0.0896 -0.1166 -0.1686
 1241loPI   GL219846   8.410  13.850   5.124  0.0655  0.2668  0.0525
 1241loPI   C1A19847   8.730  13.569   5.483 -0.0455  0.1199  0.2499
 1241loPI   C2A19848   8.688  13.659   5.882 -0.0748  0.2731 -0.1198
 1241loPI   C3A19849   8.710  13.595   6.239  0.3681 -0.1393 -0.0200
 1241loPI   C4A19850   8.709  13.684   6.619 -0.0239  0.2887 -0.0731
 1241loPI   C5A19851   8.763  13.783   7.122  0.1140 -0.1632  0.0416
 1241loPI   C6A19852   8.745  14.252   7.326 -0.1565 -0.1406 -0.1120
 1241loPI   C1B19853   8.545  14.011   5.421 -0.1706  0.0044  0.0627
 1241loPI   C2B19854   8.533  14.105   5.855 -0.2797  0.0179 -0.0468
 1241loPI   C3B19855   8.532  14.129   6.264 -0.0056  0.0165 -0.0889
 1241loPI   C4B19856   8.476  14.212   6.713 -0.3059  0.0811 -0.1651
 1242loPI    C119857  16.450   2.412   5.202 -0.0183  0.1059 -0.1322
 1242loPI    C219858  16.253   2.146   4.976  0.0535  0.2000 -0.3079
 1242loPI    C319859  16.653   2.147   4.980  0.0533  0.0978 -0.0577
 1242loPI   PO419860  16.303   2.365   5.457  0.2048 -0.0489 -0.2642
 1242loPI   GL119861  16.191   2.287   5.740 -0.0989 -0.1004 -0.0891
 1242loPI   GL219862  16.189   1.959   5.772  0.0256  0.1546 -0.2150
 1242loPI   C1A19863  16.341   2.485   6.108 -0.3541  0.0860 -0.1082
 1242loPI   C2A19864  16.508   2.492   6.351 -0.1242 -0.0438 -0.0216
 1242loPI   C3A19865  16.604   2.502   6.820  0.2593  0.0104 -0.1044
 1242loPI   C4A19866  16.654   2.465   7.292 -0.0023  0.0603  0.3108
 1242loPI   C5A19867  16.628   2.394   7.717  0.1406 -0.1740  0.2015
 1242loPI   C6A19868  16.597   2.030   7.902 -0.3347  0.0876  0.1192
 1242loPI   C1B19869  16.424   1.936   6.192  0.0041 -0.0689 -0.2592
 1242loPI   C2B19870  16.597   1.974   6.550 -0.0882  0.0850  0.0819
 1242loPI   C3B19871  16.640   2.019   6.973 -0.3039 -0.0679 -0.3920
 1242loPI   C4B19872  16.784   1.991   7.391 -0.0079  0.0452 -0.1183
 1243loPI    C119873   7.417   0.862   5.141 -0.0861  0.0514  0.0738
 1243loPI    C219874   7.115   0.925   4.887  0.0257  0.0637 -0.0570
 1243loPI    C319875   7.042   0.885   5.278 -0.1566 -0.0426 -0.1006
 1243loPI   PO419876   7.625   0.970   5.052  0.2225 -0.1687  0.0766
 1243loPI   GL119877   7.868   0.902   5.313 -0.0780  0.2063 -0.1649
 1243loPI   GL219878   8.024   1.152   5.437  0.0922  0.1863 -0.1251
 1243loPI   C1A19879   7.960   0.698   5.658 -0.0362 -0.1258  0.1098
 1243loPI   C2A19880   8.004   0.430   6.056  0.2420  0.0510 -0.0756
 1243loPI   C3A19881   8.098   0.439   6.501 -0.1609 -0.2520 -0.2190
 1243loPI   C4A19882   7.837   0.648   6.951  0.0087  0.1054 -0.2665
 1243loPI   C5A19883   7.637   0.623   7.309  0.2877 -0.1156  0.0467
 1243loPI   C6A19884   7.803   0.401   7.675 -0.2027  0.1941  0.1326
 1243loPI   C1B19885   8.136   1.192   5.916 -0.1067  0.1568 -0.1823
 1243loPI   C2B19886   7.990   1.204   6.359 -0.0269 -0.0806 -0.0089
 1243loPI   C3B19887   8.038   0.983   6.654  0.0482 -0.0631 -0.3786
 1243loPI   C4B19888   8.219   0.913   7.075  0.1600  0.3357 -0.2953
 1244loPI    C119889   9.528  12.126   4.597  0.1410  0.0222 -0.1570
 1244loPI    C219890   9.516  12.228   4.211  0.0008 -0.1122 -0.1891
 1244loPI    C319891   9.561  11.845   4.315 -0.1080 -0.0943 -0.0733
 1244loPI   PO419892   9.617  12.349   4.827  0.3620  0.0910  0.0752
 1244loPI   GL119893   9.517  12.396   5.261 -0.0855  0.0007  0.2925
 1244loPI   GL219894   9.667  12.578   5.285  0.0048 -0.2688  0.3040
 1244loPI   C1A19895   9.325  12.315   5.630 -0.0973  0.0331  0.0110
 1244loPI   C2A19896   9.373  12.235   6.060  0.2857  0.2087  0.0451
 1244loPI   C3A19897   9.390  12.248   6.553 -0.1349 -0.0954  0.1221
 1244loPI   C4A19898   9.277  12.188   6.941  0.2862  0.0351  0.0931
 1244loPI   C5A19899   9.291  11.870   7.255 -0.0472  0.2142  0.1132
 1244loPI   C6A19900   9.460  11.881   7.624 -0.3890 -0.1897  0.1969
 1244loPI   C1B19901   9.685  12.640   5.775 -0.2179  0.0826  0.1619
 1244loPI   C2B19902   9.711  12.690   6.254  0.1928 -0.0239 -0.0051
 1244loPI   C3B19903   9.690  12.715   6.718  0.2602  0.0343  0.4388
 1244loPI   C4B19904   9.601  12.747   7.186  0.0467  0.0241  0.0456
 1245loPI    C119905  16.728   7.595   5.325  0.1428 -0.3692  0.1308
 1245loPI    C219906  16.983   7.802   5.553 -0.1046 -0.1829  0.2441
 1245loPI    C319907  17.043   7.776   5.158  0.1421 -0.2259  0.2827
 1245loPI   PO419908  16.494   7.603   5.520  0.0230  0.3108 -0.0362
 1245loPI   GL119909  16.307   7.604   5.910 -0.0300 -0.2306  0.0322
 1245loPI   GL219910  16.581   7.648   6.188 -0.0254  0.2072 -0.1927
 1245loPI   C1A19911  16.033   7.593   6.314 -0.2615  0.1571 -0.1371
 1245loPI   C2A19912  15.693   7.715   6.513  0.1036  0.2764 -0.4393
 1245loPI   C3A19913  15.517   7.847   6.849  0.2670 -0.1259 -0.0946
 1245loPI   C4A19914  15.299   7.898   7.200  0.0015  0.1295 -0.1352
 1245loPI   C5A19915  15.108   8.047   7.625  0.0143 -0.4312 -0.0700
 1245loPI   C6A19916  14.992   8.067   8.098  0.1517  0.0250  0.1183
 1245loPI   C1B19917  16.495   7.469   6.618 -0.2269  0.1561  0.2313
 1245loPI   C2B19918  16.690   7.258   6.996  0.3710 -0.0190 -0.1505
 1245loPI   C3B19919  16.637   6.940   7.382  0.0288  0.0738  0.1447
 1245loPI   C4B19920  16.643   6.591   7.562 -0.1982  0.2567  0.1003
 1246loPI    C119921   8.423   4.520   4.997  0.1359 -0.1531 -0.1266
 1246loPI    C219922   8.121   4.765   4.900  0.0536 -0.2524 -0.1232
 1246loPI    C319923   8.129   4.391   4.757  0.1498 -0.2656 -0.0838
 1246loPI   PO419924   8.473   4.490   5.221 -0.1123 -0.2459  0.3180
 1246loPI   GL119925   8.805   4.636   5.439 -0.0841  0.0400  0.0080
 1246loPI   GL219926   9.007   4.854   5.431 -0.3907  0.4678  0.0052
 1246loPI   C1A19927   8.694   4.550   5.828  0.0416 -0.3101 -0.2834
 1246loPI   C2A19928   8.619   4.508   6.221  0.0519  0.4693 -0.0836
 1246loPI   C3A19929   8.542   4.627   6.639 -0.0479 -0.0115  0.0111
 1246loPI   C4A19930   8.517   4.510   7.057  0.2918  0.0225 -0.0402
 1246loPI   C5A19931   8.463   4.444   7.523  0.2179 -0.2014  0.2296
 1246loPI   C6A19932   8.255   4.312   7.893 -0.2687 -0.2311  0.0499
 1246loPI   C1B19933   9.059   4.855   5.853  0.1288  0.2814  0.1107
 1246loPI   C2B19934   9.075   4.740   6.310  0.1666 -0.0275 -0.2248
 1246loPI   C3B19935   8.992   4.729   6.783  0.2216  0.1201 -0.0643
 1246loPI   C4B19936   9.058   4.727   7.184  0.0246  0.1845 -0.2420
 1247loPI    C119937  14.746   7.780   5.463  0.1515  0.2427 -0.0644
 1247loPI    C219938  14.846   7.642   5.101  0.3034  0.1071  0.0277
 1247loPI    C319939  14.700   7.392   5.377 -0.0963  0.2636 -0.0343
 1247loPI   PO419940  14.825   7.961   5.570  0.1402 -0.2029 -0.2729
 1247loPI   GL119941  14.986   8.068   5.877 -0.0144 -0.2245  0.2140
 1247loPI   GL219942  15.209   7.809   5.852  0.2379 -0.1488 -0.2155
 1247loPI   C1A19943  14.691   7.944   6.205 -0.2256 -0.1508 -0.2779
 1247loPI   C2A19944  14.427   8.118   6.532 -0.2467  0.0014  0.2486
 1247loPI   C3A19945  14.335   8.120   6.952 -0.0941 -0.1282  0.0392
 1247loPI   C4A19946  14.152   8.111   7.280  0.0534  0.0873 -0.3503
 1247loPI   C5A19947  13.993   8.205   7.649 -0.0772 -0.1041  0.2409
 1247loPI   C6A19948  13.774   8.389   7.880 -0.2827 -0.0264 -0.0726
 1247loPI   C1B19949  15.241   7.895   6.307 -0.0692 -0.0997  0.2099
 1247loPI   C2B19950  15.035   7.820   6.683  0.3314 -0.3209  0.1928
 1247loPI   C3B19951  14.891   7.973   6.980 -0.0879 -0.6538 -0.3303
 1247loPI   C4B19952  14.651   7.914   7.339  0.1453  0.2380 -0.1270
 1248loPI    C119953   2.860  11.332   5.167 -0.1730 -0.1649  0.1290
 1248loPI    C219954   2.684  10.979   5.100  0.2210 -0.2890 -0.3058
 1248loPI    C319955   2.846  11.183   4.796  0.4435  0.0277  0.0169
 1248loPI   PO419956   3.042  11.210   5.357 -0.0395  0.2656 -0.1226
 1248loPI   GL119957   3.119  11.033   5.695 -0.0368 -0.0017 -0.4658
 1248loPI   GL219958   3.205  11.373   5.770  0.2852  0.0586  0.1091
 1248loPI   C1A19959   2.996  11.019   6.106  0.0447  0.1359 -0.0394
 1248loPI   C2A19960   2.937  10.847   6.424 -0.0583  0.2047 -0.3842
 1248loPI   C3A19961   2.784  10.649   6.882  0.0295 -0.3267  0.2930
 1248loPI   C4A19962   2.817  10.656   7.333  0.0618 -0.0145  0.1076
 1248loPI   C5A19963   2.456  10.743   7.767  0.1867  0.0638  0.2483
 1248loPI   C6A19964   2.037  10.838   7.910  0.0218 -0.0425 -0.3496
 1248loPI   C1B19965   3.375  11.366   6.192 -0.1213 -0.0900 -0.0177
 1248loPI   C2B19966   3.287  11.167   6.591  0.1635  0.0088  0.1435
 1248loPI   C3B19967   3.168  10.998   6.889  0.0428  0.1200  0.1626
 1248loPI   C4B19968   3.291  10.755   7.263  0.2073  0.0215  0.3807
 1249loPI    C119969   9.692   2.528   4.709 -0.2257  0.0423  0.0117
 1249loPI    C219970   9.572   2.181   4.869  0.0135  0.0141  0.1337
 1249loPI    C319971   9.672   2.199   4.482 -0.0287 -0.0460  0.1199
 1249loPI   PO419972   9.904   2.695   4.874  0.1670  0.2756  0.3349
 1249loPI   GL119973   9.780   2.830   5.168  0.0302 -0.0083 -0.1440
 1249loPI   GL219974   9.385   2.844   5.125  0.2921 -0.1712 -0.0074
 1249loPI   C1A19975   9.831   2.712   5.517  0.1903  0.1180 -0.1079
 1249loPI   C2A19976   9.883   2.736   6.009  0.1947  0.2761 -0.3066
 1249loPI   C3A19977   9.881   2.722   6.429  0.0476 -0.0677  0.1941
 1249loPI   C4A19978   9.912   2.748   6.812  0.4810 -0.2217  0.1736
 1249loPI   C5A19979   9.816   2.809   7.359 -0.1073  0.0734  0.2145
 1249loPI   C6A19980   9.585   3.073   7.698 -0.2599  0.2473 -0.0380
 1249loPI   C1B19981   9.471   3.118   5.448 -0.0417 -0.0211  0.0728
 1249loPI   C2B19982   9.394   3.081   5.884  0.0645  0.2862 -0.3001
 1249loPI   C3B19983   9.371   2.989   6.259  0.2275  0.0460 -0.1479
 1249loPI   C4B19984   9.466   2.938   6.639  0.1020  0.0141 -0.1456
 1250loPI    C119985  15.283  16.379   5.159 -0.2482 -0.1643 -0.0732
 1250loPI    C219986  15.516  16.627   4.949 -0.2828 -0.1464 -0.0903
 1250loPI    C319987  15.257  16.388   4.760 -0.0536 -0.3973 -0.0934
 1250loPI   PO419988  15.213  16.541   5.360  0.2142 -0.3561 -0.1127
 1250loPI   GL119989  15.160  16.391   5.717 -0.0205 -0.0344  0.0813
 1250loPI   GL219990  15.131  16.069   5.540  0.0852 -0.2197  0.0006
 1250loPI   C1A19991  15.023  16.426   6.012  0.2402 -0.3326  0.1585
 1250loPI   C2A19992  14.833  16.433   6.328  0.0199 -0.5255  0.1741
 1250loPI   C3A19993  14.791  16.403   6.709 -0.1134  0.5682 -0.1353
 1250loPI   C4A19994  14.728  16.399   7.126 -0.0956 -0.0596  0.0606
 1250loPI   C5A19995  14.916  16.370   7.435  0.1121 -0.0332 -0.0112
 1250loPI   C6A19996  14.856  16.146   7.952  0.2217  0.0390  0.0064
 1250loPI   C1B19997  15.417  16.030   5.911 -0.1474 -0.0551  0.0331
 1250loPI   C2B19998  15.386  16.258   6.302  0.1249  0.2245  0.0743
 1250loPI   C3B19999  15.289  16.475   6.641  0.0356  0.1370 -0.0949
 1250loPI   C4B20000  15.229  16.569   7.068 -0.2138  0.0561 -0.1012
 1251loPI    C120001  17.546  16.365   5.202  0.1792  0.0961  0.1955
 1251loPI    C220002  17.865  16.126   5.169  0.2679  0.2136  0.1975
 1251loPI    C320003  17.669  16.244   4.841  0.1176 -0.0032  0.2073
 1251loPI   PO420004  17.377  16.268   5.395  0.1483  0.1319  0.3186
 1251loPI   GL120005  17.211  16.547   5.623 -0.0342  0.0466  0.0814
 1251loPI   GL220006  16.894  16.436   5.713  0.0105  0.2162  0.0322
 1251loPI   C1A20007  17.325  16.706   6.005 -0.1094  0.1204 -0.2261
 1251loPI   C2A20008  17.232  17.136   6.113 -0.1384  0.1568  0.4560
 1251loPI   C3A20009  17.195  17.555   6.197 -0.0291 -0.0433  0.3133
 1251loPI   C4A20010  17.165  17.739   6.735 -0.0708 -0.1274  0.0964
 1251loPI   C5A20011  17.225  17.690   7.067 -0.0567  0.3244 -0.0385
 1251loPI   C6A20012  17.260  17.353   7.479 -0.1860 -0.3959 -0.0172
 1251loPI   C1B20013  16.891  16.174   6.137  0.3621  0.0788 -0.1382
 1251loPI   C2B20014  17.075  16.061   6.520  0.2320  0.0343 -0.0347
 1251loPI   C3B20015  17.013  15.976   6.959  0.0400  0.2897  0.1431
 1251loPI   C4B20016  17.080  15.979   7.384  0.0393 -0.1440 -0.4477
 1252loPI    C120017   4.831   6.892   4.719  0.0422  0.0553 -0.0629
 1252loPI    C220018   5.136   6.869   4.462  0.1731  0.3056  0.0658
 1252loPI    C320019   4.815   7.089   4.372  0.0423  0.0694 -0.0548
 1252loPI   PO420020   4.939   6.913   4.940  0.2125 -0.0071 -0.0018
 1252loPI   GL120021   4.845   7.052   5.367 -0.3279  0.1979  0.0700
 1252loPI   GL220022   4.606   6.671   5.389 -0.2674  0.0538  0.0589
 1252loPI   C1A20023   5.055   6.958   5.775 -0.0420 -0.1979 -0.0211
 1252loPI   C2A20024   5.158   6.826   6.214 -0.0241 -0.0286 -0.1340
 1252loPI   C3A20025   5.070   6.706   6.589 -0.0211  0.0541  0.4179
 1252loPI   C4A20026   5.114   6.590   7.013 -0.1723 -0.0481  0.0017
 1252loPI   C5A20027   5.008   6.696   7.332  0.0506 -0.1759  0.0623
 1252loPI   C6A20028   4.559   6.662   7.462  0.0731 -0.2146 -0.1430
 1252loPI   C1B20029   4.614   6.741   5.871 -0.0185  0.0203 -0.2155
 1252loPI   C2B20030   4.610   6.591   6.283 -0.2356  0.0082 -0.0553
 1252loPI   C3B20031   4.652   6.501   6.723  0.4621 -0.0606  0.0101
 1252loPI   C4B20032   4.692   6.286   7.113 -0.0152  0.2690 -0.0683
 1253loPI    C120033   8.745  11.174   5.066 -0.1225 -0.2140  0.1166
 1253loPI    C220034   8.971  11.038   5.367  0.0542 -0.1881 -0.0029
 1253loPI    C320035   9.062  10.942   4.989 -0.1407 -0.1845 -0.0518
 1253loPI   PO420036   8.704  11.477   5.132  0.1014  0.3487  0.2897
 1253loPI   GL120037   8.407  11.552   5.483 -0.2055  0.3769  0.0701
 1253loPI   GL220038   8.508  11.250   5.574 -0.0967  0.0248  0.0620
 1253loPI   C1A20039   8.745  11.752   5.723 -0.1733 -0.1700 -0.1518
 1253loPI   C2A20040   9.064  11.782   5.935 -0.2328 -0.1430 -0.1740
 1253loPI   C3A20041   9.189  11.779   6.313 -0.2192 -0.2660 -0.0441
 1253loPI   C4A20042   9.008  11.778   6.726  0.0726 -0.0743 -0.0276
 1253loPI   C5A20043   8.842  11.721   7.126  0.0486  0.0690 -0.0573
 1253loPI   C6A20044   8.666  11.679   7.516 -0.2330  0.0432  0.1041
 1253loPI   C1B20045   8.416  11.265   6.037  0.0640 -0.1689  0.1872
 1253loPI   C2B20046   8.500  11.005   6.406 -0.2342  0.1308  0.0669
 1253loPI   C3B20047   8.801  10.786   6.711  0.0124  0.0296  0.0668
 1253loPI   C4B20048   8.765  10.720   7.201 -0.2200 -0.1791  0.2186
 1254loPI    C120049  12.118   3.727   4.726  0.1336  0.1114  0.1408
 1254loPI    C220050  12.095   3.679   4.330 -0.0204  0.1150  0.1484
 1254loPI    C320051  12.439   3.608   4.521  0.0367  0.0509  0.0227
 1254loPI   PO420052  12.056   3.947   4.771  0.0291  0.1086  0.1702
 1254loPI   GL120053  11.845   4.047   5.081 -0.2652  0.0552  0.3922
 1254loPI   GL220054  12.099   3.959   5.297 -0.1293  0.3104  0.1799
 1254loPI   C1A20055  11.671   3.752   5.414 -0.0037 -0.1174  0.0309
 1254loPI   C2A20056  11.717   3.728   5.783 -0.3680  0.0843  0.0375
 1254loPI   C3A20057  11.710   3.919   6.164 -0.1682 -0.4169  0.0025
 1254loPI   C4A20058  11.764   3.802   6.568 -0.1595 -0.0901 -0.0158
 1254loPI   C5A20059  11.651   3.761   7.001  0.0745 -0.1278  0.1686
 1254loPI   C6A20060  11.399   3.674   7.361 -0.0869 -0.0105  0.0342
 1254loPI   C1B20061  12.185   4.013   5.722 -0.2800 -0.0520  0.0446
 1254loPI   C2B20062  12.192   4.134   6.161 -0.0862  0.0027 -0.0475
 1254loPI   C3B20063  12.281   4.103   6.586 -0.0412 -0.2971 -0.0015
 1254loPI   C4B20064  12.181   3.961   6.922  0.2908  0.0159  0.0564
 1255loPI    C120065   7.015  14.360   4.680 -0.0783 -0.1198  0.2512
 1255loPI    C220066   6.714  14.620   4.643  0.1931  0.1631 -0.0316
 1255loPI    C320067   6.845  14.419   4.323  0.1775 -0.1080  0.1288
 1255loPI   PO420068   6.998  14.126   4.849 -0.0638 -0.2417  0.0185
 1255loPI   GL120069   7.117  13.989   5.318 -0.0285  0.2336  0.2616
 1255loPI   GL220070   7.370  13.884   5.288  0.1095 -0.2050 -0.3285
 1255loPI   C1A20071   7.001  14.251   5.739  0.1806 -0.0636 -0.0384
 1255loPI   C2A20072   6.993  14.244   6.238  0.2443  0.1780 -0.3069
 1255loPI   C3A20073   6.939  14.300   6.651  0.0319 -0.1547 -0.0553
 1255loPI   C4A20074   6.788  14.376   6.925  0.4222 -0.1662  0.0883
 1255loPI   C5A20075   6.647  14.245   7.367 -0.1799  0.0241  0.0770
 1255loPI   C6A20076   6.533  13.826   7.614 -0.1652 -0.2475 -0.0771
 1255loPI   C1B20077   7.532  14.069   5.699 -0.1562 -0.1880 -0.0409
 1255loPI   C2B20078   7.514  14.230   6.106 -0.1084  0.1622 -0.0709
 1255loPI   C3B20079   7.509  14.260   6.570  0.0335  0.1533  0.2086
 1255loPI   C4B20080   7.395  14.396   6.986  0.1585 -0.2291 -0.6157
 1256loPI    C120081  13.701   4.531   4.512  0.2052  0.4780 -0.1570
 1256loPI    C220082  13.708   4.613   4.120 -0.1045  0.1509 -0.2368
 1256loPI    C320083  13.362   4.526   4.300  0.0535  0.1734  0.0858
 1256loPI   PO420084  13.747   4.707   4.805  0.3161 -0.0631  0.2025
 1256loPI   GL120085  13.546   4.677   5.224  0.0544 -0.0586  0.2033
 1256loPI   GL220086  13.526   4.856   5.441 -0.0006  0.0600 -0.2618
 1256loPI   C1A20087  13.464   4.337   5.600  0.0170 -0.0404  0.5444
 1256loPI   C2A20088  13.508   4.419   6.088 -0.0733 -0.0769 -0.1843
 1256loPI   C3A20089  13.527   4.377   6.577 -0.1441 -0.0183  0.3079
 1256loPI   C4A20090  13.440   4.431   6.977  0.0261  0.0059 -0.2896
 1256loPI   C5A20091  13.528   4.333   7.346  0.0565 -0.0734  0.0014
 1256loPI   C6A20092  13.721   4.570   7.661  0.2632 -0.1824 -0.2140
 1256loPI   C1B20093  13.597   4.857   5.913 -0.0495  0.1095  0.0601
 1256loPI   C2B20094  13.444   4.877   6.336  0.0383 -0.2088  0.2203
 1256loPI   C3B20095  13.549   4.905   6.804 -0.0515  0.1378  0.1106
 1256loPI   C4B20096  13.376   4.905   7.237  0.0378  0.0662  0.1529
 1257loPI    C120097  15.906  18.231   4.876 -0.2413 -0.0774 -0.1717
 1257loPI    C220098  15.593  18.460   4.778 -0.0898  0.0960 -0.2568
 1257loPI    C320099  15.942  18.630   4.875 -0.0308 -0.0951 -0.1293
 1257loPI   PO420100  15.724  18.122   5.118  0.0196 -0.0560 -0.0423
 1257loPI   GL120101  15.703  18.159   5.572  0.2728  0.0550  0.0746
 1257loPI   GL220102  15.560  17.924   5.589  0.1266 -0.2714 -0.0830
 1257loPI   C1A20103  15.467  18.187   6.032 -0.0631  0.2198  0.1656
 1257loPI   C2A20104  15.532  18.489   6.338  0.2418 -0.2537 -0.1215
 1257loPI   C3A20105  15.543  18.606   6.801  0.0069  0.3410 -0.0479
 1257loPI   C4A20106  15.905  18.642   7.005 -0.1889  0.0378  0.0345
 1257loPI   C5A20107  16.081  18.495   7.353 -0.0832 -0.1211  0.0204
 1257loPI   C6A20108  16.251  18.534   7.769 -0.0294 -0.0558  0.3199
 1257loPI   C1B20109  15.605  17.659   5.951 -0.1792  0.0056  0.0393
 1257loPI   C2B20110  15.788  17.516   6.371  0.1895  0.2011 -0.0465
 1257loPI   C3B20111  15.929  17.199   6.636  0.0224 -0.0323 -0.0280
 1257loPI   C4B20112  16.008  17.030   7.039 -0.0763 -0.0766 -0.0047
 1258loPI    C120113   5.968   2.283   4.734 -0.0716 -0.0443 -0.0879
 1258loPI    C220114   6.302   2.091   4.624  0.0684  0.1914 -0.0800
 1258loPI    C320115   6.002   2.136   4.363  0.0880  0.0769 -0.1226
 1258loPI   PO420116   6.000   2.251   5.032 -0.1566 -0.1964 -0.2352
 1258loPI   GL120117   6.134   2.462   5.411 -0.0601  0.1724 -0.0556
 1258loPI   GL220118   6.129   2.771   5.430 -0.3732 -0.0152  0.3537
 1258loPI   C1A20119   6.154   2.325   5.843 -0.0351 -0.4675 -0.0532
 1258loPI   C2A20120   6.294   2.367   6.320 -0.0751  0.0119  0.0612
 1258loPI   C3A20121   6.311   2.284   6.756  0.0081  0.2592  0.4718
 1258loPI   C4A20122   6.479   2.193   7.153 -0.2736 -0.1525 -0.0218
 1258loPI   C5A20123   6.711   2.013   7.523  0.2240 -0.0822 -0.0645
 1258loPI   C6A20124   6.549   2.141   7.960  0.2073 -0.0051  0.2186
 1258loPI   C1B20125   6.230   2.826   5.793 -0.0445 -0.2289  0.2059
 1258loPI   C2B20126   6.294   2.881   6.201 -0.0259  0.0383  0.2912
 1258loPI   C3B20127   6.347   2.806   6.546  0.2217 -0.0038 -0.2272
 1258loPI   C4B20128   6.455   2.737   7.044  0.1292 -0.0551 -0.2619
 1259loPI    C120129   4.929  12.263   4.978 -0.0228 -0.2070  0.1142
 1259loPI    C220130   4.901  12.022   4.660 -0.0410 -0.0364 -0.0148
 1259loPI    C320131   4.569  12.156   4.840 -0.0324  0.0154 -0.0375
 1259loPI   PO420132   5.150  12.107   5.124  0.1894  0.1755 -0.0502
 1259loPI   GL120133   5.280  12.228   5.554 -0.2057  0.1337  0.0850
 1259loPI   GL220134   5.478  12.522   5.363  0.0964 -0.0061  0.0447
 1259loPI   C1A20135   5.343  12.227   5.970  0.1777 -0.0519 -0.0544
 1259loPI   C2A20136   5.502  12.354   6.365 -0.6582 -0.0090  0.0970
 1259loPI   C3A20137   5.574  12.399   6.787 -0.2949  0.2102 -0.0768
 1259loPI   C4A20138   5.563  12.120   7.127 -0.1909  0.1208  0.0032
 1259loPI   C5A20139   5.674  11.915   7.405 -0.1236 -0.0355 -0.3751
 1259loPI   C6A20140   5.977  12.092   7.776 -0.0848 -0.0793  0.0752
 1259loPI   C1B20141   5.779  12.601   5.854  0.1627 -0.0460  0.0947
 1259loPI   C2B20142   5.807  12.747   6.306  0.3166 -0.2379 -0.0306
 1259loPI   C3B20143   5.707  12.882   6.746 -0.0612  0.1323  0.0978
 1259loPI   C4B20144   5.410  12.804   7.086  0.1706  0.1187 -0.1165
 1260loPI    C120145   9.944  11.823   5.040  0.1162 -0.2174 -0.2351
 1260loPI    C220146   9.690  11.599   4.827  0.1211 -0.0746 -0.3933
 1260loPI    C320147   9.962  11.825   4.640  0.1234  0.0547 -0.2353
 1260loPI   PO420148   9.846  11.997   5.213  0.3623 -0.2269 -0.0986
 1260loPI   GL120149   9.891  12.142   5.566  0.0037  0.3699 -0.3173
 1260loPI   GL220150   9.684  11.968   5.692 -0.0036  0.1106  0.1730
 1260loPI   C1A20151   9.949  12.243   6.013 -0.0974  0.0641  0.3555
 1260loPI   C2A20152   9.951  12.247   6.349  0.0496 -0.3406 -0.2461
 1260loPI   C3A20153   9.896  12.294   6.797 -0.0549 -0.4380  0.1927
 1260loPI   C4A20154   9.730  12.177   7.159 -0.1894  0.1101 -0.0596
 1260loPI   C5A20155   9.337  12.379   7.413  0.0313 -0.0653 -0.0045
 1260loPI   C6A20156   8.934  12.249   7.420  0.0214  0.0771 -0.3139
 1260loPI   C1B20157   9.625  11.774   5.978 -0.2272 -0.0600 -0.2985
 1260loPI   C2B20158   9.719  11.848   6.473  0.1608  0.0047 -0.1234
 1260loPI   C3B20159   9.593  11.732   6.897 -0.2415  0.1304  0.1438
 1260loPI   C4B20160   9.644  11.372   7.256  0.0526 -0.2746 -0.0291
 1261loPI    C120161  10.143  14.076   4.666 -0.0053  0.1368  0.0120
 1261loPI    C220162  10.021  13.724   4.521  0.0495  0.1452 -0.0552
 1261loPI    C320163  10.184  13.995   4.277  0.1654  0.1499  0.0264
 1261loPI   PO420164   9.907  14.119   4.804 -0.1019  0.1626  0.2306
 1261loPI   GL120165   9.730  13.939   5.162 -0.0595 -0.1072 -0.1219
 1261loPI   GL220166  10.020  13.920   5.339 -0.0027  0.2515 -0.2430
 1261loPI   C1A20167   9.474  13.924   5.473 -0.2851  0.0255  0.2862
 1261loPI   C2A20168   9.507  13.990   5.916 -0.0974 -0.0684  0.0868
 1261loPI   C3A20169   9.516  14.121   6.320  0.1768 -0.0270  0.0367
 1261loPI   C4A20170   9.495  14.081   6.780 -0.0483 -0.1811 -0.0944
 1261loPI   C5A20171   9.350  14.089   7.195  0.0093  0.1065  0.1545
 1261loPI   C6A20172   9.175  14.191   7.524  0.0993  0.3770  0.0182
 1261loPI   C1B20173   9.956  13.995   5.766 -0.0385  0.3250 -0.0099
 1261loPI   C2B20174  10.043  14.036   6.252 -0.1922  0.0899 -0.0461
 1261loPI   C3B20175  10.061  14.177   6.628  0.0882 -0.0815  0.2960
 1261loPI   C4B20176  10.051  14.006   7.052 -0.5616  0.2569 -0.1844
 1262loPI    C120177  11.378  12.271   4.948 -0.1614 -0.1944  0.0364
 1262loPI    C220178  11.262  11.929   4.775  0.0461 -0.2367 -0.0210
 1262loPI    C320179  11.189  12.279   4.595  0.0631 -0.2670 -0.0869
 1262loPI   PO420180  11.258  12.237   5.210  0.0266 -0.0752 -0.1184
 1262loPI   GL120181  11.179  12.499   5.533  0.1348 -0.1908 -0.0998
 1262loPI   GL220182  10.992  12.210   5.669  0.1750  0.0836 -0.1672
 1262loPI   C1A20183  11.213  12.501   5.980 -0.2522 -0.0568  0.2692
 1262loPI   C2A20184  11.265  12.582   6.428  0.0762 -0.3181 -0.1537
 1262loPI   C3A20185  11.135  12.639   6.828 -0.0949  0.1517  0.1550
 1262loPI   C4A20186  11.059  12.534   7.234  0.2232 -0.1937  0.0261
 1262loPI   C5A20187  11.080  12.570   7.655  0.2268 -0.1846  0.1224
 1262loPI   C6A20188  11.308  12.653   8.061  0.3035 -0.2182  0.0343
 1262loPI   C1B20189  10.946  12.053   6.073  0.1999 -0.1361  0.0191
 1262loPI   C2B20190  10.943  12.198   6.539  0.2365  0.0474 -0.1149
 1262loPI   C3B20191  10.822  12.019   6.929 -0.2582 -0.0380 -0.0494
 1262loPI   C4B20192  10.807  12.062   7.335 -0.3385  0.2266  0.0458
 1263loPI    C120193  10.488   9.807   5.123 -0.0884 -0.0864 -0.1019
 1263loPI    C220194  10.331   9.877   4.761  0.0213  0.0063 -0.1323
 1263loPI    C320195  10.722   9.801   4.798  0.0456  0.1845 -0.0130
 1263loPI   PO420196  10.327  10.050   5.203  0.1930  0.2334 -0.1726
 1263loPI   GL120197  10.291  10.229   5.684  0.3134 -0.2561 -0.2362
 1263loPI   GL220198  10.495   9.890   5.636  0.0271  0.1517 -0.3434
 1263loPI   C1A20199  10.335  10.383   6.139 -0.1564  0.0363  0.1699
 1263loPI   C2A20200  10.331  10.366   6.627  0.2201  0.0894 -0.0374
 1263loPI   C3A20201  10.442  10.233   7.112 -0.1720  0.0525 -0.2889
 1263loPI   C4A20202  10.493  10.166   7.506  0.2721  0.1558 -0.3614
 1263loPI   C5A20203  10.521  10.250   7.885 -0.1675 -0.1973  0.0730
 1263loPI   C6A20204  10.401  10.229   8.326  0.2722 -0.0163  0.0821
 1263loPI   C1B20205  10.443   9.886   6.062 -0.0713  0.1013  0.0930
 1263loPI   C2B20206  10.505   9.897   6.554 -0.0764  0.1733  0.2109
 1263loPI   C3B20207  10.301   9.742   6.948 -0.0872  0.0021  0.1191
 1263loPI   C4B20208  10.441   9.633   7.308 -0.0710 -0.1031 -0.1002
 1264loPI    C120209  17.680   7.016   5.062 -0.1721  0.0236  0.1124
 1264loPI    C220210  17.468   6.848   4.767 -0.0338 -0.1771  0.1253
 1264loPI    C320211  17.682   7.178   4.697 -0.1328 -0.1299  0.0434
 1264loPI   PO420212  17.581   7.064   5.251  0.0978 -0.2509 -0.2757
 1264loPI   GL120213  17.552   7.178   5.713  0.0569  0.0360  0.0522
 1264loPI   GL220214  17.542   6.911   5.895  0.0793  0.1628  0.0958
 1264loPI   C1A20215  17.934   7.246   6.035  0.0714  0.1633  0.1182
 1264loPI   C2A20216  18.102   7.236   6.315 -0.3988  0.0621  0.1647
 1264loPI   C3A20217  18.383   7.544   6.498 -0.0134 -0.2723  0.0179
 1264loPI   C4A20218  18.590   7.738   6.776 -0.1912 -0.3308  0.0913
 1264loPI   C5A20219  18.658   7.803   7.274 -0.1852 -0.1436 -0.0885
 1264loPI   C6A20220  18.581   7.786   7.703  0.0878  0.1139 -0.2368
 1264loPI   C1B20221  17.389   7.141   6.261 -0.0819  0.0213  0.2250
 1264loPI   C2B20222  17.231   7.171   6.729 -0.2508 -0.1221  0.2281
 1264loPI   C3B20223  17.346   7.018   7.133 -0.2616  0.1666 -0.0316
 1264loPI   C4B20224  17.553   6.856   7.535 -0.2265  0.2088 -0.1805
 1265loPI    C120225   1.288  12.189   4.651  0.0137  0.1086 -0.1306
 1265loPI    C220226   0.919  12.167   4.498 -0.1071 -0.0194  0.1704
 1265loPI    C320227   1.195  11.897   4.394 -0.1333  0.0031  0.0399
 1265loPI   PO420228   1.197  12.249   4.885 -0.0838 -0.3130  0.0650
 1265loPI   GL120229   1.422  12.213   5.336 -0.1628 -0.0731  0.0537
 1265loPI   GL220230   1.378  12.008   5.438 -0.2540  0.0234 -0.0535
 1265loPI   C1A20231   1.255  12.397   5.762  0.0460  0.4359 -0.1398
 1265loPI   C2A20232   1.373  12.581   6.137  0.0133 -0.2092  0.0665
 1265loPI   C3A20233   1.340  12.517   6.598  0.0342 -0.1645  0.3115
 1265loPI   C4A20234   1.320  12.547   6.936  0.2508  0.0391 -0.2164
 1265loPI   C5A20235   1.346  12.718   7.309  0.2494  0.1413 -0.1747
 1265loPI   C6A20236   1.350  12.967   7.748 -0.0633  0.2868  0.1401
 1265loPI   C1B20237   1.489  11.857   5.919 -0.0018 -0.1311 -0.2709
 1265loPI   C2B20238   1.399  12.055   6.361 -0.1049  0.1238  0.0724
 1265loPI   C3B20239   1.364  11.983   6.772  0.0037  0.0970  0.1771
 1265loPI   C4B20240   1.312  11.751   7.176 -0.3958  0.0303 -0.1838
 1266loPI    C120241   3.644  10.814   5.341  0.2982 -0.0298 -0.0211
 1266loPI    C220242   3.877  11.045   5.113  0.3131 -0.2094 -0.1904
 1266loPI    C320243   3.702  10.721   4.957 -0.2459  0.0533 -0.1313
 1266loPI   PO420244   3.531  10.983   5.472 -0.1234  0.0815 -0.0265
 1266loPI   GL120245   3.632  11.044   5.873  0.1313 -0.0166  0.1046
 1266loPI   GL220246   3.738  11.374   5.718  0.0325 -0.3375  0.1163
 1266loPI   C1A20247   3.425  10.808   6.236  0.2208 -0.2019  0.0289
 1266loPI   C2A20248   3.388  10.650   6.613  0.0003  0.1630  0.1168
 1266loPI   C3A20249   3.707  10.768   6.948 -0.2169 -0.1360  0.1246
 1266loPI   C4A20250   4.107  10.748   7.088 -0.1834  0.3208  0.1947
 1266loPI   C5A20251   4.227  10.743   7.490  0.0689 -0.1908 -0.0147
 1266loPI   C6A20252   4.320  11.143   7.675  0.0601  0.0851 -0.0880
 1266loPI   C1B20253   3.892  11.417   6.154 -0.1565 -0.4746  0.0073
 1266loPI   C2B20254   3.846  11.596   6.589 -0.1783  0.3105 -0.3509
 1266loPI   C3B20255   3.795  11.688   7.111 -0.1909  0.2768  0.1962
 1266loPI   C4B20256   3.641  11.998   7.258 -0.2851 -0.0942 -0.0609
 1267loPI    C120257   5.374  17.573   4.462 -0.0903  0.0216 -0.0836
 1267loPI    C220258   5.575  17.298   4.252  0.0943  0.1594 -0.0898
 1267loPI    C320259   5.180  17.342   4.199  0.1449  0.2226 -0.4423
 1267loPI   PO420260   5.443  17.523   4.727  0.1202 -0.2723  0.1044
 1267loPI   GL120261   5.644  17.609   4.980  0.3190 -0.3120  0.0730
 1267loPI   GL220262   5.709  17.346   5.153 -0.0357 -0.0774 -0.1234
 1267loPI   C1A20263   5.478  17.717   5.428 -0.1517  0.0227  0.3562
 1267loPI   C2A20264   5.604  17.865   5.832  0.0139 -0.1893 -0.0247
 1267loPI   C3A20265   5.644  18.046   6.217  0.0667 -0.1343 -0.2685
 1267loPI   C4A20266   5.651  18.007   6.634 -0.4718  0.0514  0.0273
 1267loPI   C5A20267   5.657  17.840   7.057 -0.4302  0.2576 -0.5242
 1267loPI   C6A20268   5.711  17.422   7.241 -0.2090  0.1461 -0.0554
 1267loPI   C1B20269   5.682  17.278   5.648 -0.2729 -0.1342 -0.0984
 1267loPI   C2B20270   5.605  17.081   5.961  0.1401 -0.2106  0.2173
 1267loPI   C3B20271   5.646  17.198   6.407 -0.0345  0.0723  0.1052
 1267loPI   C4B20272   5.577  17.046   6.848 -0.0613 -0.0331 -0.0235
 1268loPI    C120273   3.595  15.003   4.706 -0.1328 -0.4061 -0.0784
 1268loPI    C220274   3.937  14.795   4.694  0.0989 -0.0259 -0.2488
 1268loPI    C320275   3.808  14.987   4.368 -0.0039  0.2632 -0.0426
 1268loPI   PO420276   3.560  15.177   4.897 -0.0899  0.2399 -0.1961
 1268loPI   GL120277   3.732  15.093   5.317 -0.1874  0.1368 -0.1603
 1268loPI   GL220278   3.724  15.387   5.414 -0.0546 -0.0043 -0.1092
 1268loPI   C1A20279   3.603  14.937   5.704 -0.2633  0.1214  0.0924
 1268loPI   C2A20280   3.599  15.129   6.171 -0.0114 -0.3161 -0.2769
 1268loPI   C3A20281   3.635  15.042   6.541  0.1679 -0.0555 -0.0012
 1268loPI   C4A20282   3.671  15.116   6.975  0.1844  0.1942 -0.0116
 1268loPI   C5A20283   3.641  15.260   7.423  0.2392 -0.2390 -0.2344
 1268loPI   C6A20284   3.444  15.262   7.835  0.0069 -0.1132  0.0579
 1268loPI   C1B20285   3.848  15.351   5.833  0.0885 -0.1255  0.0292
 1268loPI   C2B20286   4.011  15.507   6.235  0.1849  0.2159  0.2060
 1268loPI   C3B20287   4.073  15.382   6.697 -0.1145 -0.1159  0.2367
 1268loPI   C4B20288   4.048  15.399   7.204  0.0874  0.1094  0.1277
 1269loPI    C120289   9.067   7.281   5.292 -0.1957  0.0175 -0.1508
 1269loPI    C220290   8.950   7.664   5.280 -0.0673  0.0682  0.1381
 1269loPI    C320291   8.858   7.417   4.979 -0.1809  0.3168 -0.0341
 1269loPI   PO420292   9.000   7.227   5.594 -0.0328  0.0671  0.2400
 1269loPI   GL120293   9.155   7.372   5.894  0.0304  0.2002  0.0587
 1269loPI   GL220294   9.483   7.260   5.991  0.1736 -0.2585  0.4265
 1269loPI   C1A20295   9.128   7.623   6.169  0.2598  0.1916 -0.1276
 1269loPI   C2A20296   9.280   7.742   6.484  0.0941  0.5620  0.1645
 1269loPI   C3A20297   9.376   7.636   6.856 -0.2384  0.0614  0.0314
 1269loPI   C4A20298   9.335   7.792   7.218  0.2008  0.0543  0.1077
 1269loPI   C5A20299   9.318   8.219   7.513  0.2145  0.0574 -0.1337
 1269loPI   C6A20300   9.071   8.309   7.840  0.1764 -0.1932 -0.0730
 1269loPI   C1B20301   9.422   7.267   6.386  0.0594  0.3862  0.1168
 1269loPI   C2B20302   9.210   7.168   6.795  0.0282 -0.0294 -0.0148
 1269loPI   C3B20303   9.133   7.054   7.266  0.1004 -0.0464  0.1741
 1269loPI   C4B20304   9.423   7.387   7.461 -0.1457  0.2021  0.0129
 1270loPI    C120305   9.679   8.066   5.476 -0.2718 -0.0396  0.0402
 1270loPI    C220306   9.662   7.979   5.086  0.0624  0.0730 -0.0030
 1270loPI    C320307   9.703   8.359   5.205  0.0522  0.0304  0.1391
 1270loPI   PO420308   9.849   7.860   5.560  0.1806  0.1706 -0.0295
 1270loPI   GL120309   9.859   7.643   5.978 -0.2521  0.2467  0.0111
 1270loPI   GL220310   9.593   7.740   6.040  0.3642 -0.2531 -0.3336
 1270loPI   C1A20311   9.946   7.340   6.159  0.3643 -0.0152 -0.1071
 1270loPI   C2A20312   9.889   7.288   6.595 -0.3250  0.0323  0.4734
 1270loPI   C3A20313   9.689   7.223   7.025  0.0383  0.0334 -0.1485
 1270loPI   C4A20314  10.029   7.164   7.341 -0.0782  0.0346  0.0573
 1270loPI   C5A20315  10.184   7.371   7.736 -0.2491 -0.0667 -0.0365
 1270loPI   C6A20316  10.476   7.528   8.061  0.4870  0.2113  0.1019
 1270loPI   C1B20317   9.797   7.735   6.441 -0.2171 -0.0222 -0.4185
 1270loPI   C2B20318   9.842   7.719   6.838 -0.0333  0.0846  0.2398
 1270loPI   C3B20319   9.803   7.677   7.317  0.0973 -0.1586 -0.2714
 1270loPI   C4B20320  10.169   7.867   7.650 -0.2450 -0.0831 -0.0689
 1271loPI    C120321   7.059  16.121   4.361 -0.0532  0.1188 -0.2386
 1271loPI    C220322   7.107  16.498   4.235 -0.0017  0.1775 -0.0476
 1271loPI    C320323   6.955  16.222   3.988  0.2134  0.2607 -0.2775
 1271loPI   PO420324   7.302  16.190   4.602 -0.4145 -0.6143  0.1441
 1271loPI   GL120325   7.566  16.357   4.920  0.1381 -0.2568 -0.0291
 1271loPI   GL220326   7.319  16.562   5.054 -0.3000  0.2172 -0.0766
 1271loPI   C1A20327   7.675  16.149   5.339 -0.1488 -0.0890 -0.2786
 1271loPI   C2A20328   7.637  16.034   5.787  0.0345 -0.1546 -0.0270
 1271loPI   C3A20329   7.691  16.125   6.156 -0.1451  0.0734  0.2068
 1271loPI   C4A20330   7.600  16.079   6.624  0.3142  0.3537 -0.0394
 1271loPI   C5A20331   7.491  16.042   7.025  0.3048  0.2522  0.2538
 1271loPI   C6A20332   7.252  16.066   7.338 -0.1096 -0.3223 -0.1397
 1271loPI   C1B20333   7.448  16.537   5.438 -0.2183 -0.1456  0.0391
 1271loPI   C2B20334   7.381  16.554   5.809 -0.3007  0.2067  0.1924
 1271loPI   C3B20335   7.461  16.574   6.239  0.0299 -0.3259 -0.0335
 1271loPI   C4B20336   7.375  16.550   6.612 -0.0272  0.0547  0.1705
 1272loPI    C120337   1.374  14.385   4.778  0.1089  0.1472 -0.0636
 1272loPI    C220338   1.738  14.551   4.764  0.2339 -0.0977  0.1917
 1272loPI    C320339   1.688  14.168   4.658  0.0664 -0.0905  0.2419
 1272loPI   PO420340   1.265  14.523   5.074  0.2030  0.1226  0.0299
 1272loPI   GL120341   1.178  14.728   5.441  0.0885  0.2768 -0.1394
 1272loPI   GL220342   0.875  14.592   5.477 -0.2978 -0.1000 -0.1933
 1272loPI   C1A20343   1.426  14.716   5.803  0.2285 -0.0929 -0.2665
 1272loPI   C2A20344   1.526  14.837   6.180 -0.3107 -0.1287 -0.0734
 1272loPI   C3A20345   1.424  14.992   6.570  0.1579  0.2353 -0.1511
 1272loPI   C4A20346   1.353  15.078   6.949 -0.0581  0.3483 -0.1567
 1272loPI   C5A20347   1.593  15.227   7.206 -0.1286 -0.1498 -0.1215
 1272loPI   C6A20348   1.596  15.421   7.618 -0.0106  0.1760  0.1215
 1272loPI   C1B20349   0.587  14.621   5.826 -0.0730  0.1399  0.0077
 1272loPI   C2B20350   0.497  14.615   6.271  0.3207  0.0711 -0.0067
 1272loPI   C3B20351   0.225  14.706   6.689 -0.0329 -0.2064 -0.0618
 1272loPI   C4B20352   0.025  14.512   7.137  0.0403 -0.1249 -0.2809
 1273loPI    C120353  15.799   6.309   5.248 -0.0171  0.0053 -0.0052
 1273loPI    C220354  15.897   6.084   4.932 -0.0098  0.1347 -0.0962
 1273loPI    C320355  15.532   6.247   4.956 -0.0332  0.0700 -0.0044
 1273loPI   PO420356  15.786   6.124   5.487  0.0156  0.0086 -0.0908
 1273loPI   GL120357  15.581   6.245   5.859 -0.0198  0.1052 -0.2245
 1273loPI   GL220358  15.278   6.076   5.980 -0.3833  0.0993  0.0505
 1273loPI   C1A20359  15.827   6.287   6.160  0.1129 -0.0180  0.0347
 1273loPI   C2A20360  15.833   6.158   6.510  0.0281 -0.0840  0.1158
 1273loPI   C3A20361  15.839   6.177   6.946 -0.0439  0.2873 -0.1384
 1273loPI   C4A20362  15.890   6.287   7.346  0.0366 -0.1726 -0.0613
 1273loPI   C5A20363  16.082   6.107   7.673 -0.1332  0.0705  0.2596
 1273loPI   C6A20364  16.453   6.256   7.979 -0.0057  0.1738  0.0713
 1273loPI   C1B20365  15.021   6.001   6.291  0.0529  0.0257  0.1752
 1273loPI   C2B20366  14.844   6.183   6.671 -0.2081 -0.2933  0.1359
 1273loPI   C3B20367  14.873   6.354   7.109  0.1502  0.1596  0.0817
 1273loPI   C4B20368  14.900   6.501   7.505  0.0379  0.1525 -0.0391
 1274loPI    C120369  13.206   1.436   4.767 -0.1413 -0.0209  0.2374
 1274loPI    C220370  12.906   1.348   4.517  0.1770 -0.2547 -0.0716
 1274loPI    C320371  12.963   1.726   4.637 -0.1784 -0.1932 -0.0875
 1274loPI   PO420372  13.208   1.193   4.893 -0.3375  0.4035 -0.2112
 1274loPI   GL120373  13.197   1.273   5.295 -0.3026  0.1332 -0.0138
 1274loPI   GL220374  13.212   0.845   5.327 -0.1261 -0.0967 -0.0807
 1274loPI   C1A20375  13.195   1.581   5.638  0.1487  0.1893 -0.0816
 1274loPI   C2A20376  13.132   1.614   6.061  0.2942  0.2378 -0.0122
 1274loPI   C3A20377  13.145   1.513   6.480  0.3164  0.0946  0.3296
 1274loPI   C4A20378  13.204   1.487   6.882  0.1766 -0.0062  0.1790
 1274loPI   C5A20379  13.314   1.467   7.341 -0.0950  0.0292 -0.1267
 1274loPI   C6A20380  13.001   1.549   7.633 -0.0176 -0.1310 -0.4384
 1274loPI   C1B20381  13.217   1.109   5.755  0.1871  0.0264  0.0039
 1274loPI   C2B20382  13.198   1.079   6.225 -0.0200  0.3498 -0.2857
 1274loPI   C3B20383  13.186   0.958   6.628 -0.1541 -0.3344  0.0123
 1274loPI   C4B20384  13.189   1.019   7.011  0.1431 -0.1986 -0.1130
 1275loPI    C120385  14.408   5.190   5.137  0.1011 -0.0109 -0.1488
 1275loPI    C220386  14.318   4.896   4.881 -0.1255  0.0750 -0.1702
 1275loPI    C320387  14.492   5.232   4.748  0.2101 -0.0798 -0.1332
 1275loPI   PO420388  14.353   5.142   5.359 -0.1273 -0.2131  0.1768
 1275loPI   GL120389  14.248   4.843   5.655  0.0954 -0.0858  0.2602
 1275loPI   GL220390  13.911   4.628   5.596 -0.0974  0.2699  0.0298
 1275loPI   C1A20391  14.428   4.852   5.980 -0.0956  0.1646 -0.4589
 1275loPI   C2A20392  14.438   4.863   6.454 -0.0552 -0.2320 -0.1592
 1275loPI   C3A20393  14.490   4.924   6.947 -0.2981  0.0678  0.2415
 1275loPI   C4A20394  14.414   4.948   7.345  0.2162  0.0832  0.0767
 1275loPI   C5A20395  14.516   4.846   7.781 -0.0514 -0.1648 -0.0389
 1275loPI   C6A20396  14.972   4.870   7.889 -0.1171 -0.2320  0.0668
 1275loPI   C1B20397  13.994   4.679   6.045 -0.0295  0.1363 -0.2568
 1275loPI   C2B20398  13.904   4.672   6.477  0.1020 -0.0492  0.0890
 1275loPI   C3B20399  14.057   4.647   6.866  0.0220 -0.0771  0.1344
 1275loPI   C4B20400  14.063   4.666   7.288  0.3705  0.3834 -0.2639
 1276loPI    C120401  15.631   2.776   4.886 -0.0589  0.2656 -0.1478
 1276loPI    C220402  15.409   3.016   4.656 -0.0669 -0.0149 -0.4392
 1276loPI    C320403  15.794   2.952   4.566 -0.0408 -0.0404 -0.3111
 1276loPI   PO420404  15.440   2.852   5.131  0.1312  0.0241 -0.0524
 1276loPI   GL120405  15.374   2.846   5.625 -0.0141 -0.0227 -0.1032
 1276loPI   GL220406  15.508   3.019   5.813  0.0389  0.0796  0.0333
 1276loPI   C1A20407  15.336   2.573   5.904  0.1358 -0.0268  0.0882
 1276loPI   C2A20408  15.552   2.412   6.219  0.1086 -0.0786 -0.1376
 1276loPI   C3A20409  15.644   2.347   6.684 -0.1157 -0.0851  0.0048
 1276loPI   C4A20410  15.732   2.313   7.104 -0.0485 -0.1042  0.5621
 1276loPI   C5A20411  15.688   2.272   7.593  0.4543  0.2421  0.5970
 1276loPI   C6A20412  15.566   2.145   7.951 -0.0098  0.0276 -0.1801
 1276loPI   C1B20413  15.505   2.970   6.222  0.3357 -0.1774 -0.0361
 1276loPI   C2B20414  15.557   2.844   6.667  0.1721  0.3078  0.0558
 1276loPI   C3B20415  15.641   2.872   7.150  0.2067  0.2171  0.1262
 1276loPI   C4B20416  15.736   2.746   7.530 -0.0561  0.1002 -0.0591
 1277loPI    C120417   8.285   5.230   4.675 -0.2290 -0.0124  0.0169
 1277loPI    C220418   8.132   5.338   4.322 -0.0193  0.1796 -0.0172
 1277loPI    C320419   8.475   5.499   4.449  0.1351 -0.2129  0.0767
 1277loPI   PO420420   8.163   5.261   4.869  0.1873  0.1266 -0.1801
 1277loPI   GL120421   8.296   5.264   5.403  0.0427 -0.0587  0.2248
 1277loPI   GL220422   8.165   4.931   5.372 -0.0472  0.0791 -0.2010
 1277loPI   C1A20423   8.196   5.362   5.820 -0.1087 -0.0323 -0.5245
 1277loPI   C2A20424   8.167   5.275   6.229 -0.2580 -0.0140 -0.3476
 1277loPI   C3A20425   8.115   5.393   6.624  0.0715 -0.0977 -0.0626
 1277loPI   C4A20426   8.116   5.382   7.068  0.2254 -0.0909 -0.2736
 1277loPI   C5A20427   8.133   5.367   7.466  0.1802  0.1562  0.0534
 1277loPI   C6A20428   7.911   5.211   7.889  0.1473 -0.1747 -0.0661
 1277loPI   C1B20429   8.207   4.803   5.826  0.2623 -0.2233 -0.1255
 1277loPI   C2B20430   8.132   4.773   6.255  0.1447  0.2066 -0.2207
 1277loPI   C3B20431   8.071   4.755   6.796  0.2209 -0.3242  0.1009
 1277loPI   C4B20432   8.153   4.859   7.150 -0.1434 -0.2080 -0.0752
 1278loPI    C120433  18.309   5.769   5.304 -0.1191 -0.1909  0.0950
 1278loPI    C220434  18.029   5.868   5.037 -0.0397 -0.2509 -0.0113
 1278loPI    C320435  18.127   5.484   5.090  0.1606 -0.2151 -0.1158
 1278loPI   PO420436  18.220   5.818   5.535  0.2407 -0.1115  0.1541
 1278loPI   GL120437  18.324   5.954   5.949  0.0415  0.0616 -0.4185
 1278loPI   GL220438  18.748   6.080   6.030 -0.0172  0.1220  0.1501
 1278loPI   C1A20439  18.238   6.249   6.211  0.0297 -0.1048 -0.0415
 1278loPI   C2A20440  18.026   6.201   6.603 -0.2894 -0.1353  0.2653
 1278loPI   C3A20441  17.706   6.111   6.929  0.3322  0.1719 -0.1131
 1278loPI   C4A20442  17.464   5.969   7.236 -0.2105  0.0292  0.0952
 1278loPI   C5A20443  17.139   6.167   7.488  0.0071  0.0825  0.1476
 1278loPI   C6A20444  17.013   6.223   7.844  0.0581  0.0939  0.0451
 1278loPI   C1B20445  18.861   6.158   6.394 -0.1420  0.4075  0.1224
 1278loPI   C2B20446  19.010   6.037   6.815  0.1425  0.0253  0.2010
 1278loPI   C3B20447  18.980   5.810   7.191 -0.0260 -0.2429 -0.4006
 1278loPI   C4B20448  19.088   5.414   7.229  0.1925 -0.1077 -0.1233
 1279loPI    C120449   2.040   9.991   5.081  0.0317  0.3731 -0.0939
 1279loPI    C220450   2.410   9.992   4.930  0.0318 -0.1071 -0.1120
 1279loPI    C320451   2.094  10.031   4.687  0.0564 -0.1213 -0.1464
 1279loPI   PO420452   2.089  10.144   5.330  0.2805  0.0278  0.4421
 1279loPI   GL120453   2.107   9.945   5.684 -0.2379 -0.1283 -0.0150
 1279loPI   GL220454   1.956  10.256   5.818 -0.0856  0.1697  0.0887
 1279loPI   C1A20455   1.885   9.750   6.010 -0.3568  0.2116 -0.2604
 1279loPI   C2A20456   1.656   9.624   6.270 -0.1265 -0.0618  0.0810
 1279loPI   C3A20457   1.373   9.570   6.658 -0.1731  0.1808  0.2352
 1279loPI   C4A20458   1.284   9.716   7.122  0.5350 -0.2476 -0.0546
 1279loPI   C5A20459   1.460   9.700   7.530  0.2776  0.0493 -0.3166
 1279loPI   C6A20460   1.659   9.995   7.738 -0.2611  0.0468 -0.0494
 1279loPI   C1B20461   1.800  10.399   6.187  0.1451 -0.0333 -0.0199
 1279loPI   C2B20462   1.748  10.384   6.488  0.1712 -0.1340  0.0671
 1279loPI   C3B20463   1.694  10.403   6.850 -0.3623 -0.1671 -0.2779
 1279loPI   C4B20464   1.635  10.072   7.082 -0.3943  0.3457 -0.0940
 1280loPI    C120465  15.928   0.989   5.206 -0.1286 -0.1121  0.0785
 1280loPI    C220466  15.995   0.987   4.812 -0.1124  0.0203  0.0801
 1280loPI    C320467  16.222   0.764   5.055 -0.1858 -0.1379  0.0051
 1280loPI   PO420468  15.606   1.048   5.192  0.0770 -0.2056  0.1515
 1280loPI   GL120469  15.311   1.115   5.488 -0.2405 -0.0223 -0.0869
 1280loPI   GL220470  15.428   0.789   5.558  0.2366 -0.0232 -0.2929
 1280loPI   C1A20471  15.367   1.379   5.855 -0.1911  0.0811 -0.0081
 1280loPI   C2A20472  15.384   1.454   6.240  0.1310 -0.0378  0.0352
 1280loPI   C3A20473  15.325   1.411   6.681  0.0792 -0.2342  0.2700
 1280loPI   C4A20474  15.501   1.520   7.083 -0.0099 -0.2431  0.3720
 1280loPI   C5A20475  15.435   1.367   7.535  0.1162  0.2875  0.0687
 1280loPI   C6A20476  14.999   1.409   7.660  0.0651 -0.1741 -0.1814
 1280loPI   C1B20477  15.410   0.894   5.993  0.0850  0.2929  0.1962
 1280loPI   C2B20478  15.394   0.909   6.384 -0.1221 -0.3083  0.2015
 1280loPI   C3B20479  15.408   0.903   6.819  0.2685  0.1139 -0.0199
 1280loPI   C4B20480  15.521   0.939   7.198  0.2466 -0.0016 -0.1473
 1281loPI    C120481   1.367   9.820   5.003 -0.0996 -0.0352 -0.2103
 1281loPI    C220482   1.233   9.916   4.639 -0.0873  0.2263 -0.1483
 1281loPI    C320483   1.624   9.856   4.699 -0.0920  0.1610 -0.1821
 1281loPI   PO420484   1.141  10.033   5.168  0.1199  0.1017 -0.1019
 1281loPI   GL120485   0.906   9.920   5.463  0.1037  0.0799 -0.2761
 1281loPI   GL220486   1.072  10.186   5.626 -0.1550  0.0446 -0.2134
 1281loPI   C1A20487   0.792   9.781   5.843  0.4301  0.0397  0.1675
 1281loPI   C2A20488   0.546   9.909   6.215  0.0613  0.0505 -0.1187
 1281loPI   C3A20489   0.351   9.977   6.600 -0.2101  0.1692 -0.1391
 1281loPI   C4A20490   0.261   9.986   7.003  0.0861 -0.3787  0.0940
 1281loPI   C5A20491   0.459   9.696   7.398 -0.4569 -0.0054 -0.2208
 1281loPI   C6A20492   0.282   9.295   7.575  0.3461 -0.0929  0.0462
 1281loPI   C1B20493   0.926  10.247   6.055  0.1516  0.0145  0.0114
 1281loPI   C2B20494   0.836  10.300   6.487 -0.0621 -0.0653 -0.2038
 1281loPI   C3B20495   0.763  10.373   6.843  0.2242  0.3498 -0.1007
 1281loPI   C4B20496   0.558  10.247   7.330 -0.1005  0.1078 -0.1130
 1282loPI    C120497   2.178   4.212   4.638  0.0773  0.0229  0.2811
 1282loPI    C220498   2.144   4.021   4.288  0.0998 -0.2777  0.4388
 1282loPI    C320499   2.025   4.402   4.321 -0.2602 -0.3640  0.2033
 1282loPI   PO420500   2.218   3.957   4.785  0.0471 -0.3353 -0.2465
 1282loPI   GL120501   2.305   3.979   5.145  0.0212  0.0297  0.1157
 1282loPI   GL220502   2.091   3.868   5.293 -0.0679 -0.1884 -0.0380
 1282loPI   C1A20503   2.616   3.683   5.402  0.2418  0.0880  0.1697
 1282loPI   C2A20504   2.682   3.370   5.815 -0.2341  0.1832 -0.1217
 1282loPI   C3A20505   2.744   3.314   6.295 -0.1341  0.0887 -0.1050
 1282loPI   C4A20506   2.667   3.332   6.692  0.0019 -0.0739 -0.0533
 1282loPI   C5A20507   2.467   3.621   7.001  0.0511  0.0052  0.1650
 1282loPI   C6A20508   2.180   3.816   7.180 -0.1783 -0.1256  0.2358
 1282loPI   C1B20509   1.797   3.868   5.638  0.2916  0.0819  0.2244
 1282loPI   C2B20510   1.665   4.279   5.780 -0.0567 -0.0161  0.0012
 1282loPI   C3B20511   1.531   4.611   6.093  0.1035  0.0426  0.1255
 1282loPI   C4B20512   1.216   4.676   6.294 -0.0855  0.1332 -0.4745
 1283loPI    C120513   7.742  14.988   4.210  0.0825 -0.0962  0.0034
 1283loPI    C220514   7.846  14.642   4.039  0.1508 -0.0098 -0.1313
 1283loPI    C320515   7.775  14.964   3.812 -0.0778  0.0213 -0.0179
 1283loPI   PO420516   7.914  14.872   4.500 -0.1952  0.1948 -0.3048
 1283loPI   GL120517   7.891  14.897   4.937  0.1171  0.2626  0.2643
 1283loPI   GL220518   7.583  14.808   4.990 -0.1674  0.0626  0.0055
 1283loPI   C1A20519   8.008  15.136   5.291  0.2458 -0.0510 -0.0060
 1283loPI   C2A20520   8.025  15.073   5.632  0.0132 -0.0649  0.0140
 1283loPI   C3A20521   8.010  15.077   6.033  0.3036  0.0245  0.1711
 1283loPI   C4A20522   8.128  15.078   6.470  0.2489 -0.3424  0.2316
 1283loPI   C5A20523   8.028  15.106   6.859 -0.1334  0.2066  0.1373
 1283loPI   C6A20524   7.907  15.120   7.261  0.3427  0.1132 -0.2824
 1283loPI   C1B20525   7.737  14.694   5.380  0.1444 -0.0976  0.0825
 1283loPI   C2B20526   7.674  14.582   5.779 -0.0263  0.0095  0.1382
 1283loPI   C3B20527   7.794  14.652   6.206  0.0015 -0.1369 -0.0137
 1283loPI   C4B20528   7.796  14.670   6.623 -0.1764 -0.1899  0.0450
 1284loPI    C120529  16.635   7.141   5.149  0.2165 -0.0109 -0.0681
 1284loPI    C220530  16.913   7.354   4.956  0.2683 -0.0513 -0.0383
 1284loPI    C320531  16.678   7.102   4.753  0.1752  0.0685 -0.0808
 1284loPI   PO420532  16.698   7.115   5.444  0.2890 -0.0929  0.0885
 1284loPI   GL120533  16.839   7.397   5.826 -0.4129  0.1146  0.1893
 1284loPI   GL220534  17.071   7.151   5.887  0.1202 -0.3628 -0.0124
 1284loPI   C1A20535  16.987   7.811   6.075  0.1603  0.3368 -0.3590
 1284loPI   C2A20536  16.877   7.896   6.533  0.0191  0.4216  0.3614
 1284loPI   C3A20537  16.728   7.809   6.957 -0.2642  0.0845  0.0278
 1284loPI   C4A20538  16.687   7.732   7.351  0.2538 -0.0969  0.2678
 1284loPI   C5A20539  16.881   7.353   7.587 -0.1890  0.0141  0.0907
 1284loPI   C6A20540  17.326   7.284   7.577 -0.2277 -0.2895  0.2470
 1284loPI   C1B20541  16.913   7.254   6.282  0.1790 -0.2818 -0.1036
 1284loPI   C2B20542  16.699   6.995   6.550 -0.1337 -0.0550 -0.0976
 1284loPI   C3B20543  16.415   6.779   6.897 -0.0985 -0.1850 -0.0036
 1284loPI   C4B20544  16.259   6.540   7.213 -0.1287  0.0907  0.0529
 1285loPI    C120545   5.734  15.053   4.865  0.0002  0.1927 -0.0849
 1285loPI    C220546   6.076  15.219   4.991  0.2264 -0.1577 -0.2234
 1285loPI    C320547   5.950  15.281   4.616  0.0187  0.1524 -0.1060
 1285loPI   PO420548   5.608  14.758   4.968 -0.1766 -0.0208  0.2703
 1285loPI   GL120549   5.400  14.535   5.332  0.0661  0.2910 -0.1708
 1285loPI   GL220550   5.387  14.846   5.516 -0.1442  0.0020 -0.2426
 1285loPI   C1A20551   5.590  14.456   5.706  0.0874  0.0314 -0.1348
 1285loPI   C2A20552   5.807  14.394   6.072  0.0660 -0.0303 -0.0041
 1285loPI   C3A20553   5.983  14.452   6.481  0.3404  0.0444 -0.5937
 1285loPI   C4A20554   6.272  14.534   6.888 -0.0147 -0.0041  0.0999
 1285loPI   C5A20555   6.387  14.707   7.322  0.2024 -0.2533  0.0525
 1285loPI   C6A20556   6.699  14.798   7.695 -0.1792 -0.0002 -0.1740
 1285loPI   C1B20557   5.401  15.084   5.852 -0.0970  0.1205  0.0816
 1285loPI   C2B20558   5.438  15.385   6.168  0.0697  0.0909 -0.0978
 1285loPI   C3B20559   5.530  15.633   6.521  0.0220  0.0027  0.1735
 1285loPI   C4B20560   5.478  15.820   6.969  0.2107 -0.0224  0.0226
 1286loPI    C120561   0.916  12.618   4.707 -0.2487 -0.0713 -0.0142
 1286loPI    C220562   1.274  12.763   4.809 -0.2246 -0.2184  0.1145
 1286loPI    C320563   1.215  12.615   4.442 -0.1852 -0.0940  0.0574
 1286loPI   PO420564   0.697  12.387   4.972  0.0270 -0.1978 -0.2134
 1286loPI   GL120565   0.493  12.244   5.264 -0.1471  0.1406  0.2148
 1286loPI   GL220566   0.807  12.206   5.479 -0.1668  0.0709  0.1508
 1286loPI   C1A20567   0.369  12.445   5.710 -0.2461 -0.2021  0.0095
 1286loPI   C2A20568   0.343  12.409   6.132  0.3061 -0.0689  0.2468
 1286loPI   C3A20569   0.440  12.336   6.581  0.2502  0.2653  0.2205
 1286loPI   C4A20570   0.469  12.341   7.036  0.0479  0.0637 -0.0705
 1286loPI   C5A20571   0.540  12.294   7.464 -0.0113  0.0957 -0.1826
 1286loPI   C6A20572   0.334  12.090   7.712 -0.0864 -0.0768 -0.0041
 1286loPI   C1B20573   0.862  12.096   5.912 -0.1601  0.0450 -0.1920
 1286loPI   C2B20574   0.922  12.178   6.342 -0.1417  0.0161 -0.0783
 1286loPI   C3B20575   0.861  12.271   6.755  0.0260 -0.0987 -0.0585
 1286loPI   C4B20576   0.980  12.168   7.176 -0.0874  0.0718  0.0538
 1287loPI    C120577   8.199  14.062   4.667 -0.0861 -0.0331 -0.1334
 1287loPI    C220578   8.078  14.298   4.367 -0.2624 -0.0286 -0.0602
 1287loPI    C320579   7.905  14.327   4.727 -0.1802 -0.1637 -0.0087
 1287loPI   PO420580   8.407  14.112   4.746  0.0562 -0.2140  0.1934
 1287loPI   GL120581   8.546  14.366   5.060  0.2403 -0.2110 -0.1585
 1287loPI   GL220582   8.207  14.458   5.135 -0.0927 -0.0827  0.0911
 1287loPI   C1A20583   8.729  14.455   5.409  0.1590 -0.0120  0.0973
 1287loPI   C2A20584   8.789  14.541   5.824 -0.0665 -0.0075 -0.2033
 1287loPI   C3A20585   8.850  14.540   6.237  0.1503  0.1071  0.2110
 1287loPI   C4A20586   8.779  14.585   6.599  0.0156  0.1233 -0.0317
 1287loPI   C5A20587   8.749  14.666   7.015 -0.1441 -0.0057 -0.0586
 1287loPI   C6A20588   8.826  14.999   7.257  0.2350 -0.2208  0.1319
 1287loPI   C1B20589   8.209  14.511   5.586  0.0126  0.1123  0.0853
 1287loPI   C2B20590   8.251  14.619   5.938 -0.0985  0.0979  0.1991
 1287loPI   C3B20591   8.285  14.593   6.339 -0.2648  0.2091  0.1119
 1287loPI   C4B20592   8.304  14.679   6.726  0.0378 -0.2080  0.1734
 1288loPI    C120593   0.366   5.139   5.222  0.0467  0.0561 -0.0070
 1288loPI    C220594   0.731   4.977   5.188 -0.0165 -0.0838 -0.0244
 1288loPI    C320595   0.574   5.183   4.883  0.0667  0.0166  0.0001
 1288loPI   PO420596   0.390   5.243   5.421 -0.1745 -0.2333  0.1127
 1288loPI   GL120597   0.665   5.352   5.762 -0.3127 -0.0003 -0.1110
 1288loPI   GL220598   0.949   5.166   5.749 -0.2038  0.2231 -0.1393
 1288loPI   C1A20599   0.622   5.406   6.205  0.1351  0.0168  0.2728
 1288loPI   C2A20600   0.430   5.199   6.571 -0.1531 -0.1798 -0.2091
 1288loPI   C3A20601   0.455   5.008   6.911  0.0731 -0.1366  0.0756
 1288loPI   C4A20602   0.429   4.819   7.324 -0.0582  0.1341 -0.0875
 1288loPI   C5A20603   0.324   4.735   7.809 -0.2474  0.1763  0.0342
 1288loPI   C6A20604   0.067   4.517   8.104  0.1260  0.2285  0.2544
 1288loPI   C1B20605   1.316   5.144   6.127  0.0118  0.0024 -0.2582
 1288loPI   C2B20606   1.483   5.114   6.438  0.1283  0.1240  0.1671
 1288loPI   C3B20607   1.633   4.771   6.567 -0.2149 -0.0506 -0.1233
 1288loPI   C4B20608   1.808   4.644   6.954  0.1378  0.3740 -0.0957
 1289loPI    C120609   2.108   7.148   4.972 -0.0042  0.0897  0.0356
 1289loPI    C220610   2.107   6.969   4.614 -0.1619 -0.1280  0.1426
 1289loPI    C320611   1.862   7.278   4.684  0.0168  0.0488 -0.0007
 1289loPI   PO420612   2.049   6.902   5.141  0.0646  0.1969 -0.1871
 1289loPI   GL120613   2.356   6.734   5.446  0.2567  0.1771 -0.2596
 1289loPI   GL220614   2.117   6.594   5.701  0.0717 -0.4440 -0.4229
 1289loPI   C1A20615   2.533   6.899   5.794  0.2635  0.0734  0.2174
 1289loPI   C2A20616   2.419   6.952   6.260 -0.1368  0.0333  0.3077
 1289loPI   C3A20617   2.467   6.933   6.645  0.3365  0.2021 -0.3409
 1289loPI   C4A20618   2.578   6.855   7.088  0.2906  0.0202 -0.1009
 1289loPI   C5A20619   2.648   6.819   7.505 -0.2576 -0.0360 -0.0521
 1289loPI   C6A20620   2.890   6.525   7.744 -0.0481  0.3337 -0.0653
 1289loPI   C1B20621   1.946   6.965   6.050  0.0926 -0.0305  0.5084
 1289loPI   C2B20622   1.854   7.269   6.368  0.0148 -0.1656  0.0519
 1289loPI   C3B20623   1.887   7.675   6.577  0.0055 -0.0065 -0.0022
 1289loPI   C4B20624   1.531   7.837   6.740 -0.1165  0.2675  0.4135
 1290loPI    C120625   9.561   5.747   4.522  0.0595  0.2596  0.0315
 1290loPI    C220626   9.425   5.381   4.436  0.3813  0.1473 -0.0130
 1290loPI    C320627   9.253   5.702   4.271 -0.0787  0.0385  0.2370
 1290loPI   PO420628   9.620   5.702   4.787  0.0029  0.0381 -0.1528
 1290loPI   GL120629   9.672   5.781   5.227 -0.2333 -0.2260  0.3728
 1290loPI   GL220630   9.822   6.049   5.465 -0.0748  0.1593 -0.0944
 1290loPI   C1A20631   9.479   5.586   5.694 -0.0020 -0.3000  0.2384
 1290loPI   C2A20632   9.209   5.400   5.954  0.0367 -0.0951  0.0048
 1290loPI   C3A20633   9.046   5.331   6.297 -0.0272 -0.0771  0.1542
 1290loPI   C4A20634   8.973   5.244   6.782 -0.1640  0.1836 -0.0229
 1290loPI   C5A20635   9.042   5.241   7.236 -0.0491 -0.1799 -0.3522
 1290loPI   C6A20636   9.358   5.265   7.586 -0.0350 -0.2088 -0.3784
 1290loPI   C1B20637   9.915   5.880   5.777  0.1705  0.1939 -0.0538
 1290loPI   C2B20638  10.124   5.825   6.106  0.1195 -0.1534  0.0653
 1290loPI   C3B20639   9.959   5.782   6.565 -0.0974  0.1172 -0.1469
 1290loPI   C4B20640   9.857   5.708   6.971  0.3516 -0.0629 -0.0395
 1291loPI    C120641   7.757   5.353   5.152  0.0891 -0.0912 -0.0448
 1291loPI    C220642   7.524   5.535   4.883  0.0295 -0.2345 -0.0916
 1291loPI    C320643   7.359   5.325   5.181  0.0880  0.1774  0.2408
 1291loPI   PO420644   7.875   5.515   5.206 -0.3830  0.0676 -0.3206
 1291loPI   GL120645   7.979   5.710   5.596  0.1373 -0.2820 -0.1236
 1291loPI   GL220646   8.080   6.056   5.569  0.3461 -0.0039 -0.4644
 1291loPI   C1A20647   7.735   5.565   5.957  0.2059  0.2269 -0.0667
 1291loPI   C2A20648   7.723   5.631   6.354 -0.4160  0.0422 -0.1148
 1291loPI   C3A20649   7.747   5.647   6.833  0.0748  0.0231  0.1240
 1291loPI   C4A20650   7.695   5.596   7.229  0.2039 -0.1863  0.0420
 1291loPI   C5A20651   7.558   5.524   7.666  0.5052  0.4737  0.2236
 1291loPI   C6A20652   7.129   5.732   7.884  0.1497 -0.0464 -0.0045
 1291loPI   C1B20653   8.119   5.912   6.034  0.3058  0.1333  0.2356
 1291loPI   C2B20654   8.227   5.915   6.435 -0.0686  0.0575 -0.2657
 1291loPI   C3B20655   8.218   5.890   6.829 -0.1289  0.2331 -0.2821
 1291loPI   C4B20656   8.097   5.862   7.324  0.1181  0.2068 -0.2417
 1292loPI    C120657  16.186   1.681   4.900  0.0913 -0.1168 -0.0327
 1292loPI    C220658  15.977   1.468   4.634 -0.0960  0.0920 -0.0551
 1292loPI    C320659  16.282   1.696   4.513 -0.1395  0.1354 -0.0835
 1292loPI   PO420660  16.210   1.511   5.101 -0.1315  0.1872  0.2426
 1292loPI   GL120661  16.120   1.471   5.528  0.0583 -0.0981  0.0280
 1292loPI   GL220662  15.753   1.418   5.487  0.1363  0.0566 -0.0637
 1292loPI   C1A20663  16.136   1.523   5.990  0.1424 -0.1617  0.1721
 1292loPI   C2A20664  16.208   1.509   6.418  0.1884  0.0002 -0.1915
 1292loPI   C3A20665  16.225   1.636   6.834  0.1049 -0.1583 -0.1050
 1292loPI   C4A20666  16.349   1.702   7.308  0.3894  0.0704  0.0318
 1292loPI   C5A20667  16.429   1.626   7.592 -0.3287  0.0778  0.1214
 1292loPI   C6A20668  16.703   1.562   7.937  0.1895  0.0659  0.1653
 1292loPI   C1B20669  15.848   1.140   5.812  0.2054 -0.0137 -0.2746
 1292loPI   C2B20670  15.801   1.235   6.287  0.1815 -0.0936  0.1457
 1292loPI   C3B20671  15.836   1.320   6.751 -0.3228 -0.1606 -0.1531
 1292loPI   C4B20672  15.979   1.343   7.179  0.2129  0.0254  0.1821
 1293loPI    C120673  11.771  16.257   4.945 -0.2209 -0.0596 -0.0755
 1293loPI    C220674  11.446  16.033   4.877 -0.2573 -0.0535  0.0746
 1293loPI    C320675  11.658  16.177   4.570 -0.2975 -0.2009 -0.0232
 1293loPI   PO420676  11.893  16.137   5.112  0.0580  0.2098  0.1931
 1293loPI   GL120677  11.910  16.163   5.501 -0.0557  0.0895  0.2012
 1293loPI   GL220678  12.062  16.039   5.644 -0.1744  0.3257  0.1828
 1293loPI   C1A20679  11.573  16.168   5.750 -0.1450  0.0636  0.1258
 1293loPI   C2A20680  11.460  16.137   6.162 -0.2548 -0.2209 -0.0166
 1293loPI   C3A20681  11.411  16.284   6.580  0.0680  0.2799 -0.1212
 1293loPI   C4A20682  11.617  16.243   6.967  0.0229 -0.0069  0.1809
 1293loPI   C5A20683  12.053  16.304   7.288  0.0067 -0.1113 -0.1450
 1293loPI   C6A20684  12.432  16.432   7.540  0.1676  0.0972  0.0844
 1293loPI   C1B20685  11.950  16.064   6.075 -0.0466 -0.0397  0.3403
 1293loPI   C2B20686  11.941  16.229   6.511  0.1242  0.1056  0.3127
 1293loPI   C3B20687  12.324  16.171   6.834 -0.0155  0.2399  0.3659
 1293loPI   C4B20688  12.722  16.343   7.054  0.1698  0.1892  0.1480
 1294loPI    C120689   6.231   0.711   4.687 -0.1803 -0.0258 -0.0182
 1294loPI    C220690   6.116   0.884   4.345  0.0254 -0.0771 -0.1148
 1294loPI    C320691   6.223   0.498   4.348  0.2623 -0.0122 -0.0429
 1294loPI   PO420692   6.083   0.839   4.902  0.1033 -0.0768 -0.0702
 1294loPI   GL120693   6.016   0.896   5.304  0.1218 -0.0922 -0.0293
 1294loPI   GL220694   6.191   1.187   5.314 -0.0926 -0.2087  0.0104
 1294loPI   C1A20695   5.855   1.000   5.731  0.3324 -0.1345 -0.2199
 1294loPI   C2A20696   5.707   0.670   6.102 -0.1651  0.2751  0.0410
 1294loPI   C3A20697   5.637   0.591   6.519 -0.0547  0.0331  0.1627
 1294loPI   C4A20698   5.844   0.544   6.932  0.0693 -0.0193  0.1211
 1294loPI   C5A20699   6.198   0.624   7.052 -0.0717 -0.0424 -0.2556
 1294loPI   C6A20700   6.584   0.789   7.298 -0.3343  0.0750  0.1433
 1294loPI   C1B20701   6.050   1.412   5.601  0.1780 -0.1871  0.1002
 1294loPI   C2B20702   6.042   1.690   5.890  0.2387 -0.0333 -0.1271
 1294loPI   C3B20703   6.221   1.898   6.104  0.0911  0.3424  0.1051
 1294loPI   C4B20704   6.355   1.834   6.564 -0.1292 -0.4421  0.4086
 1295loPI    C120705   8.783   5.927   4.852  0.1677  0.1379 -0.0505
 1295loPI    C220706   8.638   5.556   4.893  0.2290  0.1532  0.3459
 1295loPI    C320707   8.954   5.622   4.658  0.0926 -0.0100  0.1124
 1295loPI   PO420708   8.750   5.968   5.076  0.2220  0.2980  0.0073
 1295loPI   GL120709   8.745   5.815   5.408 -0.2313 -0.1158 -0.0685
 1295loPI   GL220710   8.480   5.724   5.634 -0.3981 -0.1345  0.1524
 1295loPI   C1A20711   8.936   5.777   5.725 -0.5068  0.1446 -0.1264
 1295loPI   C2A20712   9.037   5.848   6.136  0.1857 -0.0525  0.0796
 1295loPI   C3A20713   9.146   5.749   6.547  0.4104 -0.0432  0.2787
 1295loPI   C4A20714   9.048   5.687   7.017 -0.3896  0.0287  0.0653
 1295loPI   C5A20715   9.079   5.737   7.420  0.1264  0.0295  0.0398
 1295loPI   C6A20716   8.881   5.546   7.752  0.0118 -0.1440  0.0204
 1295loPI   C1B20717   8.584   5.542   6.063 -0.0327 -0.0702 -0.0501
 1295loPI   C2B20718   8.628   5.625   6.514 -0.0580 -0.2128 -0.2626
 1295loPI   C3B20719   8.562   5.531   6.856  0.0466  0.1528 -0.0968
 1295loPI   C4B20720   8.561   5.610   7.339 -0.0605 -0.0018 -0.0566
 1296loPI    C120721   4.518   6.237   4.077  0.0638  0.1285  0.0705
 1296loPI    C220722   4.756   5.929   3.982 -0.0865  0.0226  0.0334
 1296loPI    C320723   4.765   6.264   3.764  0.1424  0.0796  0.1277
 1296loPI   PO420724   4.533   6.251   4.310  0.2858 -0.1362  0.3033
 1296loPI   GL120725   4.358   6.010   4.715 -0.3314 -0.0300 -0.2253
 1296loPI   GL220726   4.619   6.042   4.984  0.1472  0.0279  0.0564
 1296loPI   C1A20727   4.137   5.849   4.940 -0.2143  0.2471 -0.0464
 1296loPI   C2A20728   3.837   5.666   5.207 -0.1891  0.2148  0.0868
 1296loPI   C3A20729   3.770   5.672   5.624  0.0137  0.0816 -0.1098
 1296loPI   C4A20730   3.782   5.535   6.061  0.2239 -0.2443 -0.1735
 1296loPI   C5A20731   3.709   5.426   6.478 -0.1026 -0.0410  0.3008
 1296loPI   C6A20732   3.752   5.479   6.903 -0.3074 -0.0215 -0.0734
 1296loPI   C1B20733   4.719   6.141   5.430  0.2929  0.2888 -0.0275
 1296loPI   C2B20734   4.553   6.178   5.825 -0.0795 -0.0605 -0.1020
 1296loPI   C3B20735   4.677   6.068   6.262 -0.0350  0.1187 -0.0471
 1296loPI   C4B20736   4.655   5.973   6.705  0.1207 -0.1204  0.1672
 1297loPI    C120737   6.820  12.182   4.600 -0.0235  0.0877  0.1878
 1297loPI    C220738   6.799  11.934   4.287  0.0336  0.1007  0.1735
 1297loPI    C320739   6.689  12.317   4.247 -0.2454  0.0301  0.2469
 1297loPI   PO420740   6.627  12.140   4.944 -0.0137 -0.1333 -0.4822
 1297loPI   GL120741   6.644  12.122   5.376 -0.0854 -0.0509  0.0070
 1297loPI   GL220742   6.672  12.419   5.546  0.2016  0.1133 -0.1211
 1297loPI   C1A20743   6.815  11.832   5.588  0.0801 -0.0036 -0.0814
 1297loPI   C2A20744   6.861  11.783   5.951 -0.0271 -0.0543  0.2144
 1297loPI   C3A20745   7.022  11.941   6.293 -0.0798  0.1630  0.0398
 1297loPI   C4A20746   7.038  12.035   6.712  0.0697  0.1378  0.1182
 1297loPI   C5A20747   7.140  12.163   7.156  0.0172  0.0238  0.0948
 1297loPI   C6A20748   7.491  12.423   7.373 -0.1304 -0.0951  0.1990
 1297loPI   C1B20749   6.820  12.415   5.890  0.3321 -0.3005  0.1253
 1297loPI   C2B20750   6.855  12.418   6.327  0.0306 -0.1578  0.1256
 1297loPI   C3B20751   6.827  12.475   6.839 -0.1280  0.1297 -0.0769
 1297loPI   C4B20752   6.886  12.684   7.159 -0.0441 -0.1100 -0.1243
 1298loPI    C120753  18.375   5.464   5.907 -0.1347  0.2123 -0.1720
 1298loPI    C220754  18.304   5.313   5.544  0.2318 -0.1032 -0.1190
 1298loPI    C320755  18.631   5.535   5.609  0.2399 -0.1629  0.0493
 1298loPI   PO420756  18.119   5.417   6.059 -0.5212 -0.0196  0.1222
 1298loPI   GL120757  17.864   5.747   6.314 -0.2694 -0.1629 -0.2238
 1298loPI   GL220758  18.203   5.672   6.499 -0.3365  0.1505  0.2138
 1298loPI   C1A20759  17.678   5.599   6.716  0.0944 -0.1897 -0.0930
 1298loPI   C2A20760  17.326   5.438   7.021  0.1226 -0.3158 -0.0939
 1298loPI   C3A20761  17.066   5.082   7.219  0.1035  0.0979  0.3142
 1298loPI   C4A20762  16.612   4.928   7.424 -0.3424 -0.0732 -0.0764
 1298loPI   C5A20763  16.187   5.048   7.428  0.1850 -0.1607  0.1366
 1298loPI   C6A20764  15.839   5.265   7.582  0.1975 -0.0156  0.0260
 1298loPI   C1B20765  18.440   6.013   6.775  0.2270 -0.1626 -0.1346
 1298loPI   C2B20766  18.501   6.039   7.199 -0.0167 -0.1006  0.2129
 1298loPI   C3B20767  18.326   6.075   7.576 -0.0855 -0.1839  0.1807
 1298loPI   C4B20768  18.166   6.311   7.928  0.1710 -0.1616  0.3543
 1299loPI    C120769  14.920   6.651   5.244 -0.0272 -0.0081 -0.0001
 1299loPI    C220770  14.953   7.038   5.146 -0.0213  0.0215  0.1175
 1299loPI    C320771  14.991   6.756   4.865 -0.4647  0.1224 -0.0522
 1299loPI   PO420772  14.994   6.547   5.429  0.2651 -0.3600 -0.0621
 1299loPI   GL120773  14.957   6.659   5.897  0.2407 -0.1911 -0.1324
 1299loPI   GL220774  14.943   6.423   6.152 -0.1080  0.1863  0.3232
 1299loPI   C1A20775  14.836   7.031   6.215  0.3355 -0.0866 -0.0996
 1299loPI   C2A20776  14.741   7.388   6.461  0.0420 -0.0997  0.1655
 1299loPI   C3A20777  14.379   7.558   6.719  0.2625  0.0776  0.0826
 1299loPI   C4A20778  14.271   7.507   7.208  0.0200  0.0100  0.3462
 1299loPI   C5A20779  14.263   7.685   7.625 -0.1230 -0.0401 -0.0681
 1299loPI   C6A20780  14.651   7.821   7.872 -0.0808  0.0649  0.0849
 1299loPI   C1B20781  14.950   6.609   6.483 -0.0965 -0.0060  0.1140
 1299loPI   C2B20782  14.864   6.916   6.811  0.0102  0.1097 -0.0400
 1299loPI   C3B20783  14.767   7.315   6.997 -0.0923 -0.1747 -0.0212
 1299loPI   C4B20784  14.725   7.421   7.389  0.0556  0.2361 -0.1500
 1300loPI    C120785  14.414   8.850   5.324  0.0291 -0.0085 -0.0418
 1300loPI    C220786  14.203   8.519   5.247 -0.1187  0.1249 -0.2198
 1300loPI    C320787  14.573   8.559   5.100 -0.0734  0.0090 -0.1388
 1300loPI   PO420788  14.424   8.868   5.549  0.0322 -0.1438  0.1177
 1300loPI   GL120789  14.562   8.773   5.882  0.3024  0.1620  0.2344
 1300loPI   GL220790  14.300   8.784   6.016  0.1598  0.1491  0.0929
 1300loPI   C1A20791  14.738   8.960   6.144 -0.3902 -0.2161 -0.0974
 1300loPI   C2A20792  14.665   9.079   6.649 -0.1257 -0.2208 -0.0494
 1300loPI   C3A20793  14.675   9.012   7.003  0.1396 -0.0183 -0.0008
 1300loPI   C4A20794  14.901   8.904   7.354 -0.0573  0.0489  0.2219
 1300loPI   C5A20795  14.958   8.981   7.775  0.0990  0.0060  0.3079
 1300loPI   C6A20796  15.300   9.297   7.928  0.0696 -0.0228  0.0166
 1300loPI   C1B20797  14.345   8.769   6.426 -0.0014  0.0542  0.1198
 1300loPI   C2B20798  14.314   8.609   6.830 -0.0438 -0.1516 -0.1969
 1300loPI   C3B20799  14.229   8.583   7.281 -0.3418  0.0015 -0.1627
 1300loPI   C4B20800  14.052   8.781   7.665  0.1327  0.1709  0.2434
 1301loPI    C120801   1.583   6.340   4.767  0.4734  0.0476  0.1731
 1301loPI    C220802   1.823   6.101   4.554  0.0482  0.0514 -0.3310
 1301loPI    C320803   1.747   6.472   4.427 -0.0070  0.1461 -0.0292
 1301loPI   PO420804   1.672   6.195   5.034 -0.1740  0.0585  0.0446
 1301loPI   GL120805   1.742   6.269   5.483  0.0176 -0.3226  0.1072
 1301loPI   GL220806   1.988   6.119   5.733  0.2754 -0.1476 -0.1725
 1301loPI   C1A20807   1.686   6.440   5.880 -0.2424 -0.2645 -0.2306
 1301loPI   C2A20808   1.752   6.524   6.278  0.0989  0.0043 -0.2069
 1301loPI   C3A20809   1.987   6.812   6.568  0.0168 -0.2607 -0.2213
 1301loPI   C4A20810   1.941   6.970   6.950 -0.1158 -0.3128  0.3643
 1301loPI   C5A20811   1.620   6.987   7.311 -0.1107 -0.0853 -0.2831
 1301loPI   C6A20812   1.377   7.011   7.706  0.0146  0.1166 -0.0235
 1301loPI   C1B20813   2.007   5.999   6.153 -0.1550 -0.3136 -0.2811
 1301loPI   C2B20814   2.073   6.199   6.574  0.0598  0.1431 -0.2862
 1301loPI   C3B20815   1.961   6.477   6.887  0.1797 -0.0186 -0.0212
 1301loPI   C4B20816   2.138   6.687   7.347 -0.1134 -0.0447  0.0661
 1302loPI    C120817  17.283  12.228   5.015  0.3697  0.0218  0.1096
 1302loPI    C220818  17.536  12.237   4.705 -0.0338 -0.1478 -0.2348
 1302loPI    C320819  17.195  12.445   4.691 -0.0385 -0.1256  0.1167
 1302loPI   PO420820  17.374  12.203   5.211 -0.0332  0.2279  0.3450
 1302loPI   GL120821  17.529  11.847   5.516  0.0172  0.0656 -0.2297
 1302loPI   GL220822  17.192  11.888   5.558  0.2068 -0.1969 -0.2137
 1302loPI   C1A20823  17.766  11.761   5.910 -0.1350 -0.2584  0.1041
 1302loPI   C2A20824  17.951  11.855   6.338 -0.4607  0.0284  0.0793
 1302loPI   C3A20825  17.914  11.851   6.743 -0.3964  0.0937 -0.0064
 1302loPI   C4A20826  17.802  11.864   7.195 -0.0373  0.1547 -0.0864
 1302loPI   C5A20827  17.812  11.867   7.520  0.1735  0.1121  0.1933
 1302loPI   C6A20828  17.480  12.035   7.736  0.3636  0.0439 -0.0516
 1302loPI   C1B20829  17.365  12.033   5.967  0.1273 -0.0256  0.2562
 1302loPI   C2B20830  17.440  11.941   6.395  0.3512  0.0777 -0.0577
 1302loPI   C3B20831  17.412  11.972   6.843 -0.0550  0.2713  0.0936
 1302loPI   C4B20832  17.281  11.986   7.254 -0.1895  0.0522 -0.3363
 1303loPI    C120833   3.192  11.686   4.927  0.0132  0.0926 -0.0150
 1303loPI    C220834   2.982  11.719   4.588 -0.0393  0.1060  0.0187
 1303loPI    C320835   3.381  11.736   4.578 -0.0186 -0.3156 -0.0961
 1303loPI   PO420836   3.152  11.907   5.098 -0.2115  0.2032 -0.1869
 1303loPI   GL120837   3.010  11.730   5.471  0.3024  0.0869 -0.0798
 1303loPI   GL220838   2.765  11.499   5.629  0.2276  0.1311 -0.1986
 1303loPI   C1A20839   3.076  11.877   5.866 -0.3303 -0.1620  0.1480
 1303loPI   C2A20840   3.087  11.918   6.185  0.3234 -0.1784 -0.3569
 1303loPI   C3A20841   3.188  11.761   6.579 -0.1336  0.2633 -0.1048
 1303loPI   C4A20842   3.271  11.551   6.967  0.1585  0.2791 -0.1825
 1303loPI   C5A20843   3.586  11.255   6.947 -0.1400  0.2329 -0.2170
 1303loPI   C6A20844   3.792  11.088   6.535 -0.0980 -0.4489 -0.1893
 1303loPI   C1B20845   2.790  11.543   6.103 -0.0679 -0.0775 -0.1093
 1303loPI   C2B20846   2.887  11.398   6.446  0.2812  0.3187  0.1543
 1303loPI   C3B20847   2.828  11.466   6.823  0.0879 -0.0837 -0.3436
 1303loPI   C4B20848   2.856  11.262   7.224  0.0831  0.0958  0.1673
 1304loPI    C120849  17.865  10.754   4.995  0.2012 -0.2069 -0.3681
 1304loPI    C220850  17.556  10.561   4.829 -0.2208  0.2376 -0.1282
 1304loPI    C320851  17.655  10.927   4.702  0.1703  0.1282 -0.1541
 1304loPI   PO420852  17.819  10.701   5.225  0.0639  0.0468  0.0909
 1304loPI   GL120853  17.702  10.499   5.642 -0.0245 -0.2262  0.0162
 1304loPI   GL220854  17.645  10.874   5.619  0.0245 -0.3374  0.0269
 1304loPI   C1A20855  17.702  10.452   6.127  0.6937 -0.0608  0.2134
 1304loPI   C2A20856  17.645  10.538   6.559 -0.1431  0.5184 -0.0232
 1304loPI   C3A20857  17.650  10.491   7.000 -0.0226  0.1202  0.1329
 1304loPI   C4A20858  17.569  10.503   7.368 -0.0719 -0.1251 -0.2353
 1304loPI   C5A20859  17.530  10.610   7.846  0.0530  0.2342  0.2437
 1304loPI   C6A20860  17.752  10.797   8.281  0.0136 -0.3746  0.0954
 1304loPI   C1B20861  17.609  11.006   6.050 -0.1314  0.0621 -0.0640
 1304loPI   C2B20862  17.538  10.999   6.438  0.0819 -0.1250 -0.2850
 1304loPI   C3B20863  17.518  10.995   6.931  0.1684  0.0689  0.0796
 1304loPI   C4B20864  17.395  11.060   7.403  0.1159 -0.3300 -0.1712
 1305loPI    C120865  13.103  13.766   5.141 -0.1911  0.0745 -0.0253
 1305loPI    C220866  13.383  13.990   4.965 -0.1147  0.1409  0.1771
 1305loPI    C320867  13.011  14.131   5.006 -0.0389  0.2806  0.4065
 1305loPI   PO420868  13.152  13.639   5.427 -0.1883 -0.3577 -0.0658
 1305loPI   GL120869  13.374  13.513   5.795 -0.0914 -0.0076  0.2971
 1305loPI   GL220870  13.493  13.910   5.820  0.0232 -0.0377  0.2134
 1305loPI   C1A20871  13.257  13.417   6.173  0.0673  0.1057  0.2307
 1305loPI   C2A20872  13.037  13.679   6.518 -0.0710  0.2312  0.1635
 1305loPI   C3A20873  12.912  13.833   7.006 -0.2031 -0.1251  0.2369
 1305loPI   C4A20874  12.922  13.907   7.424  0.0330  0.1567  0.1765
 1305loPI   C5A20875  13.174  13.933   7.804 -0.1510  0.1296  0.1490
 1305loPI   C6A20876  13.394  14.232   8.100 -0.0874  0.0961  0.0641
 1305loPI   C1B20877  13.114  14.045   6.135  0.1395  0.0633  0.3764
 1305loPI   C2B20878  13.023  14.198   6.479  0.2363 -0.0614  0.0319
 1305loPI   C3B20879  13.130  14.286   6.995 -0.1804 -0.1138  0.0238
 1305loPI   C4B20880  13.372  14.184   7.415 -0.0971  0.0628  0.2122
 1306loPI    C120881  16.791   0.655   4.841 -0.0820  0.0307 -0.1068
 1306loPI    C220882  16.459   0.683   4.619  0.0608 -0.1014 -0.3411
 1306loPI    C320883  16.783   0.500   4.472 -0.0136 -0.6800  0.1742
 1306loPI   PO420884  16.723   0.600   5.077  0.3267  0.2008  0.0450
 1306loPI   GL120885  16.717   0.786   5.515 -0.1484 -0.0281  0.2067
 1306loPI   GL220886  16.786   0.432   5.713  0.0161  0.3152 -0.1447
 1306loPI   C1A20887  16.707   0.892   6.030  0.3178  0.0240 -0.0205
 1306loPI   C2A20888  16.703   0.885   6.486  0.0097 -0.1193 -0.0776
 1306loPI   C3A20889  16.890   0.837   6.894  0.1133  0.0826  0.0715
 1306loPI   C4A20890  17.012   0.942   7.383  0.1877  0.1083  0.1316
 1306loPI   C5A20891  16.837   1.097   7.738  0.1411  0.2751  0.1297
 1306loPI   C6A20892  16.358   1.193   7.830  0.1458 -0.1570  0.0360
 1306loPI   C1B20893  16.771   0.415   6.179 -0.2197  0.1076  0.2086
 1306loPI   C2B20894  16.923   0.411   6.542 -0.1112  0.2209 -0.2184
 1306loPI   C3B20895  17.030   0.277   6.976  0.0064 -0.3597 -0.0736
 1306loPI   C4B20896  16.998   0.337   7.420  0.1261 -0.2347  0.0161
 1307loPI    C120897  18.563  15.247   4.927 -0.0856 -0.1780  0.1202
 1307loPI    C220898  18.703  14.877   4.871 -0.0040 -0.1389  0.0632
 1307loPI    C320899  18.935  15.154   5.042  0.0525 -0.0257 -0.1931
 1307loPI   PO420900  18.303  15.292   5.074 -0.0596 -0.1180 -0.0381
 1307loPI   GL120901  18.284  15.417   5.495  0.1577  0.1408  0.3653
 1307loPI   GL220902  18.622  15.248   5.506  0.1512 -0.0727 -0.2433
 1307loPI   C1A20903  18.395  15.582   5.894  0.2565 -0.2284 -0.1890
 1307loPI   C2A20904  18.601  15.496   6.312 -0.1206  0.1310  0.1760
 1307loPI   C3A20905  18.544  15.685   6.579  0.1008  0.3834 -0.1392
 1307loPI   C4A20906  18.502  15.858   7.020  0.2682 -0.1397  0.1633
 1307loPI   C5A20907  18.538  16.278   7.161 -0.2256 -0.1353 -0.1449
 1307loPI   C6A20908  18.374  16.450   7.429  0.2640  0.3827 -0.0568
 1307loPI   C1B20909  18.584  15.079   5.939  0.1643  0.3082 -0.3621
 1307loPI   C2B20910  18.576  14.914   6.399  0.0294 -0.1768  0.2244
 1307loPI   C3B20911  18.551  14.412   6.486 -0.3844  0.0771 -0.1951
 1307loPI   C4B20912  18.534  14.105   6.796 -0.0361 -0.0424  0.1632
 1308loPI    C120913  14.809  -0.103   4.633 -0.1042  0.1063 -0.3652
 1308loPI    C220914  14.976   0.257   4.683 -0.1962  0.1276 -0.2024
 1308loPI    C320915  15.187  -0.040   4.519  0.0160  0.1435  0.0366
 1308loPI   PO420916  14.766  -0.167   4.894 -0.1056 -0.1756 -0.2147
 1308loPI   GL120917  14.775  -0.034   5.303  0.0968  0.1560 -0.0191
 1308loPI   GL220918  14.834   0.237   5.254 -0.3510 -0.0971 -0.1405
 1308loPI   C1A20919  14.692  -0.232   5.708 -0.0082 -0.1982 -0.1126
 1308loPI   C2A20920  14.524  -0.133   6.153  0.0589  0.1001 -0.0756
 1308loPI   C3A20921  14.608  -0.279   6.582 -0.1432  0.1071 -0.2587
 1308loPI   C4A20922  14.765  -0.180   6.950  0.2022  0.3373  0.1218
 1308loPI   C5A20923  14.686  -0.119   7.354 -0.0267 -0.2004 -0.2291
 1308loPI   C6A20924  14.917   0.155   7.642  0.3767 -0.0265 -0.0744
 1308loPI   C1B20925  14.736   0.269   5.760 -0.2530 -0.0267 -0.2144
 1308loPI   C2B20926  14.524   0.319   6.199  0.1706 -0.1349  0.0497
 1308loPI   C3B20927  14.593   0.240   6.721 -0.2084 -0.0353 -0.0765
 1308loPI   C4B20928  14.710   0.339   7.220 -0.1102  0.1499 -0.1517
 1309loPI    C120929   1.732   5.251   5.236  0.2054  0.1055 -0.2172
 1309loPI    C220930   1.657   4.915   5.032  0.0018 -0.1282  0.2268
 1309loPI    C320931   1.471   5.255   4.934 -0.1506 -0.2541  0.0737
 1309loPI   PO420932   1.996   5.219   5.284  0.1918 -0.0975 -0.0664
 1309loPI   GL120933   2.130   4.992   5.513  0.1439  0.1827  0.0138
 1309loPI   GL220934   1.854   4.756   5.476  0.1021  0.0738  0.4457
 1309loPI   C1A20935   2.394   5.165   5.923 -0.1037 -0.0215  0.4090
 1309loPI   C2A20936   2.451   5.189   6.366  0.3373  0.1661  0.2260
 1309loPI   C3A20937   2.389   5.264   6.805 -0.1575  0.0288 -0.0518
 1309loPI   C4A20938   2.191   4.960   7.141  0.0762 -0.0804  0.1137
 1309loPI   C5A20939   1.884   4.815   7.435  0.3196  0.2429  0.2557
 1309loPI   C6A20940   1.666   4.471   7.602 -0.1767 -0.0966  0.2481
 1309loPI   C1B20941   2.006   4.586   5.912  0.0287 -0.2265  0.1617
 1309loPI   C2B20942   2.229   4.282   6.044  0.0958  0.1485 -0.2271
 1309loPI   C3B20943   2.380   4.190   6.425 -0.1425 -0.0225  0.2288
 1309loPI   C4B20944   2.243   4.164   6.861  0.0010  0.4744  0.0949
 1310loPI    C120945   8.437   1.643   5.096  0.1080  0.0387 -0.0840
 1310loPI    C220946   8.215   1.670   4.765  0.1491  0.0102 -0.1140
 1310loPI    C320947   8.551   1.454   4.762  0.0586 -0.1340 -0.0044
 1310loPI   PO420948   8.315   1.595   5.250  0.0368  0.0424 -0.3493
 1310loPI   GL120949   8.119   1.639   5.643 -0.0221  0.1632  0.0593
 1310loPI   GL220950   7.977   1.927   5.729  0.1263  0.0145  0.2095
 1310loPI   C1A20951   8.238   1.657   6.111 -0.1178 -0.0958  0.1962
 1310loPI   C2A20952   8.408   1.422   6.460  0.0910 -0.4904  0.2851
 1310loPI   C3A20953   8.586   1.328   6.817 -0.2026 -0.4254  0.2631
 1310loPI   C4A20954   8.511   1.261   7.249 -0.1373 -0.0227 -0.0620
 1310loPI   C5A20955   8.273   1.309   7.594  0.3707  0.0204 -0.1249
 1310loPI   C6A20956   8.071   1.473   7.915 -0.0443 -0.1308 -0.0608
 1310loPI   C1B20957   7.829   2.187   6.044 -0.1199  0.3667 -0.2216
 1310loPI   C2B20958   7.683   2.329   6.386 -0.1030 -0.0174 -0.0754
 1310loPI   C3B20959   7.683   2.423   6.700 -0.1660 -0.0780 -0.1059
 1310loPI   C4B20960   7.648   2.398   7.133  0.2398 -0.2175  0.0576
 1311loPI    C120961  10.690   0.429   4.752 -0.0165 -0.0787  0.1006
 1311loPI    C220962  10.756   0.592   4.393  0.0466  0.0489  0.1694
 1311loPI    C320963  10.606   0.222   4.421 -0.0366  0.0701  0.0120
 1311loPI   PO420964  10.893   0.614   4.915 -0.2416 -0.2282 -0.1722
 1311loPI   GL120965  11.080   0.681   5.348  0.1924 -0.2490  0.2184
 1311loPI   GL220966  11.331   0.901   5.357  0.1345 -0.0145  0.2368
 1311loPI   C1A20967  11.309   0.388   5.589 -0.1322 -0.1380 -0.0360
 1311loPI   C2A20968  11.427   0.331   6.008  0.1261 -0.2654 -0.0152
 1311loPI   C3A20969  11.426   0.619   6.370  0.4549 -0.0419 -0.0635
 1311loPI   C4A20970  11.469   0.943   6.758  0.1385  0.1897  0.3778
 1311loPI   C5A20971  11.667   0.756   7.066  0.1880  0.0927 -0.1918
 1311loPI   C6A20972  11.836   0.572   7.323  0.0396  0.3026 -0.1774
 1311loPI   C1B20973  11.575   0.778   5.651  0.1093 -0.0614 -0.4308
 1311loPI   C2B20974  11.794   0.851   5.937  0.4547  0.1590  0.2524
 1311loPI   C3B20975  11.850   0.791   6.464 -0.0961 -0.0757 -0.0511
 1311loPI   C4B20976  12.058   0.624   6.857 -0.0462 -0.0415  0.1026
 1312loPI    C120977  15.768  15.756   5.300  0.1390  0.1229 -0.1372
 1312loPI    C220978  16.153  15.800   5.400  0.2318 -0.3271 -0.2709
 1312loPI    C320979  16.055  15.686   5.030 -0.0556  0.1933 -0.3658
 1312loPI   PO420980  15.642  15.999   5.320 -0.1131 -0.1011 -0.0185
 1312loPI   GL120981  15.608  16.327   5.578 -0.0356 -0.0885  0.4445
 1312loPI   GL220982  15.950  16.486   5.553 -0.1104 -0.0937  0.0496
 1312loPI   C1A20983  15.597  16.488   5.911 -0.0522  0.0421  0.0896
 1312loPI   C2A20984  15.385  16.744   6.126  0.1581 -0.0621  0.0239
 1312loPI   C3A20985  15.423  17.186   6.399  0.1797  0.0878 -0.0645
 1312loPI   C4A20986  15.505  17.512   6.779  0.1220  0.2245 -0.2195
 1312loPI   C5A20987  15.836  17.675   6.969  0.1421  0.1801  0.1794
 1312loPI   C6A20988  15.731  17.660   7.384 -0.1624 -0.2517  0.1553
 1312loPI   C1B20989  16.023  16.730   5.941 -0.1067  0.0143 -0.0685
 1312loPI   C2B20990  15.835  16.813   6.355  0.1715  0.3757 -0.0599
 1312loPI   C3B20991  15.652  16.787   6.702  0.0905 -0.0447  0.2204
 1312loPI   C4B20992  15.505  17.014   7.055 -0.1696  0.2165 -0.0719
 1313loPI    C120993   0.050   3.211   4.878 -0.0847 -0.0599 -0.2229
 1313loPI    C220994   0.204   3.141   4.515  0.0582 -0.0313 -0.1687
 1313loPI    C320995   0.015   3.486   4.590  0.0731 -0.0160 -0.2011
 1313loPI   PO420996   0.220   3.201   5.019 -0.1940  0.2118 -0.1353
 1313loPI   GL120997   0.345   3.315   5.387 -0.0028  0.1390  0.1686
 1313loPI   GL220998   0.346   3.629   5.493 -0.1312 -0.3749  0.2028
 1313loPI   C1A20999   0.437   3.046   5.675  0.1202 -0.0050 -0.3315
 1313loPI   C2A21000   0.673   3.042   6.070 -0.2345 -0.0267 -0.3209
 1313loPI   C3A21001   0.936   2.845   6.358 -0.0200  0.0062 -0.0168
 1313loPI   C4A21002   0.917   2.805   6.783  0.0414 -0.1667  0.0636
 1313loPI   C5A21003   0.820   2.752   7.271  0.0524 -0.4720 -0.0682
 1313loPI   C6A21004   0.595   2.833   7.683  0.1576 -0.1273  0.1258
 1313loPI   C1B21005   0.472   3.506   5.842  0.0302  0.0456 -0.1475
 1313loPI   C2B21006   0.490   3.554   6.239  0.4934  0.1710 -0.1640
 1313loPI   C3B21007   0.334   3.477   6.614  0.0618 -0.2207 -0.2526
 1313loPI   C4B21008   0.367   3.500   6.990  0.1512 -0.1630 -0.2231
 1314loPI    C121009  15.284   0.478   5.023 -0.1126  0.3427 -0.1421
 1314loPI    C221010  15.558   0.284   4.805 -0.0337  0.0658  0.1955
 1314loPI    C321011  15.590   0.679   4.861  0.2348  0.0542  0.1389
 1314loPI   PO421012  15.284   0.444   5.191 -0.0604  0.0293  0.1532
 1314loPI   GL121013  15.292   0.243   5.531 -0.2259  0.0172 -0.0099
 1314loPI   GL221014  15.243  -0.050   5.589 -0.0326 -0.0674  0.1700
 1314loPI   C1A21015  15.441   0.270   5.918  0.0527 -0.1220 -0.3269
 1314loPI   C2A21016  15.465   0.397   6.408 -0.3679 -0.2698 -0.3532
 1314loPI   C3A21017  15.520   0.390   6.940 -0.0822  0.0167 -0.1404
 1314loPI   C4A21018  15.613   0.478   7.343  0.1132  0.1035 -0.0370
 1314loPI   C5A21019  15.567   0.219   7.750 -0.0464  0.1477 -0.0398
 1314loPI   C6A21020  15.788  -0.130   8.063 -0.0727  0.0425 -0.0415
 1314loPI   C1B21021  15.559  -0.173   5.739 -0.1187 -0.3105  0.0263
 1314loPI   C2B21022  15.950  -0.327   6.002  0.1659  0.0080  0.3048
 1314loPI   C3B21023  16.120  -0.227   6.358 -0.1758 -0.1161 -0.2164
 1314loPI   C4B21024  16.281  -0.344   6.785  0.1684 -0.2493  0.1294
 1315loPI    C121025  10.254   0.979   4.392 -0.0988  0.0509  0.0969
 1315loPI    C221026  10.490   0.841   4.100 -0.1828 -0.1100  0.1042
 1315loPI    C321027  10.492   1.230   4.190 -0.0168 -0.0894  0.0170
 1315loPI   PO421028  10.343   0.765   4.618 -0.0181 -0.3343  0.1260
 1315loPI   GL121029  10.448   0.942   5.043 -0.0664  0.0169 -0.3433
 1315loPI   GL221030  10.689   1.062   5.125 -0.0674  0.0152 -0.3362
 1315loPI   C1A21031  10.339   0.915   5.507 -0.2813 -0.0853  0.0066
 1315loPI   C2A21032  10.358   1.154   5.882 -0.1026  0.1420  0.0148
 1315loPI   C3A21033  10.421   1.422   6.265  0.0132 -0.3172  0.3202
 1315loPI   C4A21034  10.524   1.487   6.647  0.0848 -0.0668  0.0491
 1315loPI   C5A21035  10.767   1.411   6.966 -0.0204  0.1944  0.0722
 1315loPI   C6A21036  10.892   0.974   7.101  0.1581  0.4211 -0.0374
 1315loPI   C1B21037  10.841   1.103   5.477 -0.1311 -0.0020 -0.0902
 1315loPI   C2B21038  10.989   0.819   5.819  0.1649 -0.0403 -0.1462
 1315loPI   C3B21039  11.074   0.975   6.268 -0.0502  0.0864  0.0289
 1315loPI   C4B21040  10.857   1.123   6.589 -0.0668 -0.1870 -0.0042
 1316loPI    C121041  13.820  12.305   5.067  0.1174 -0.0424 -0.0316
 1316loPI    C221042  14.089  12.448   4.808 -0.0599  0.2635 -0.0520
 1316loPI    C321043  14.139  12.085   4.969  0.1115  0.1163 -0.4258
 1316loPI   PO421044  13.701  12.568   5.213  0.1102  0.2891  0.3756
 1316loPI   GL121045  13.795  12.937   5.458 -0.0758  0.1212  0.1004
 1316loPI   GL221046  14.032  12.887   5.625 -0.0892  0.0398 -0.0222
 1316loPI   C1A21047  13.650  13.164   5.829 -0.0014  0.2226  0.1682
 1316loPI   C2A21048  13.651  13.127   6.321  0.0117  0.2926 -0.2078
 1316loPI   C3A21049  13.296  13.228   6.572  0.0427 -0.0100  0.4724
 1316loPI   C4A21050  13.306  13.470   7.011  0.1445  0.0234  0.1979
 1316loPI   C5A21051  13.319  13.552   7.485  0.1383  0.0616  0.2037
 1316loPI   C6A21052  13.577  13.480   7.822  0.2686 -0.0553  0.0279
 1316loPI   C1B21053  13.743  12.730   6.005  0.1633  0.0313  0.0559
 1316loPI   C2B21054  13.864  12.457   6.267  0.1793 -0.2598  0.4163
 1316loPI   C3B21055  13.631  12.271   6.582  0.2665  0.1207  0.1124
 1316loPI   C4B21056  13.364  12.040   6.920  0.0761  0.1113 -0.0656
 1317loPI    C121057   6.010   1.240   4.660 -0.0970  0.1240 -0.1124
 1317loPI    C221058   6.237   1.554   4.562  0.1389  0.0044  0.0403
 1317loPI    C321059   6.339   1.323   4.872 -0.0794 -0.1736 -0.0180
 1317loPI   PO421060   5.746   1.275   4.764 -0.2672 -0.0753  0.0649
 1317loPI   GL121061   5.609   1.140   5.072  0.1248  0.0521  0.0544
 1317loPI   GL221062   5.663   1.283   5.356  0.0625 -0.3275  0.1235
 1317loPI   C1A21063   5.457   0.794   5.398  0.0265 -0.2852  0.0171
 1317loPI   C2A21064   5.749   0.564   5.569 -0.2565 -0.2498 -0.1889
 1317loPI   C3A21065   6.121   0.589   5.733 -0.0064  0.3893  0.0642
 1317loPI   C4A21066   6.221   0.645   6.188 -0.2679  0.0202  0.0355
 1317loPI   C5A21067   6.165   0.879   6.575 -0.2200 -0.0457  0.2294
 1317loPI   C6A21068   6.259   1.124   6.955  0.2707  0.1959  0.1658
 1317loPI   C1B21069   5.566   1.552   5.665  0.1849 -0.0958 -0.1713
 1317loPI   C2B21070   5.641   1.358   6.029 -0.0643 -0.2911  0.0329
 1317loPI   C3B21071   5.718   1.093   6.340 -0.0948 -0.0357  0.0636
 1317loPI   C4B21072   5.714   1.038   6.786 -0.0797 -0.0058  0.1284
 1318loPI    C121073  15.646   7.169   5.190  0.2797  0.1021  0.0219
 1318loPI    C221074  15.402   7.464   5.075 -0.0898 -0.1098  0.2413
 1318loPI    C321075  15.362   7.099   4.917  0.1286 -0.1327  0.2355
 1318loPI   PO421076  15.702   7.364   5.472  0.1682  0.0751 -0.4050
 1318loPI   GL121077  15.656   7.274   5.934 -0.0276  0.0007  0.0406
 1318loPI   GL221078  15.365   7.368   5.985 -0.1300 -0.0205 -0.1575
 1318loPI   C1A21079  15.772   7.143   6.286 -0.0231 -0.0611 -0.1822
 1318loPI   C2A21080  15.791   7.305   6.820 -0.0124  0.0063  0.2203
 1318loPI   C3A21081  15.710   7.433   7.201 -0.0518  0.2556 -0.0266
 1318loPI   C4A21082  15.854   7.362   7.690  0.2921  0.0384 -0.0508
 1318loPI   C5A21083  15.985   7.014   7.900 -0.0930  0.2247  0.2303
 1318loPI   C6A21084  15.604   6.739   8.199 -0.0039  0.2421  0.0708
 1318loPI   C1B21085  15.324   7.412   6.442 -0.2359  0.2254 -0.0060
 1318loPI   C2B21086  15.328   7.424   6.851  0.3478 -0.2486 -0.0821
 1318loPI   C3B21087  15.199   7.439   7.318  0.1413  0.0610 -0.1494
 1318loPI   C4B21088  15.204   7.438   7.745  0.0375  0.0180 -0.2672
 1319loPI    C121089  15.066   3.160   4.945 -0.0009 -0.0202 -0.1234
 1319loPI    C221090  14.883   3.475   4.780  0.0554  0.1324  0.1015
 1319loPI    C321091  14.734   3.108   4.727 -0.2743  0.2461  0.2172
 1319loPI   PO421092  15.125   3.297   5.211 -0.0843 -0.1013  0.1006
 1319loPI   GL121093  15.119   3.324   5.596 -0.3938 -0.0139 -0.0667
 1319loPI   GL221094  14.839   3.389   5.625 -0.1466  0.1117  0.2979
 1319loPI   C1A21095  15.095   3.213   6.039  0.1228  0.0172  0.1566
 1319loPI   C2A21096  15.104   3.128   6.492  0.0480 -0.0429  0.1829
 1319loPI   C3A21097  15.133   2.946   6.941 -0.1926 -0.3060 -0.2038
 1319loPI   C4A21098  15.101   3.036   7.423 -0.0940 -0.2854 -0.1631
 1319loPI   C5A21099  14.976   3.304   7.836  0.0508  0.1403  0.3166
 1319loPI   C6A21100  14.670   3.343   8.105 -0.1579  0.0341 -0.1564
 1319loPI   C1B21101  14.610   3.387   5.934  0.3326  0.3465  0.0550
 1319loPI   C2B21102  14.558   3.314   6.341  0.3369 -0.1259  0.0002
 1319loPI   C3B21103  14.482   3.288   6.846 -0.3083  0.0449  0.0491
 1319loPI   C4B21104  14.359   2.955   7.091  0.0918 -0.0035  0.0026
 1320loPI    C121105   2.864   3.074   4.920  0.0762 -0.0234 -0.0310
 1320loPI    C221106   2.744   3.247   5.260  0.1272  0.1948 -0.1225
 1320loPI    C321107   3.035   3.414   5.042  0.0899  0.0602 -0.2770
 1320loPI   PO421108   2.757   2.868   4.859 -0.4027  0.0777 -0.0194
 1320loPI   GL121109   2.616   2.683   5.218  0.2550 -0.2221 -0.0484
 1320loPI   GL221110   2.483   2.325   5.360 -0.3625  0.3646  0.2430
 1320loPI   C1A21111   2.432   2.797   5.619 -0.4216  0.1686  0.4647
 1320loPI   C2A21112   2.274   3.096   5.960 -0.1154  0.1193 -0.0266
 1320loPI   C3A21113   2.213   3.137   6.381  0.0597 -0.2301  0.0324
 1320loPI   C4A21114   2.181   3.286   6.798  0.3807  0.0435  0.1154
 1320loPI   C5A21115   2.129   3.302   7.186  0.0267 -0.1211  0.0265
 1320loPI   C6A21116   1.970   3.094   7.590  0.1022  0.2513 -0.2337
 1320loPI   C1B21117   2.800   2.369   5.601 -0.0177 -0.2344  0.1469
 1320loPI   C2B21118   2.696   2.344   6.033  0.0334 -0.1182  0.1103
 1320loPI   C3B21119   2.713   2.326   6.443 -0.2364  0.0151 -0.2399
 1320loPI   C4B21120   2.577   2.363   6.759  0.2488  0.3899  0.0671
 1321loPI    C121121   9.180   8.977   5.332 -0.0488 -0.2183 -0.0727
 1321loPI    C221122   9.456   8.918   5.616 -0.0027  0.0966 -0.0479
 1321loPI    C321123   9.537   8.825   5.236 -0.0128 -0.1923  0.0182
 1321loPI   PO421124   8.953   8.851   5.507  0.0747 -0.1091  0.0313
 1321loPI   GL121125   8.974   8.697   5.959 -0.1098 -0.2971 -0.0581
 1321loPI   GL221126   8.656   8.711   6.088  0.0262 -0.0608  0.2512
 1321loPI   C1A21127   9.068   8.506   6.302  0.0525 -0.0840  0.0023
 1321loPI   C2A21128   9.092   8.502   6.756  0.2838 -0.1355 -0.2446
 1321loPI   C3A21129   9.176   8.560   7.069 -0.2276  0.1460  0.0514
 1321loPI   C4A21130   8.953   8.570   7.379  0.2169  0.0132  0.2611
 1321loPI   C5A21131   8.593   8.360   7.618  0.2954 -0.3129  0.3051
 1321loPI   C6A21132   8.189   8.288   7.802 -0.2610  0.2475 -0.3801
 1321loPI   C1B21133   8.763   9.009   6.368 -0.2028  0.0215  0.0110
 1321loPI   C2B21134   8.877   9.223   6.673 -0.1067  0.1932  0.2106
 1321loPI   C3B21135   8.975   9.378   7.035  0.1891  0.1089  0.1533
 1321loPI   C4B21136   9.163   9.618   7.447 -0.1312  0.4209  0.0428
 1322loPI    C121137  11.351   9.076   5.645 -0.1889  0.1828 -0.1275
 1322loPI    C221138  11.325   9.475   5.667 -0.0299  0.1835  0.0788
 1322loPI    C321139  11.633   9.305   5.477  0.0993  0.1591  0.3056
 1322loPI   PO421140  10.992   8.986   5.587 -0.2292  0.1843 -0.1046
 1322loPI   GL121141  10.625   9.074   5.886 -0.0502  0.1324  0.3244
 1322loPI   GL221142  10.880   9.061   6.086 -0.0416 -0.2163 -0.2470
 1322loPI   C1A21143  10.742   9.486   6.211 -0.0078 -0.2005 -0.3428
 1322loPI   C2A21144  10.699   9.466   6.635 -0.3232  0.1130 -0.1326
 1322loPI   C3A21145  10.755   9.438   7.016 -0.0004 -0.0542  0.0706
 1322loPI   C4A21146  11.056   9.455   7.398 -0.3703 -0.2731 -0.0509
 1322loPI   C5A21147  11.103   9.247   7.783 -0.3295 -0.4304  0.1816
 1322loPI   C6A21148  11.326   9.142   8.171  0.1070  0.0096  0.2267
 1322loPI   C1B21149  10.970   8.647   6.289  0.0120 -0.1420 -0.1770
 1322loPI   C2B21150  10.819   8.337   6.680 -0.0096 -0.1369  0.1718
 1322loPI   C3B21151  10.603   7.964   6.929  0.1213 -0.1288  0.1905
 1322loPI   C4B21152  10.181   8.005   7.103  0.0516 -0.1417  0.1984
 1323loPI    C121153   9.712   3.254   4.588  0.0228  0.1760 -0.0422
 1323loPI    C221154   9.622   3.130   4.218 -0.1856 -0.3482  0.1750
 1323loPI    C321155   9.891   2.930   4.436  0.2212  0.1809  0.1769
 1323loPI   PO421156   9.678   3.238   4.870 -0.1048 -0.0909 -0.0039
 1323loPI   GL121157   9.976   3.288   5.226  0.0547  0.0511  0.2958
 1323loPI   GL221158  10.169   3.139   5.362  0.0478  0.2107  0.2440
 1323loPI   C1A21159   9.880   3.303   5.690  0.0935  0.1784 -0.1530
 1323loPI   C2A21160   9.867   3.224   6.139 -0.1236 -0.1372 -0.3348
 1323loPI   C3A21161   9.933   3.190   6.605  0.3107 -0.0396 -0.0998
 1323loPI   C4A21162   9.858   3.193   6.976  0.2649  0.0389 -0.0702
 1323loPI   C5A21163   9.894   3.351   7.412  0.0025 -0.1059 -0.1640
 1323loPI   C6A21164   9.828   3.499   7.824 -0.1893  0.2408 -0.1524
 1323loPI   C1B21165  10.243   3.004   5.803 -0.1872  0.4675  0.2414
 1323loPI   C2B21166  10.310   3.014   6.254  0.2397  0.1156  0.1093
 1323loPI   C3B21167  10.366   2.985   6.655 -0.0764 -0.0142  0.0528
 1323loPI   C4B21168  10.255   2.930   7.110 -0.0750  0.0972 -0.0761
 1324loPI    C121169   8.557  10.782   5.229  0.2061  0.1509  0.0468
 1324loPI    C221170   8.447  10.398   5.204 -0.2308  0.2666  0.1050
 1324loPI    C321171   8.723  10.543   4.954 -0.0302 -0.0925  0.1106
 1324loPI   PO421172   8.336  10.862   5.299  0.2062 -0.0545  0.3018
 1324loPI   GL121173   8.171  10.655   5.651  0.0090 -0.0535  0.1204
 1324loPI   GL221174   8.463  10.815   5.813  0.1987 -0.2425  0.1350
 1324loPI   C1A21175   7.925  10.838   5.970 -0.1346 -0.0576 -0.1101
 1324loPI   C2A21176   8.022  11.009   6.404 -0.2774 -0.1975 -0.1887
 1324loPI   C3A21177   8.196  11.388   6.475  0.0314 -0.1039  0.0948
 1324loPI   C4A21178   8.361  11.487   6.869  0.1198  0.3039 -0.0127
 1324loPI   C5A21179   8.295  11.409   7.282  0.0551  0.1516  0.1427
 1324loPI   C6A21180   8.095  11.441   7.641 -0.1954 -0.3020  0.0032
 1324loPI   C1B21181   8.448  10.470   6.155  0.0516  0.1978 -0.1428
 1324loPI   C2B21182   8.459  10.447   6.539 -0.0586  0.4031  0.2269
 1324loPI   C3B21183   8.273  10.798   6.819  0.1022 -0.0060  0.0651
 1324loPI   C4B21184   8.058  11.100   6.939  0.3260 -0.2110  0.2947
 1325loPI    C121185  11.817  11.009   4.910  0.2394 -0.1989 -0.0268
 1325loPI    C221186  11.874  11.169   4.548  0.0048  0.0627  0.0486
 1325loPI    C321187  12.144  11.228   4.837 -0.0385  0.2530  0.0510
 1325loPI   PO421188  11.679  11.113   5.002 -0.0280 -0.0362 -0.0967
 1325loPI   GL121189  11.613  10.974   5.465  0.0048  0.4097 -0.1867
 1325loPI   GL221190  11.981  11.042   5.473  0.2492 -0.0246  0.0564
 1325loPI   C1A21191  11.366  11.102   5.843 -0.0434 -0.1112 -0.0113
 1325loPI   C2A21192  11.411  11.152   6.281 -0.2137 -0.0568  0.1790
 1325loPI   C3A21193  11.368  11.160   6.713 -0.0584 -0.1458  0.1400
 1325loPI   C4A21194  11.559  11.100   7.022  0.0720 -0.0209 -0.1092
 1325loPI   C5A21195  11.819  10.916   7.330  0.1392 -0.2113  0.2220
 1325loPI   C6A21196  11.901  10.728   7.703  0.1215  0.2347  0.0020
 1325loPI   C1B21197  11.963  11.081   5.896  0.0967 -0.0329  0.2057
 1325loPI   C2B21198  11.917  11.079   6.346 -0.2832 -0.1347  0.0903
 1325loPI   C3B21199  12.018  10.974   6.841  0.0453  0.1016  0.1144
 1325loPI   C4B21200  12.051  11.297   7.136  0.1129  0.1393 -0.1578
 1326loPI    C121201   0.060   5.742   5.193  0.0759  0.1043 -0.0185
 1326loPI    C221202   0.158   5.532   4.867  0.0102 -0.0324  0.0490
 1326loPI    C321203  -0.067   5.365   5.153  0.0988  0.0739  0.1824
 1326loPI   PO421204   0.319   5.849   5.328  0.2984  0.2172  0.0588
 1326loPI   GL121205   0.495   5.791   5.720 -0.0464 -0.1840 -0.0263
 1326loPI   GL221206   0.576   5.933   5.967 -0.0465  0.1037 -0.0198
 1326loPI   C1A21207   0.167   5.645   6.017 -0.1731  0.0848 -0.0261
 1326loPI   C2A21208  -0.077   5.664   6.366 -0.0217  0.0455 -0.2184
 1326loPI   C3A21209   0.037   5.583   6.766  0.0694  0.0438 -0.1300
 1326loPI   C4A21210  -0.178   5.502   7.230 -0.1914 -0.0448  0.1846
 1326loPI   C5A21211  -0.530   5.451   7.488  0.3926 -0.4521  0.2640
 1326loPI   C6A21212  -0.954   5.713   7.487  0.2017 -0.2799 -0.0146
 1326loPI   C1B21213   0.503   5.830   6.452 -0.0916  0.2511 -0.0302
 1326loPI   C2B21214   0.626   5.640   6.856 -0.2466 -0.1776  0.3993
 1326loPI   C3B21215   0.844   5.316   7.048  0.0893 -0.2395 -0.2588
 1326loPI   C4B21216   0.948   5.011   7.273 -0.0389  0.1416 -0.3346
 1327loPI    C121217   5.848  12.485   4.837 -0.0572 -0.0290 -0.2505
 1327loPI    C221218   5.452  12.447   4.877 -0.0265 -0.0745  0.0288
 1327loPI    C321219   5.660  12.171   4.677 -0.0956 -0.2177  0.1516
 1327loPI   PO421220   5.912  12.555   5.113 -0.0386  0.0490 -0.3148
 1327loPI   GL121221   6.189  12.705   5.433  0.1012 -0.2405 -0.0250
 1327loPI   GL221222   6.375  12.959   5.499 -0.0283 -0.4439  0.0405
 1327loPI   C1A21223   6.257  12.528   5.775 -0.2278 -0.1100  0.0256
 1327loPI   C2A21224   6.346  12.575   6.184 -0.0387  0.1335 -0.0343
 1327loPI   C3A21225   6.373  12.642   6.557  0.0836  0.1375 -0.0111
 1327loPI   C4A21226   6.455  12.853   6.895  0.0076  0.0337  0.2171
 1327loPI   C5A21227   6.188  13.260   7.032 -0.0652 -0.1655 -0.1002
 1327loPI   C6A21228   6.316  13.682   7.092 -0.0512  0.4343  0.3546
 1327loPI   C1B21229   6.718  12.914   5.674 -0.1259  0.0024  0.2118
 1327loPI   C2B21230   6.816  12.860   6.167 -0.0245 -0.3820  0.1912
 1327loPI   C3B21231   6.784  12.946   6.578 -0.1372 -0.0403  0.1414
 1327loPI   C4B21232   7.159  12.949   6.812 -0.0818 -0.0068 -0.1883
 1328loPI    C121233  18.151   4.284   5.509  0.0516 -0.1107 -0.0986
 1328loPI    C221234  18.235   4.441   5.151  0.1372 -0.1017 -0.0746
 1328loPI    C321235  18.503   4.462   5.447  0.1007 -0.1853 -0.0353
 1328loPI   PO421236  17.980   4.261   5.585  0.1813  0.1261 -0.3910
 1328loPI   GL121237  18.019   4.024   5.973  0.2420  0.0925 -0.2827
 1328loPI   GL221238  18.213   3.828   5.967  0.0238  0.0233 -0.2421
 1328loPI   C1A21239  17.718   3.892   6.204  0.1654 -0.2328  0.1016
 1328loPI   C2A21240  17.605   3.972   6.552  0.0380  0.1303  0.0508
 1328loPI   C3A21241  17.657   3.980   6.993  0.0742 -0.1228 -0.4110
 1328loPI   C4A21242  17.903   3.953   7.394  0.1192 -0.0289  0.0074
 1328loPI   C5A21243  18.099   3.829   7.759 -0.0049 -0.2029  0.1876
 1328loPI   C6A21244  18.233   3.556   8.005 -0.2193  0.0883  0.3077
 1328loPI   C1B21245  18.181   3.610   6.246  0.2558  0.0757  0.1479
 1328loPI   C2B21246  18.124   3.294   6.516 -0.2733  0.1421 -0.0787
 1328loPI   C3B21247  18.257   2.869   6.536 -0.0474  0.0998  0.5255
 1328loPI   C4B21248  18.295   2.718   6.906 -0.0929 -0.1165  0.1213
 1329loPI    C121249  18.564  12.997   5.022  0.0042  0.2964  0.0081
 1329loPI    C221250  18.609  13.240   4.708 -0.1010  0.1512 -0.1212
 1329loPI    C321251  18.275  13.023   4.747 -0.1065  0.1987  0.1136
 1329loPI   PO421252  18.714  13.193   5.183 -0.1718  0.0559 -0.1484
 1329loPI   GL121253  18.732  13.185   5.666  0.1821 -0.0302  0.0983
 1329loPI   GL221254  19.086  13.353   5.651 -0.1835 -0.0513 -0.1283
 1329loPI   C1A21255  18.528  13.496   5.932  0.1112  0.2906  0.1599
 1329loPI   C2A21256  18.498  13.462   6.375 -0.1210 -0.1636  0.1421
 1329loPI   C3A21257  18.428  13.545   6.818 -0.1245 -0.0888 -0.0230
 1329loPI   C4A21258  18.116  13.822   7.003 -0.1315 -0.1143 -0.0827
 1329loPI   C5A21259  17.663  14.122   7.030 -0.0622  0.2742  0.0408
 1329loPI   C6A21260  17.218  14.346   7.141  0.2451 -0.2029  0.0461
 1329loPI   C1B21261  19.440  13.350   5.956 -0.2562 -0.0313  0.0097
 1329loPI   C2B21262  19.467  13.184   6.390  0.0207  0.1921 -0.0108
 1329loPI   C3B21263  19.473  13.271   6.887 -0.0754  0.0559 -0.2269
 1329loPI   C4B21264  19.378  13.295   7.262  0.0394  0.1959 -0.1564
 1330loPI    C121265   6.589  15.005   4.924 -0.0266  0.0352  0.0812
 1330loPI    C221266   6.784  15.307   5.098 -0.0336  0.0545  0.0558
 1330loPI    C321267   6.526  15.380   4.802  0.2959 -0.0144 -0.2561
 1330loPI   PO421268   6.530  14.829   5.143  0.4911 -0.0569 -0.0951
 1330loPI   GL121269   6.738  14.889   5.450 -0.0792 -0.1364 -0.0351
 1330loPI   GL221270   6.406  14.808   5.597 -0.0913 -0.2447 -0.1741
 1330loPI   C1A21271   6.800  14.685   5.836 -0.2317 -0.1435  0.0842
 1330loPI   C2A21272   6.798  14.741   6.265  0.1576  0.2813 -0.1515
 1330loPI   C3A21273   6.595  14.829   6.598  0.0432  0.1306 -0.1646
 1330loPI   C4A21274   6.595  14.913   6.892 -0.1304 -0.2356  0.0103
 1330loPI   C5A21275   6.801  14.909   7.233  0.0192  0.1498 -0.2576
 1330loPI   C6A21276   7.054  15.091   7.378 -0.0989  0.2587 -0.1006
 1330loPI   C1B21277   6.496  15.037   5.956 -0.2174 -0.2955 -0.0828
 1330loPI   C2B21278   6.513  15.270   6.260  0.0819 -0.1036 -0.0548
 1330loPI   C3B21279   6.473  15.341   6.669 -0.0917 -0.0882 -0.2533
 1330loPI   C4B21280   6.389  15.676   6.921 -0.1576 -0.0260 -0.0898
 1331loPI    C121281  12.173   9.596   5.377  0.0926 -0.0845  0.1671
 1331loPI    C221282  12.194   9.989   5.311  0.0529 -0.0515  0.3446
 1331loPI    C321283  12.445   9.741   5.122 -0.1190  0.0283  0.0028
 1331loPI   PO421284  12.097   9.560   5.612 -0.2942 -0.1481  0.1563
 1331loPI   GL121285  11.821   9.457   5.950 -0.0089 -0.0240 -0.0225
 1331loPI   GL221286  11.791   9.813   5.963 -0.1331 -0.1409  0.0277
 1331loPI   C1A21287  11.675   9.385   6.335  0.0109 -0.1559  0.0727
 1331loPI   C2A21288  11.647   9.034   6.691 -0.1486 -0.3020 -0.0182
 1331loPI   C3A21289  11.797   9.132   7.126  0.2058 -0.1449  0.3831
 1331loPI   C4A21290  12.052   9.323   7.408 -0.2772 -0.0625  0.3753
 1331loPI   C5A21291  12.158   9.338   7.796 -0.1892  0.0319  0.1112
 1331loPI   C6A21292  12.189   9.446   8.190  0.1937 -0.0505 -0.0329
 1331loPI   C1B21293  11.864  10.131   6.251  0.1105  0.0788 -0.0175
 1331loPI   C2B21294  11.923  10.042   6.658  0.1403  0.1656 -0.2711
 1331loPI   C3B21295  11.696  10.026   6.972 -0.3946  0.0121 -0.0229
 1331loPI   C4B21296  11.798   9.871   7.448 -0.0116 -0.0049  0.1384
 1332loPI    C121297   9.193   1.755   4.951  0.1724  0.1345 -0.0214
 1332loPI    C221298   9.520   1.682   4.733  0.2246  0.1527  0.0506
 1332loPI    C321299   9.219   1.895   4.577  0.0696 -0.2135 -0.1622
 1332loPI   PO421300   9.255   1.856   5.146 -0.0119 -0.0333 -0.0491
 1332loPI   GL121301   9.491   1.908   5.379 -0.1054 -0.1477  0.2206
 1332loPI   GL221302   9.757   1.752   5.246  0.0231  0.1137 -0.0710
 1332loPI   C1A21303   9.287   1.927   5.757  0.0222  0.1476  0.1860
 1332loPI   C2A21304   9.479   1.985   6.051  0.0759 -0.2202  0.0545
 1332loPI   C3A21305   9.580   2.001   6.470  0.1427  0.0290  0.0416
 1332loPI   C4A21306   9.664   1.883   6.896  0.3463  0.0958 -0.0992
 1332loPI   C5A21307   9.875   1.858   7.354 -0.1135 -0.4644  0.0364
 1332loPI   C6A21308  10.245   1.741   7.640 -0.0171  0.2378  0.1483
 1332loPI   C1B21309   9.868   1.744   5.662 -0.0080  0.0848  0.1081
 1332loPI   C2B21310   9.891   1.714   6.157 -0.0325 -0.1908  0.1335
 1332loPI   C3B21311  10.035   1.778   6.590  0.4110 -0.1023  0.0074
 1332loPI   C4B21312  10.102   1.596   6.939  0.0640 -0.2172 -0.1810
 1333loPI    C121313   3.686  16.192   4.912 -0.0013  0.2056 -0.0762
 1333loPI    C221314   3.946  16.035   4.651 -0.0802 -0.0821  0.0148
 1333loPI    C321315   3.553  15.981   4.600 -0.1081  0.0765  0.0553
 1333loPI   PO421316   3.722  16.124   5.107 -0.4394 -0.1338  0.0902
 1333loPI   GL121317   4.001  16.109   5.376  0.1770  0.0466  0.3179
 1333loPI   GL221318   3.977  15.776   5.452  0.1439 -0.1254 -0.1710
 1333loPI   C1A21319   4.241  16.227   5.742  0.0957 -0.1327 -0.3321
 1333loPI   C2A21320   4.280  16.455   6.126  0.0430  0.0004  0.0885
 1333loPI   C3A21321   4.216  16.427   6.588  0.0740  0.5585 -0.2855
 1333loPI   C4A21322   4.480  16.310   6.907  0.2835 -0.1602  0.0504
 1333loPI   C5A21323   4.670  16.004   7.040  0.0770  0.0169 -0.2311
 1333loPI   C6A21324   4.910  15.821   7.487  0.0616 -0.1146 -0.0763
 1333loPI   C1B21325   3.974  15.812   5.877  0.2060  0.0454 -0.0440
 1333loPI   C2B21326   3.892  16.114   6.159 -0.0205 -0.2329  0.2117
 1333loPI   C3B21327   3.928  15.925   6.593 -0.0317 -0.2467 -0.0072
 1333loPI   C4B21328   4.152  15.920   7.030  0.1485  0.1314 -0.1181
 1334loPI    C121329   0.193   1.523   4.893 -0.2330 -0.1041 -0.2060
 1334loPI    C221330   0.303   1.872   5.056 -0.0875 -0.1820 -0.1354
 1334loPI    C321331   0.000   1.860   4.795 -0.1653 -0.0198 -0.0544
 1334loPI   PO421332   0.175   1.381   5.163 -0.2001  0.0020  0.4296
 1334loPI   GL121333   0.286   1.051   5.486  0.1102 -0.1362  0.2091
 1334loPI   GL221334   0.061   1.053   5.654  0.1567 -0.1394 -0.1586
 1334loPI   C1A21335   0.578   0.954   5.836 -0.0224 -0.0139  0.2190
 1334loPI   C2A21336   0.704   1.011   6.270  0.2172  0.0005 -0.1114
 1334loPI   C3A21337   0.832   0.901   6.657 -0.1035  0.2310  0.2456
 1334loPI   C4A21338   0.892   1.014   7.038  0.2495 -0.4512  0.0817
 1334loPI   C5A21339   0.920   0.878   7.431 -0.1686 -0.1009 -0.1425
 1334loPI   C6A21340   0.819   0.678   7.806  0.1249  0.2278 -0.0547
 1334loPI   C1B21341   0.124   1.161   6.088 -0.2088  0.2251  0.0848
 1334loPI   C2B21342   0.228   1.069   6.441  0.1688  0.1790 -0.0794
 1334loPI   C3B21343   0.364   1.107   6.862  0.1494  0.0638  0.0118
 1334loPI   C4B21344   0.389   0.991   7.152  0.0178  0.0375  0.1734
 1335loPI    C121345  18.084  13.958   5.333  0.1890 -0.1577 -0.0612
 1335loPI    C221346  17.979  13.848   4.963  0.0249 -0.1353 -0.0222
 1335loPI    C321347  18.273  14.115   5.018  0.0547 -0.1444 -0.1359
 1335loPI   PO421348  18.138  13.818   5.465 -0.0669 -0.2709 -0.1505
 1335loPI   GL121349  17.992  13.698   5.772  0.3862 -0.0074  0.2356
 1335loPI   GL221350  17.844  13.814   5.971 -0.3367  0.0774  0.1326
 1335loPI   C1A21351  18.088  13.395   6.071  0.3041 -0.0611 -0.0983
 1335loPI   C2A21352  18.067  13.211   6.490 -0.2944 -0.0485 -0.0111
 1335loPI   C3A21353  17.958  13.173   6.912 -0.0932 -0.1223 -0.0120
 1335loPI   C4A21354  18.151  13.311   7.206  0.1915  0.3587  0.1539
 1335loPI   C5A21355  18.225  13.640   7.526 -0.0659 -0.0838  0.2702
 1335loPI   C6A21356  17.960  13.962   7.699 -0.0402 -0.0973 -0.2584
 1335loPI   C1B21357  17.673  14.055   6.285  0.1355 -0.0590  0.1896
 1335loPI   C2B21358  17.944  14.246   6.634  0.1164  0.0762 -0.0694
 1335loPI   C3B21359  18.162  14.340   7.049 -0.5065 -0.0322 -0.0218
 1335loPI   C4B21360  18.282  14.244   7.399 -0.2528  0.0376  0.0850
 1336loPI    C121361  13.241  17.649   5.153 -0.0583  0.2064 -0.0336
 1336loPI    C221362  13.266  17.305   4.950 -0.1486  0.0723  0.1792
 1336loPI    C321363  13.056  17.611   4.800 -0.0197  0.0559 -0.0383
 1336loPI   PO421364  13.136  17.623   5.410 -0.0188 -0.0981 -0.0841
 1336loPI   GL121365  13.102  17.405   5.834  0.0967  0.0050  0.5302
 1336loPI   GL221366  12.960  17.121   5.903 -0.3173 -0.2310  0.0879
 1336loPI   C1A21367  13.004  17.522   6.168  0.0566 -0.0132 -0.0228
 1336loPI   C2A21368  13.047  17.407   6.673  0.1477 -0.0529  0.1296
 1336loPI   C3A21369  13.092  17.257   7.035  0.2566  0.2738  0.0662
 1336loPI   C4A21370  12.824  17.322   7.372  0.0945 -0.1598 -0.1050
 1336loPI   C5A21371  12.894  17.475   7.745  0.1954 -0.3286 -0.1187
 1336loPI   C6A21372  12.857  17.667   8.204 -0.0414 -0.0895  0.1596
 1336loPI   C1B21373  13.186  16.990   6.345 -0.0648 -0.1086 -0.2727
 1336loPI   C2B21374  13.446  17.025   6.727 -0.2364  0.0011 -0.1907
 1336loPI   C3B21375  13.778  17.147   7.077  0.3224  0.4621 -0.0613
 1336loPI   C4B21376  13.927  17.268   7.538 -0.0507  0.0885 -0.2957
 1337loPI    C121377   0.781   8.751   5.092  0.0112  0.4338 -0.0024
 1337loPI    C221378   0.734   8.996   5.405  0.1788  0.0198  0.3564
 1337loPI    C321379   1.052   9.036   5.166 -0.0240  0.4297  0.1466
 1337loPI   PO421380   0.781   8.533   5.217  0.1270  0.0077 -0.0343
 1337loPI   GL121381   0.833   8.552   5.637  0.2935  0.0348 -0.6122
 1337loPI   GL221382   0.568   8.333   5.834 -0.0747 -0.0141 -0.2220
 1337loPI   C1A21383   0.634   8.781   6.011 -0.0576  0.0583  0.2279
 1337loPI   C2A21384   0.712   8.964   6.460  0.0803  0.1368 -0.0117
 1337loPI   C3A21385   0.579   8.975   6.933  0.1380  0.1168 -0.1526
 1337loPI   C4A21386   0.541   8.946   7.351 -0.2723 -0.2697  0.2766
 1337loPI   C5A21387   0.524   8.752   7.766 -0.1401  0.0543  0.0117
 1337loPI   C6A21388   0.365   8.764   8.117 -0.0779 -0.2467  0.1462
 1337loPI   C1B21389   0.651   8.380   6.282  0.1834  0.3763  0.2159
 1337loPI   C2B21390   0.733   8.435   6.742  0.0464 -0.2710  0.1201
 1337loPI   C3B21391   0.645   8.487   7.133  0.0099  0.0823  0.0518
 1337loPI   C4B21392   0.593   8.306   7.571 -0.1409  0.0035  0.2159
 1338loPI    C121393  10.928   8.480   5.274  0.2073 -0.0072  0.1177
 1338loPI    C221394  11.257   8.709   5.271  0.2963 -0.1350 -0.0240
 1338loPI    C321395  10.936   8.816   5.056  0.3544 -0.1658 -0.1268
 1338loPI   PO421396  10.999   8.202   5.416 -0.1760  0.0187  0.0661
 1338loPI   GL121397  10.862   7.979   5.765 -0.1881  0.2651 -0.1425
 1338loPI   GL221398  10.704   8.093   6.035  0.1118 -0.1876 -0.1271
 1338loPI   C1A21399  10.954   7.661   6.129  0.0340  0.1632  0.0883
 1338loPI   C2A21400  11.164   7.472   6.505  0.0796 -0.1431  0.1215
 1338loPI   C3A21401  11.226   7.158   6.948 -0.1277 -0.2060  0.2131
 1338loPI   C4A21402  11.641   7.138   7.128  0.4416  0.2099 -0.3327
 1338loPI   C5A21403  11.736   6.878   7.557  0.0359  0.1583  0.0488
 1338loPI   C6A21404  11.830   6.730   8.068 -0.1582  0.1629  0.1136
 1338loPI   C1B21405  10.710   7.906   6.471 -0.1221  0.1977  0.0121
 1338loPI   C2B21406  10.696   7.391   6.741 -0.1402  0.0958 -0.2276
 1338loPI   C3B21407  10.794   7.242   7.156 -0.2234  0.0164  0.2823
 1338loPI   C4B21408  10.602   7.155   7.504 -0.0723  0.1403 -0.0918
 1339loPI    C121409   5.655  11.298   5.108  0.0472 -0.0749  0.0370
 1339loPI    C221410   5.703  10.940   4.935  0.2683 -0.0336  0.0093
 1339loPI    C321411   5.959  11.237   4.855  0.0388  0.1569 -0.0316
 1339loPI   PO421412   5.586  11.220   5.358 -0.1143 -0.2343  0.1136
 1339loPI   GL121413   5.393  11.250   5.617  0.2262 -0.1049 -0.1317
 1339loPI   GL221414   5.281  10.992   5.754  0.2465 -0.1766  0.1657
 1339loPI   C1A21415   5.603  11.327   5.972 -0.0472 -0.0641 -0.1231
 1339loPI   C2A21416   5.799  11.255   6.410 -0.1217  0.1612  0.3579
 1339loPI   C3A21417   5.570  11.454   6.713 -0.3311 -0.3551  0.4905
 1339loPI   C4A21418   5.491  11.593   7.138 -0.2156  0.0239  0.1796
 1339loPI   C5A21419   5.226  11.715   7.415  0.0747  0.0853  0.0595
 1339loPI   C6A21420   4.980  11.766   7.801  0.2847 -0.2679 -0.0950
 1339loPI   C1B21421   5.191  11.042   6.170 -0.0337 -0.1199  0.3138
 1339loPI   C2B21422   5.355  11.082   6.588 -0.1622 -0.2045  0.0739
 1339loPI   C3B21423   5.519  10.995   6.967 -0.0111 -0.0587  0.0111
 1339loPI   C4B21424   5.893  11.125   6.987 -0.3810 -0.0087  0.1844
 1340loPI    C121425  13.589   9.744   5.747  0.0898 -0.1107 -0.0322
 1340loPI    C221426  13.935   9.767   5.549  0.0374 -0.0281 -0.1151
 1340loPI    C321427  13.593   9.865   5.366  0.0067  0.2097  0.0651
 1340loPI   PO421428  13.655   9.510   5.856 -0.2221 -0.3058 -0.0039
 1340loPI   GL121429  13.845   9.413   6.145  0.2801 -0.3256 -0.2192
 1340loPI   GL221430  14.088   9.211   6.320  0.0427 -0.1224 -0.1977
 1340loPI   C1A21431  13.692   9.392   6.591  0.0254 -0.0487  0.0711
 1340loPI   C2A21432  13.690   9.526   6.949  0.1065 -0.0764 -0.0987
 1340loPI   C3A21433  13.687   9.561   7.370 -0.0870 -0.1090 -0.0079
 1340loPI   C4A21434  13.523   9.642   7.704 -0.2907 -0.1313  0.2389
 1340loPI   C5A21435  13.380   9.611   8.127 -0.0846 -0.1955  0.1126
 1340loPI   C6A21436  13.480   9.325   8.431 -0.1306 -0.1483 -0.0023
 1340loPI   C1B21437  14.149   9.215   6.732 -0.3084 -0.1249  0.1915
 1340loPI   C2B21438  14.103   9.241   7.239  0.0428  0.1533  0.0091
 1340loPI   C3B21439  14.432   9.049   7.453  0.1355 -0.0097 -0.0077
 1340loPI   C4B21440  14.488   8.747   7.840 -0.2829 -0.1376 -0.0018
 1341loPI    C121441   0.576  18.695   4.475  0.0680  0.1771 -0.2066
 1341loPI    C221442   0.664  18.309   4.532  0.1331  0.2109 -0.0750
 1341loPI    C321443   0.777  18.492   4.195  0.1465  0.1285 -0.1155
 1341loPI   PO421444   0.669  18.787   4.756  0.4059  0.0385 -0.3736
 1341loPI   GL121445   0.574  18.860   5.199  0.0571 -0.0260  0.0663
 1341loPI   GL221446   0.365  18.804   5.307  0.0965  0.1582 -0.4364
 1341loPI   C1A21447   0.881  18.772   5.539  0.0012  0.1750  0.1675
 1341loPI   C2A21448   0.938  18.723   5.953 -0.0226  0.3356 -0.1193
 1341loPI   C3A21449   0.981  18.687   6.401  0.3523  0.0943  0.1012
 1341loPI   C4A21450   1.054  18.691   6.877  0.1814  0.1853  0.0349
 1341loPI   C5A21451   1.159  18.734   7.363 -0.2173  0.0072 -0.0362
 1341loPI   C6A21452   1.168  19.150   7.495 -0.1809  0.3250  0.0973
 1341loPI   C1B21453   0.374  18.869   5.741 -0.0364 -0.1808 -0.1529
 1341loPI   C2B21454   0.320  18.874   6.140  0.2631  0.2671 -0.2535
 1341loPI   C3B21455   0.448  18.815   6.645  0.1520 -0.4457 -0.0077
 1341loPI   C4B21456   0.480  18.804   7.120  0.0391  0.0576  0.0280
 1342loPI    C121457   2.819  16.613   4.930  0.2268 -0.1313  0.0002
 1342loPI    C221458   2.965  16.952   4.774 -0.1775  0.0095 -0.0833
 1342loPI    C321459   2.729  16.716   4.554 -0.2379 -0.1140  0.1107
 1342loPI   PO421460   2.805  16.663   5.153  0.2084  0.5168 -0.2454
 1342loPI   GL121461   2.845  16.696   5.543  0.2265  0.2220  0.1279
 1342loPI   GL221462   3.145  16.659   5.538  0.1188 -0.0419  0.3754
 1342loPI   C1A21463   2.690  16.702   6.010 -0.0445 -0.1193 -0.0853
 1342loPI   C2A21464   2.799  16.771   6.420 -0.0496 -0.0568  0.1744
 1342loPI   C3A21465   2.818  16.748   6.809  0.0544  0.0735 -0.0405
 1342loPI   C4A21466   2.868  16.708   7.226 -0.4097  0.0268 -0.1494
 1342loPI   C5A21467   2.929  17.042   7.427 -0.1279 -0.2183 -0.3152
 1342loPI   C6A21468   3.167  17.316   7.613 -0.1137 -0.1355  0.0070
 1342loPI   C1B21469   3.167  16.673   5.962 -0.2860 -0.1416  0.1105
 1342loPI   C2B21470   3.294  16.627   6.394  0.2147 -0.1232 -0.0063
 1342loPI   C3B21471   3.318  16.578   6.870 -0.0294 -0.3805  0.0800
 1342loPI   C4B21472   3.541  16.558   7.330  0.4035  0.0314 -0.0419
 1343loPI    C121473   5.167   5.712   4.138 -0.1252 -0.0232  0.0364
 1343loPI    C221474   5.421   5.735   3.829  0.1050 -0.2183  0.2076
 1343loPI    C321475   5.046   5.609   3.771  0.0119  0.1688 -0.0643
 1343loPI   PO421476   5.327   5.639   4.379  0.0455 -0.1764 -0.0673
 1343loPI   GL121477   5.207   5.581   4.800  0.2386  0.0583 -0.1415
 1343loPI   GL221478   5.400   5.441   5.010  0.1491  0.1199  0.0596
 1343loPI   C1A21479   5.024   5.753   5.225 -0.1502  0.3017  0.0081
 1343loPI   C2A21480   5.088   5.782   5.692 -0.0611 -0.0258  0.0061
 1343loPI   C3A21481   5.021   5.733   6.084  0.0108 -0.3004  0.1021
 1343loPI   C4A21482   5.084   5.761   6.563  0.0458 -0.2620  0.0350
 1343loPI   C5A21483   5.071   5.740   7.013  0.2564  0.1552  0.2049
 1343loPI   C6A21484   5.002   5.951   7.347 -0.2576  0.4147  0.0792
 1343loPI   C1B21485   5.448   5.603   5.424  0.1790  0.1411 -0.1250
 1343loPI   C2B21486   5.569   5.538   5.901  0.0270 -0.1313  0.0274
 1343loPI   C3B21487   5.502   5.500   6.327  0.0114  0.3293 -0.0095
 1343loPI   C4B21488   5.458   5.434   6.688  0.4101 -0.1985 -0.3178
 1344loPI    C121489  18.108   1.143   5.009  0.1562 -0.4382  0.0206
 1344loPI    C221490  18.294   1.137   4.655 -0.0546  0.2610 -0.1183
 1344loPI    C321491  18.414   1.391   4.940 -0.0182 -0.1530  0.2475
 1344loPI   PO421492  18.122   0.925   5.112  0.0302  0.1941  0.2913
 1344loPI   GL121493  18.269   1.045   5.507  0.3624 -0.0416  0.1322
 1344loPI   GL221494  18.400   1.331   5.550  0.1426 -0.0429  0.1888
 1344loPI   C1A21495  18.407   1.197   5.967 -0.1165  0.0437 -0.0806
 1344loPI   C2A21496  18.505   1.267   6.396  0.1045  0.0789 -0.4103
 1344loPI   C3A21497  18.606   1.226   6.792 -0.2268  0.0023  0.0715
 1344loPI   C4A21498  18.695   1.242   7.188  0.0672  0.0338 -0.2285
 1344loPI   C5A21499  18.983   1.377   7.523 -0.0629 -0.0273 -0.3567
 1344loPI   C6A21500  19.228   1.202   7.820  0.1501  0.1872  0.1151
 1344loPI   C1B21501  18.743   1.575   5.852  0.1222  0.2979  0.1983
 1344loPI   C2B21502  18.866   1.642   6.273 -0.1268  0.0172  0.1508
 1344loPI   C3B21503  18.999   1.568   6.750  0.2473 -0.0611  0.0064
 1344loPI   C4B21504  19.037   1.691   7.128  0.0325  0.1224 -0.2724
 1345loPI    C121505   6.296   6.925   4.754 -0.0418  0.0477 -0.0730
 1345loPI    C221506   5.905   6.870   4.694 -0.0684 -0.1229  0.2375
 1345loPI    C321507   6.162   6.571   4.626  0.0395  0.0627 -0.2011
 1345loPI   PO421508   6.328   7.073   5.022  0.2396  0.2712 -0.1348
 1345loPI   GL121509   6.378   6.969   5.518  0.0783 -0.3180 -0.1573
 1345loPI   GL221510   6.032   6.972   5.608  0.1095  0.1219  0.3047
 1345loPI   C1A21511   6.430   6.939   6.016 -0.3888 -0.1007  0.0938
 1345loPI   C2A21512   6.489   6.949   6.464 -0.0275  0.1024  0.0688
 1345loPI   C3A21513   6.473   7.086   6.835 -0.1590 -0.1386 -0.0039
 1345loPI   C4A21514   6.485   6.934   7.162 -0.0187  0.0267 -0.3259
 1345loPI   C5A21515   6.494   6.867   7.607  0.1582  0.0669  0.3125
 1345loPI   C6A21516   6.694   7.172   7.873  0.1325 -0.3379 -0.2216
 1345loPI   C1B21517   5.964   6.702   5.930 -0.1134  0.0485  0.0840
 1345loPI   C2B21518   6.033   6.711   6.364 -0.0937 -0.0127  0.0528
 1345loPI   C3B21519   6.056   6.685   6.801 -0.0672  0.1129  0.4718
 1345loPI   C4B21520   6.067   6.699   7.237  0.0589  0.1594 -0.1989
 1346loPI    C121521   6.306   8.256   5.373 -0.2174 -0.0535  0.0221
 1346loPI    C221522   6.069   8.230   5.052 -0.2311 -0.0711  0.0336
 1346loPI    C321523   6.327   7.936   5.134 -0.1983 -0.0474  0.0156
 1346loPI   PO421524   6.107   8.361   5.550  0.0258  0.2882  0.0164
 1346loPI   GL121525   6.242   8.284   6.049  0.1268  0.1386  0.0331
 1346loPI   GL221526   6.213   8.557   5.954  0.0630  0.5059 -0.0514
 1346loPI   C1A21527   6.471   8.079   6.319 -0.2981 -0.1624  0.1635
 1346loPI   C2A21528   6.666   8.185   6.695  0.1936  0.3808 -0.2370
 1346loPI   C3A21529   6.575   8.451   6.874  0.0289  0.1776 -0.2949
 1346loPI   C4A21530   6.599   8.812   7.131 -0.1834  0.2584  0.2268
 1346loPI   C5A21531   6.699   9.189   7.238  0.2393 -0.0100 -0.2534
 1346loPI   C6A21532   6.486   9.423   7.580 -0.1475 -0.0244 -0.0360
 1346loPI   C1B21533   6.622   8.597   6.169  0.3321  0.0667 -0.2157
 1346loPI   C2B21534   6.750   8.790   6.534 -0.1798  0.1059 -0.3559
 1346loPI   C3B21535   6.981   8.835   6.841 -0.1222  0.0731 -0.4063
 1346loPI   C4B21536   7.210   9.209   7.165  0.0881  0.0484 -0.1094
 1347loPI    C121537  12.288   4.307   4.985 -0.3247 -0.0713 -0.1062
 1347loPI    C221538  12.247   4.693   5.079 -0.0167 -0.0754  0.0555
 1347loPI    C321539  12.085   4.412   5.313 -0.0482 -0.0517  0.0622
 1347loPI   PO421540  12.525   4.300   5.011  0.0128 -0.0502  0.1697
 1347loPI   GL121541  12.554   4.362   5.432 -0.1582 -0.2444  0.1481
 1347loPI   GL221542  12.623   4.077   5.460 -0.0202  0.0722 -0.1144
 1347loPI   C1A21543  12.289   4.473   5.753  0.1773  0.0999  0.3626
 1347loPI   C2A21544  12.241   4.671   6.075  0.4480 -0.1720 -0.2441
 1347loPI   C3A21545  12.171   4.614   6.507  0.0636 -0.1624  0.0343
 1347loPI   C4A21546  12.132   4.528   6.919 -0.0245 -0.0231 -0.2526
 1347loPI   C5A21547  12.079   4.367   7.309 -0.0902  0.1806 -0.2197
 1347loPI   C6A21548  12.194   3.998   7.519 -0.0221 -0.2906  0.3409
 1347loPI   C1B21549  12.618   3.963   5.920 -0.0802  0.2916 -0.0900
 1347loPI   C2B21550  12.689   3.852   6.279 -0.1484 -0.0357  0.0271
 1347loPI   C3B21551  12.649   3.863   6.742 -0.2208  0.0513  0.1714
 1347loPI   C4B21552  12.495   3.778   7.224 -0.2518 -0.0943  0.0617
 1348loPI    C121553   5.709   0.244   4.729 -0.1900  0.0284  0.0274
 1348loPI    C221554   5.714   0.305   4.334 -0.1492 -0.1247  0.0037
 1348loPI    C321555   5.396   0.133   4.506 -0.2407  0.0997  0.0625
 1348loPI   PO421556   5.919   0.088   4.788 -0.1700 -0.0133  0.0644
 1348loPI   GL121557   6.028  -0.161   5.078  0.0134  0.2514 -0.0719
 1348loPI   GL221558   6.331  -0.018   5.132  0.0631  0.1718  0.1263
 1348loPI   C1A21559   6.100  -0.105   5.587  0.0537  0.1766  0.1480
 1348loPI   C2A21560   5.848   0.177   5.882  0.1023 -0.1392 -0.3785
 1348loPI   C3A21561   5.886   0.233   6.325 -0.0804  0.1398 -0.0761
 1348loPI   C4A21562   5.666   0.151   6.709  0.0376 -0.0167 -0.1297
 1348loPI   C5A21563   5.371   0.118   6.989  0.0973  0.1409 -0.2291
 1348loPI   C6A21564   5.188   0.221   7.383  0.0314  0.0116  0.1060
 1348loPI   C1B21565   6.559  -0.231   5.548  0.1609 -0.0433  0.3302
 1348loPI   C2B21566   6.522  -0.275   5.966  0.1017 -0.0254  0.4001
 1348loPI   C3B21567   6.514  -0.412   6.381  0.2430 -0.1572  0.1581
 1348loPI   C4B21568   6.486  -0.432   6.855  0.1803  0.0016  0.1490
 1349loPI    C121569  11.633   1.952   4.678  0.0864  0.1042 -0.1055
 1349loPI    C221570  11.372   2.138   4.438 -0.0299  0.0667 -0.0094
 1349loPI    C321571  11.693   1.956   4.283 -0.0872  0.0700 -0.1331
 1349loPI   PO421572  11.501   1.880   4.949  0.0735 -0.1301 -0.0262
 1349loPI   GL121573  11.623   1.888   5.307  0.2765 -0.1966 -0.1829
 1349loPI   GL221574  11.806   1.752   5.549 -0.1652 -0.1126  0.3971
 1349loPI   C1A21575  11.522   2.300   5.447 -0.1682 -0.3011 -0.0338
 1349loPI   C2A21576  11.562   2.730   5.691  0.1458  0.1740  0.0775
 1349loPI   C3A21577  11.829   2.728   5.966 -0.1967 -0.1068 -0.2388
 1349loPI   C4A21578  11.723   2.815   6.340 -0.1696  0.1515 -0.4176
 1349loPI   C5A21579  11.705   2.812   6.732 -0.0297 -0.0138  0.2991
 1349loPI   C6A21580  11.632   2.727   7.105 -0.1110 -0.2158  0.0475
 1349loPI   C1B21581  11.668   1.753   5.913 -0.2399  0.1156 -0.0658
 1349loPI   C2B21582  11.819   1.798   6.410  0.2209 -0.2017 -0.0513
 1349loPI   C3B21583  11.834   1.716   6.786  0.1257  0.1218  0.0272
 1349loPI   C4B21584  11.568   1.748   7.149 -0.1254  0.3574  0.1374
 1350loPI    C121585  17.966   2.163   4.723 -0.0827  0.0588 -0.0699
 1350loPI    C221586  17.789   1.912   4.466  0.0054  0.0088 -0.0824
 1350loPI    C321587  17.568   2.166   4.682 -0.1076 -0.2557  0.1184
 1350loPI   PO421588  18.183   1.948   4.916 -0.0692  0.0777 -0.2968
 1350loPI   GL121589  18.078   1.583   5.273 -0.0511 -0.3316 -0.0405
 1350loPI   GL221590  17.927   1.382   5.433 -0.1090 -0.1495  0.1831
 1350loPI   C1A21591  18.262   1.721   5.741  0.1802  0.0740  0.2580
 1350loPI   C2A21592  18.393   1.840   6.162 -0.0509  0.1904  0.0680
 1350loPI   C3A21593  18.493   1.776   6.622  0.0370 -0.0428 -0.0230
 1350loPI   C4A21594  18.590   1.763   7.018 -0.0889  0.0948 -0.3782
 1350loPI   C5A21595  18.476   1.590   7.432 -0.2642 -0.0188  0.1040
 1350loPI   C6A21596  18.607   1.421   7.861 -0.1949 -0.4206 -0.0893
 1350loPI   C1B21597  17.911   1.305   5.843  0.2592 -0.4584 -0.0026
 1350loPI   C2B21598  17.997   1.504   6.125 -0.4204  0.2233 -0.0725
 1350loPI   C3B21599  18.086   1.391   6.621  0.2302  0.3411 -0.3621
 1350loPI   C4B21600  18.229   1.445   7.040  0.1720 -0.2477 -0.3622
 1351loPI    C121601  16.459  18.470   4.944  0.0491 -0.1629  0.0259
 1351loPI    C221602  16.566  18.095   4.855  0.0254 -0.1272 -0.1586
 1351loPI    C321603  16.726  18.401   4.654  0.1705 -0.0271  0.1042
 1351loPI   PO421604  16.506  18.378   5.269  0.1371  0.2539  0.0033
 1351loPI   GL121605  16.443  18.697   5.679  0.2250  0.1209 -0.0265
 1351loPI   GL221606  16.756  18.663   5.756 -0.2171  0.1137  0.2676
 1351loPI   C1A21607  16.340  18.889   6.027  0.1752  0.1747  0.1012
 1351loPI   C2A21608  16.445  18.884   6.549 -0.2124 -0.0507 -0.2372
 1351loPI   C3A21609  16.447  18.809   7.041 -0.1157  0.2831  0.3012
 1351loPI   C4A21610  16.602  18.865   7.419  0.0233  0.0064 -0.1160
 1351loPI   C5A21611  16.658  18.795   7.878  0.3176 -0.2361  0.1890
 1351loPI   C6A21612  16.794  18.660   8.321  0.0632 -0.1576 -0.2740
 1351loPI   C1B21613  16.795  18.600   6.180  0.0225  0.3043  0.0350
 1351loPI   C2B21614  16.982  18.614   6.617 -0.0040  0.0709 -0.1760
 1351loPI   C3B21615  17.129  18.576   7.142 -0.0496 -0.0111  0.0275
 1351loPI   C4B21616  17.193  18.683   7.597  0.1316 -0.2111  0.1582
 1352loPI    C121617   5.400  11.719   4.888 -0.0332 -0.0873 -0.1387
 1352loPI    C221618   5.556  11.463   4.623  0.1961 -0.1797  0.0816
 1352loPI    C321619   5.793  11.720   4.816  0.0407 -0.1572  0.2450
 1352loPI   PO421620   5.284  11.589   5.096 -0.0513  0.2577 -0.2243
 1352loPI   GL121621   5.376  11.713   5.437 -0.2609 -0.0631  0.0020
 1352loPI   GL221622   5.057  11.748   5.487 -0.0421 -0.4473  0.1935
 1352loPI   C1A21623   5.477  11.757   5.785  0.1225 -0.1519 -0.1627
 1352loPI   C2A21624   5.580  11.763   6.261  0.2141 -0.1490  0.0277
 1352loPI   C3A21625   5.458  11.955   6.677 -0.2698 -0.1795  0.0496
 1352loPI   C4A21626   5.132  12.033   6.931  0.1076  0.3340  0.0982
 1352loPI   C5A21627   5.066  12.351   7.175 -0.0915  0.3193  0.2987
 1352loPI   C6A21628   5.144  12.672   7.520 -0.1746 -0.0852  0.2489
 1352loPI   C1B21629   4.897  12.004   5.847 -0.0655  0.4297 -0.0866
 1352loPI   C2B21630   4.760  12.431   6.009  0.2696 -0.0097 -0.1184
 1352loPI   C3B21631   4.666  12.667   6.326  0.0507  0.3224 -0.3639
 1352loPI   C4B21632   4.697  13.001   6.577 -0.1175 -0.2922  0.1793
 1353W        W21633  11.840  15.203   2.458 -0.1417 -0.1038  0.1681
 1354W        W21634  14.470   2.351   1.670 -0.0237  0.3438  0.1862
 1355W        W21635  12.854  15.508  12.095 -0.0115  0.2249 -0.0344
 1356W        W21636  16.659   9.132  14.812  0.0986 -0.0288 -0.2510
 1357W        W21637   3.427   9.436  13.877  0.5585  0.0328 -0.2810
 1358W        W21638   9.804  18.139   4.042 -0.2560  0.2483 -0.1952
 1359W        W21639   6.677   5.836   3.545 -0.0332 -0.0915  0.0104
 1360W        W21640   6.822   4.845   2.817 -0.1605 -0.1526  0.0743
 1361W        W21641  16.655  10.243  14.264  0.1567  0.2793 -0.1416
 1362W        W21642   3.303   0.224  12.660 -0.0942  0.1650  0.1025
 1363W        W21643  14.208  17.907   3.401  0.4743  0.0282  0.0608
 1364W        W21644  16.509   3.342   2.671  0.2375 -0.0938 -0.1318
 1365W        W21645   9.957  10.376  12.400  0.2068  0.0116 -0.0475
 1366W        W21646  15.194  14.680   1.052  0.0636  0.1225  0.1454
 1367W        W21647  10.778  14.340  13.169  0.0234 -0.1365  0.0034
 1368W        W21648  18.543  16.039  13.070 -0.1122  0.2932 -0.1563
 1369W        W21649   1.012   7.593   4.538 -0.1361 -0.1638  0.1085
 1370W        W21650  10.759   1.408  15.375 -0.2419  0.2289  0.0344
 1371W        W21651   5.968  17.264   1.758  0.2713  0.1532  0.2584
 1372W        W21652  10.215  15.406   0.909  0.0420  0.0339 -0.0326
 1373W        W21653  17.934   0.315   4.190 -0.0670 -0.2248 -0.0246
 1374W        W21654  11.958   6.459   2.619 -0.0567 -0.0052 -0.2676
 1375W        W21655   1.102   2.134  12.768  0.0904 -0.0080  0.0060
 1376W        W21656   9.232   3.683   1.150  0.2923 -0.1618 -0.1734
 1377W        W21657   5.189  13.108  10.406  0.0841 -0.3563 -0.0298
 1378W        W21658   8.222  10.109  10.895  0.0686 -0.1782 -0.3422
 1379W        W21659  14.487  10.359   4.132  0.2385  0.1501 -0.0592
 1380W        W21660   5.032  10.032  12.213 -0.1491 -0.3792  0.0148
 1381W        W21661   7.928  11.191  11.415  0.1779  0.0562  0.0532
 1382W        W21662  16.208   9.146   3.749 -0.1224 -0.0689  0.0347
 1383W        W21663  14.714   3.085  13.045  0.2704  0.0283 -0.1781
 1384W        W21664  16.403   0.101   4.510  0.0670  0.1603 -0.3175
 1385W        W21665  16.485   6.497  14.652 -0.0167  0.1578  0.0958
 1386W        W21666  17.220   9.196   2.721  0.1884 -0.0033  0.0484
 1387W        W21667   2.650  12.535  12.333  0.2232 -0.1649 -0.1072
 1388W        W21668  11.582  17.447   1.887  0.1777  0.0177  0.1513
 1389W        W21669  15.972   1.080  11.513  0.0077  0.2964  0.0221
 1390W        W21670   1.447  13.781   2.165  0.0757  0.1188  0.1384
 1391W        W21671  16.227   1.913   1.882  0.1935  0.0725  0.0138
 1392W        W21672  11.610   9.750   4.040 -0.1206  0.1143 -0.0958
 1393W        W21673  14.299   0.446   1.521 -0.1612 -0.0742 -0.0819
 1394W        W21674   7.980  11.238   1.918 -0.2537  0.2178  0.2938
 1395W        W21675  12.854  18.530   3.405 -0.0787  0.0175 -0.3397
 1396W        W21676  14.719  15.083  12.985 -0.2710  0.1663  0.4144
 1397W        W21677   4.130   7.615   1.746  0.1890  0.0630 -0.2735
 1398W        W21678  15.798   1.602   0.402  0.1392  0.0495  0.1050
 1399W        W21679   1.880   3.712  12.288 -0.2796 -0.1196  0.0369
 1400W        W21680   9.509   9.265  13.895  0.0615 -0.3321  0.0778
 1401W        W21681  15.615   5.457   1.777 -0.0999  0.0677 -0.2024
 1402W        W21682  18.473   2.110  11.273  0.3556  0.3331 -0.1178
 1403W        W21683  11.479   3.642   1.242  0.0400  0.0096  0.1728
 1404W        W21684   4.506   4.721   0.076 -0.3434 -0.2005 -0.0212
 1405W        W21685  11.934  11.498  15.373 -0.0989  0.1947 -0.0736
 1406W        W21686  11.914   8.297  15.148  0.0614  0.0981  0.1722
 1407W        W21687   8.336  14.322  14.930  0.0809 -0.0004 -0.1581
 1408W        W21688   0.429   5.802   2.938  0.1110  0.0407  0.0999
 1409W        W21689   5.517   2.097   0.708  0.2420  0.0933  0.0381
 1410W        W21690   0.335  18.122  11.700  0.0377  0.0330 -0.1083
 1411W        W21691   6.405   7.454  12.293 -0.2204  0.3759  0.1588
 1412W        W21692   4.767  17.205   3.330 -0.2615 -0.5615  0.1169
 1413W        W21693   6.566  12.983   1.301 -0.1397 -0.3624 -0.2206
 1414W        W21694  12.029   7.145   3.146  0.0043  0.1459  0.1234
 1415W        W21695   3.272  10.110   1.284  0.1033  0.1211 -0.1403
 1416W        W21696  10.543  17.525   2.616  0.2419  0.3546 -0.0092
 1417W        W21697   0.653   3.599  15.211 -0.0508 -0.0652 -0.0962
 1418W        W21698   7.509  15.849   2.575 -0.0196  0.1714  0.1633
 1419W        W21699   9.555   9.301   2.015 -0.1686  0.3560  0.2240
 1420W        W21700  18.643   7.215   5.078  0.0706  0.3647 -0.1974
 1421W        W21701  10.652  15.978  11.329 -0.0998  0.2747  0.1543
 1422W        W21702  15.025   8.457  14.048 -0.2134  0.0008 -0.0779
 1423W        W21703  11.829   6.505  14.607 -0.1320  0.0980 -0.1172
 1424W        W21704  18.067   6.450   0.340 -0.0250 -0.1304 -0.2696
 1425W        W21705   6.364  15.014   4.439 -0.0846  0.1205  0.5276
 1426W        W21706   8.366   9.792  15.331  0.0221  0.0081  0.3574
 1427W        W21707  17.496   2.614   3.756  0.0177 -0.0687  0.3997
 1428W        W21708  12.165  14.917   4.196  0.0739  0.1272 -0.1035
 1429W        W21709  14.569  18.072   0.081 -0.0525 -0.0636  0.1137
 1430W        W21710  11.210   7.003   2.003  0.3190  0.1621  0.2079
 1431W        W21711  16.975  18.277   3.439 -0.0405  0.1613 -0.1662
 1432W        W21712  18.381  14.542   3.568 -0.1197 -0.1727  0.1549
 1433W        W21713   3.546  11.834  13.534 -0.0112  0.2520 -0.2147
 1434W        W21714  17.370  18.660  14.802  0.2751 -0.0838 -0.0599
 1435W        W21715   2.167   8.886  13.757 -0.1560  0.1119 -0.0187
 1436W        W21716   0.938  12.667  14.059  0.0019  0.0194  0.0389
 1437W        W21717   0.672  13.630  11.901 -0.1993  0.0263  0.0745
 1438W        W21718  18.657  10.971  12.946 -0.1367 -0.3039 -0.5306
 1439W        W21719   7.411  16.525   3.406 -0.4010 -0.1048  0.3293
 1440W        W21720   2.741  17.600  13.150  0.2696  0.1672  0.3738
 1441W        W21721   9.056   7.057   0.543  0.1367  0.2105  0.1016
 1442W        W21722  18.222  15.618   0.248  0.3159  0.1852 -0.2345
 1443W        W21723   2.783   4.354  11.476 -0.0637 -0.2452 -0.4721
 1444W        W21724   0.862   7.935   1.068 -0.2934  0.0542  0.0662
 1445W        W21725   9.580   6.474   5.378 -0.2202 -0.0777  0.0238
 1446W        W21726   8.084   4.844  13.542  0.0236 -0.1685  0.1934
 1447W        W21727  12.987  15.117  13.657  0.6066 -0.2113  0.1539
 1448W        W21728  17.337   5.236  11.881 -0.1578 -0.0848 -0.0473
 1449W        W21729  18.314   8.232   2.782 -0.0312 -0.2515  0.3652
 1450W        W21730  13.794   8.339   3.646 -0.2101  0.4224  0.0698
 1451W        W21731   7.645  16.672   1.009 -0.0863 -0.0687 -0.0572
 1452W        W21732  18.391  15.918  15.322  0.2236  0.2804  0.0712
 1453W        W21733   3.938  11.461  10.435 -0.1123  0.3314  0.0809
 1454W        W21734  16.359  13.131   1.190 -0.1136  0.2140 -0.2538
 1455W        W21735  11.641   0.998  13.403  0.1483 -0.1709  0.0758
 1456W        W21736  15.255  14.472  11.989  0.2267 -0.3172  0.2383
 1457W        W21737   5.561   6.497  13.674 -0.0423 -0.0467 -0.2148
 1458W        W21738   6.432   9.865  15.038  0.2255  0.0336 -0.0038
 1459W        W21739   2.264  15.477  14.746  0.5044  0.2209 -0.0150
 1460W        W21740  14.567   9.276  14.304  0.2750  0.1434  0.0132
 1461W        W21741  12.608  13.992  12.511 -0.2321  0.2933  0.1566
 1462W        W21742  13.354   5.717   4.454 -0.0494  0.1908 -0.0475
 1463W        W21743   2.569  15.343  13.964 -0.3821 -0.1578  0.1094
 1464W        W21744  17.221  11.334   0.415  0.0717 -0.1522 -0.1537
 1465W        W21745   3.710   6.159   5.085  0.0242  0.1706  0.2677
 1466W        W21746  17.619  16.161  13.287  0.2234  0.0310  0.2406
 1467W        W21747   8.455   8.001   1.244  0.3278  0.0956 -0.1591
 1468W        W21748   0.631  13.612   4.084 -0.0396  0.2223  0.4039
 1469W        W21749   7.028  17.348   0.502 -0.4318  0.0564  0.0378
 1470W        W21750  15.578  11.058  11.284 -0.0160 -0.0576 -0.0877
 1471W        W21751  13.200  13.259   0.980 -0.2056 -0.0035 -0.2782
 1472W        W21752   1.396  18.206   1.992 -0.2596  0.1685  0.1484
 1473W        W21753   6.300   7.006  11.962 -0.2358  0.0461 -0.4235
 1474W        W21754   8.037   1.973   2.015 -0.0690  0.0037 -0.2720
 1475W        W21755   7.139  17.059  13.551  0.1451 -0.1768 -0.0600
 1476W        W21756  13.928   8.057   3.197 -0.0413  0.3632 -0.1484
 1477W        W21757  12.311  16.151  11.685 -0.2805  0.1752 -0.0696
 1478W        W21758   7.283   2.638   1.728 -0.0413 -0.1858 -0.2387
 1479W        W21759   3.049  16.057  11.295  0.2898  0.1143  0.0299
 1480W        W21760  12.866   1.097  12.555  0.1917 -0.1939 -0.0002
 1481W        W21761   6.573   0.733   3.054 -0.1216 -0.1767  0.2854
 1482W        W21762   3.184  17.240  14.874  0.0075  0.0070 -0.0943
 1483W        W21763  18.151  12.187  11.420  0.0839 -0.1028 -0.2052
 1484W        W21764   0.982   9.656   4.180 -0.2337  0.1646 -0.0886
 1485W        W21765   3.451   9.426  15.023  0.0763 -0.0573 -0.0380
 1486W        W21766   4.785   6.001   2.991 -0.0032 -0.1361  0.0376
 1487W        W21767   6.775   8.801  13.509 -0.0987  0.1702  0.3805
 1488W        W21768   6.574   8.200  14.857 -0.1011  0.3632  0.0330
 1489W        W21769  17.145  10.344  14.512 -0.0952  0.0589 -0.0453
 1490W        W21770  17.004  15.000   3.266  0.2030 -0.0297  0.0260
 1491W        W21771  13.742   6.576  12.699 -0.2772 -0.0438 -0.1585
 1492W        W21772  17.335  16.785  10.809 -0.1578  0.1944  0.0349
 1493W        W21773   1.155  16.696   2.147  0.0582  0.3582  0.3328
 1494W        W21774   4.148   6.206   1.435 -0.0206 -0.0818  0.0990
 1495W        W21775  10.890   0.080  14.238 -0.0980 -0.0902 -0.1940
 1496W        W21776   4.395   3.032  12.686  0.0099  0.0091  0.2286
 1497W        W21777   5.092  17.787   3.604 -0.0351  0.0145  0.0544
 1498W        W21778   4.527   1.416  13.359 -0.0629 -0.1000  0.0287
 1499W        W21779  15.758   7.622  12.492  0.1209 -0.0466  0.4053
 1500W        W21780   7.319  13.350   3.855  0.0133 -0.0239 -0.0846
 1501W        W21781  15.568  15.323  14.559 -0.1044  0.2256  0.2000
 1502W        W21782  17.783  11.641   2.365  0.1099  0.1802 -0.0702
 1503W        W21783   0.182   0.221   2.224 -0.2674 -0.0179 -0.0078
 1504W        W21784  10.187   7.380   3.967 -0.1195 -0.1346  0.2266
 1505W        W21785  12.039   0.427  12.991 -0.3941  0.3683 -0.0586
 1506W        W21786   2.296   8.430  11.889  0.1388 -0.1475  0.0921
 1507W        W21787  11.268  16.482   0.793  0.2480  0.0724  0.2193
 1508W        W21788  17.485  10.419   1.579 -0.1540  0.0024 -0.1322
 1509W        W21789   1.819  16.543  11.019 -0.0125 -0.4611 -0.2994
 1510W        W21790  18.457   8.636  13.289  0.1574 -0.0274 -0.0276
 1511W        W21791   0.171  11.580   3.098  0.1058  0.1396 -0.0018
 1512W        W21792  13.843   0.970  14.649  0.2799 -0.3127 -0.3884
 1513W        W21793   7.399  16.088   3.703  0.2376  0.1041 -0.0268
 1514W        W21794   0.900   3.350  11.265 -0.0022  0.3191  0.0348
 1515W        W21795   1.944   4.615  13.798 -0.0168 -0.2990  0.0430
 1516W        W21796   0.335   4.483  14.133 -0.2042 -0.0060 -0.0691
 1517W        W21797   9.830  12.797   0.801 -0.0718 -0.0458 -0.0764
 1518W        W21798  13.181  18.228   3.145  0.2145 -0.1197  0.2847
 1519W        W21799   5.250   3.887  11.429 -0.0889 -0.0098 -0.0724
 1520W        W21800  10.895  13.164  15.206  0.3599 -0.1786  0.2005
 1521W        W21801  15.084  17.030  14.657 -0.2112 -0.0843  0.2545
 1522W        W21802  11.164   6.034   1.803  0.0078 -0.1978 -0.0868
 1523W        W21803   3.342   4.314  13.286 -0.4487  0.0595  0.2118
 1524W        W21804   8.472   9.691   2.793 -0.1305 -0.0595 -0.2363
 1525W        W21805   2.025   3.108   2.116 -0.0627  0.0551 -0.2699
 1526W        W21806   7.336   7.665  13.865  0.0096 -0.0426 -0.1730
 1527W        W21807  11.710  12.088  14.749  0.1020 -0.0786 -0.2957
 1528W        W21808  11.622  18.675  11.655  0.1915 -0.2105  0.0265
 1529W        W21809  13.745  18.693   3.747  0.0409  0.0936 -0.1588
 1530W        W21810  10.156   5.496  11.802 -0.0840  0.2864  0.0304
 1531W        W21811   1.454  13.551  12.434 -0.2114  0.1948 -0.0899
 1532W        W21812   6.445  14.996  15.200  0.2159 -0.2149 -0.0426
 1533W        W21813   1.374   0.927   1.196 -0.0233 -0.1672 -0.3307
 1534W        W21814   6.209  18.445  14.130  0.0505  0.0763  0.3595
 1535W        W21815   3.654  17.797  13.534  0.2978 -0.6685 -0.1209
 1536W        W21816   1.275  14.817  12.983  0.1075  0.1080 -0.2210
 1537W        W21817   4.628   9.486   0.984 -0.1036 -0.0358  0.1346
 1538W        W21818   2.837   2.862  11.929 -0.0392 -0.0188 -0.2066
 1539W        W21819   4.463  11.018   1.103  0.0149  0.0509 -0.0672
 1540W        W21820  15.082  10.021  13.883 -0.0713  0.2809 -0.0682
 1541W        W21821  11.879  10.905   0.579 -0.0885 -0.0885  0.0105
 1542W        W21822   7.397   6.715  14.035 -0.0660 -0.2838  0.1940
 1543W        W21823  16.190   4.970   5.434  0.0145 -0.2551  0.0343
 1544W        W21824   2.700   4.576   3.640 -0.1502 -0.1998  0.0882
 1545W        W21825   4.471  15.918  12.745  0.3781  0.0680 -0.0983
 1546W        W21826  10.728  10.567   3.331 -0.1290 -0.1491  0.0005
 1547W        W21827   1.005  12.716  11.607 -0.0404 -0.0429  0.1007
 1548W        W21828   9.298   9.034  12.652  0.0263 -0.3807  0.0629
 1549W        W21829   5.660   0.053  15.269 -0.1311  0.2024 -0.2005
 1550W        W21830  15.926  12.812  14.919 -0.0371 -0.1859  0.0122
 1551W        W21831   0.479   1.304   3.095 -0.0909 -0.0600  0.0639
 1552W        W21832   6.663  15.952   1.589 -0.1890 -0.3411  0.1220
 1553W        W21833   8.544   5.395  14.268  0.2509  0.4321 -0.0104
 1554W        W21834  12.834  10.482   2.920  0.0526 -0.2963 -0.0169
 1555W        W21835  17.432   1.196   4.253  0.1024  0.0281  0.2820
 1556W        W21836   7.741  10.237   1.934 -0.0985  0.1973 -0.4007
 1557W        W21837  14.927   2.969   2.760 -0.1476 -0.3561  0.0475
 1558W        W21838  12.888   9.011  12.570  0.0867 -0.1057 -0.1294
 1559W        W21839  13.687   3.805  14.194 -0.1330 -0.2937 -0.0321
 1560W        W21840   7.775  15.463   4.266  0.1254  0.3218  0.2466
 1561W        W21841   0.200   4.883   2.827  0.1497 -0.0393  0.0051
 1562W        W21842   7.828  17.706   1.037 -0.1888 -0.1973 -0.4394
 1563W        W21843  15.425   3.646   3.385 -0.0965 -0.1294  0.2761
 1564W        W21844   8.211   3.528   1.905  0.3489  0.2353  0.4998
 1565W        W21845  11.431   0.419   1.449 -0.0686 -0.0614 -0.0341
 1566W        W21846   6.429   5.551   1.516  0.0990 -0.3256 -0.1495
 1567W        W21847   3.051  10.229   3.458 -0.0411 -0.2132  0.0073
 1568W        W21848  12.437   1.071  10.405 -0.0576 -0.1472 -0.0850
 1569W        W21849  15.123  17.975  15.100 -0.2026  0.0456  0.2715
 1570W        W21850   5.113   2.188  13.540 -0.2406 -0.0118 -0.1409
 1571W        W21851   9.634  11.748  12.080  0.2094 -0.1893 -0.1757
 1572W        W21852  14.845  11.326   1.739 -0.0866 -0.1881  0.1918
 1573W        W21853   0.865   2.115  12.097  0.1914  0.0894 -0.0255
 1574W        W21854   6.428  17.911   3.739  0.0021  0.0954 -0.0788
 1575W        W21855  17.780   4.900  11.153 -0.2059  0.0673  0.4607
 1576W        W21856   1.094   2.432   3.545 -0.1290  0.2408  0.0643
 1577W        W21857   7.984   9.189  13.050 -0.0707  0.1831 -0.1884
 1578W        W21858   3.979  11.596  12.558 -0.0574 -0.1890 -0.4146
 1579W        W21859  11.222   3.864  14.900  0.1769  0.1496  0.0500
 1580W        W21860   0.818   9.409  14.149  0.2224  0.1222  0.0035
 1581W        W21861   8.796  16.996   1.021 -0.0542  0.1831  0.2016
 1582W        W21862  11.428   2.943  14.925 -0.3166 -0.0126 -0.1724
 1583W        W21863   1.731   2.827  12.216  0.0138  0.1824 -0.1859
 1584W        W21864  16.314  13.162   2.912 -0.0103  0.0048 -0.1094
 1585W        W21865   2.003   6.078  11.994  0.0382 -0.2276 -0.0835
 1586W        W21866  17.464   5.376   1.097 -0.0073 -0.1857  0.1233
 1587W        W21867  12.603  14.794   4.391  0.3113  0.0953  0.2622
 1588W        W21868  16.363  15.473   0.648  0.1406 -0.1968 -0.3218
 1589W        W21869  18.228   5.444   2.715  0.0175 -0.1643 -0.2706
 1590W        W21870   0.185  15.968   0.003 -0.0279  0.2600  0.1199
 1591W        W21871   5.425  12.958   0.870 -0.2924 -0.1512 -0.0175
 1592W        W21872   6.623  10.973   3.158 -0.2959  0.0793  0.0219
 1593W        W21873   2.357  13.944   3.179  0.0184 -0.1846 -0.2419
 1594W        W21874  18.690   7.645  15.272  0.0765  0.0438  0.0254
 1595W        W21875  12.597  13.135  12.424 -0.0055  0.1125 -0.0664
 1596W        W21876  17.968  10.765  12.424  0.1223  0.0006 -0.0294
 1597W        W21877  12.365  12.766  12.667 -0.0287 -0.1076  0.0369
 1598W        W21878   8.307  11.748   1.795 -0.0103  0.3305 -0.0387
 1599W        W21879   9.887  15.711   2.149  0.0251  0.1227 -0.2000
 1600W        W21880  11.101  17.200   3.817  0.0950  0.1006  0.3019
 1601W        W21881   3.403  11.203   2.045 -0.0980 -0.0962 -0.2669
 1602W        W21882   6.561   6.900  15.180  0.2392  0.0207  0.1858
 1603W        W21883   4.245   4.887  11.024  0.0010  0.2709 -0.2739
 1604W        W21884   1.396   6.418  12.746  0.1533 -0.1308 -0.2696
 1605W        W21885   5.126  16.155   0.063 -0.1346 -0.0129 -0.0735
 1606W        W21886   3.314   9.557   2.609  0.0319 -0.2525 -0.1673
 1607W        W21887   8.645  13.997   2.951 -0.0901 -0.0139  0.0359
 1608W        W21888  11.242   6.281   0.886 -0.1477 -0.1926  0.0746
 1609W        W21889   8.784   8.570  12.117  0.0763  0.0122  0.0277
 1610W        W21890   6.562   0.025  11.617  0.0959  0.0482 -0.1626
 1611W        W21891  14.880  15.222  13.653  0.2873 -0.2201 -0.1559
 1612W        W21892  18.521  10.358  12.858 -0.1223  0.0221  0.0556
 1613W        W21893   2.234  14.746   3.584 -0.2549  0.0432  0.1372
 1614W        W21894  12.265  12.492   0.365  0.1029 -0.0030 -0.1843
 1615W        W21895   5.234  17.390  11.881  0.0628  0.0151  0.0415
 1616W        W21896   7.837  12.089  11.826  0.3309  0.0113  0.1503
 1617W        W21897   2.971   9.587  15.324 -0.0448  0.1479 -0.0430
 1618W        W21898  14.104   1.718  11.166 -0.3136  0.0473  0.2941
 1619W        W21899  10.444  13.782   2.379 -0.1946 -0.1844 -0.1826
 1620W        W21900  18.487   3.124  12.127 -0.2399  0.1267 -0.1993
 1621W        W21901   9.633  11.127   2.514  0.0439  0.0497  0.1228
 1622W        W21902  11.770  15.503   0.097  0.1837 -0.3021 -0.1593
 1623W        W21903   1.657   7.361   1.773 -0.1870 -0.0524  0.0187
 1624W        W21904   2.324  13.363  13.176  0.0934 -0.0332  0.0683
 1625W        W21905  13.097  15.889   5.690 -0.1891 -0.0027  0.1909
 1626W        W21906   1.054  16.262   4.516  0.1813  0.0252 -0.1999
 1627W        W21907  10.483   5.817   1.218 -0.0838 -0.1330 -0.1101
 1628W        W21908  16.861  12.434  13.070  0.3645  0.0649 -0.0175
 1629W        W21909  17.982   1.412   4.250 -0.0177  0.1112  0.0323
 1630W        W21910   8.933   0.629   3.652 -0.2276  0.0479  0.3751
 1631W        W21911   9.421  15.831  13.049 -0.0973  0.2240 -0.0763
 1632W        W21912   2.940   0.310  11.549 -0.2237  0.3627  0.0788
 1633W        W21913   9.921   9.687   1.580 -0.0450  0.4061  0.1926
 1634W        W21914  18.401  14.343   3.108  0.1524  0.2752  0.1507
 1635W        W21915   3.032  11.623   0.132  0.6130  0.1493  0.0195
 1636W        W21916   4.676  17.701  10.838  0.0482  0.0794  0.2753
 1637W        W21917  13.102  16.669   1.771  0.0702  0.3081 -0.4532
 1638W        W21918  15.721   6.152  13.304  0.0037 -0.1211  0.0188
 1639W        W21919   4.750  14.341  14.817 -0.0929 -0.0487  0.2146
 1640W        W21920  17.508  13.915  15.029  0.2691 -0.1596  0.2460
 1641W        W21921   3.922   2.262   0.043 -0.0759  0.0649 -0.2892
 1642W        W21922   1.551  13.578  14.681  0.1225  0.0363  0.1861
 1643W        W21923  15.092   5.012   0.147 -0.0869  0.1305  0.0667
 1644W        W21924   9.504  13.354   1.307  0.0176 -0.0663 -0.0947
 1645W        W21925   9.442   1.154  13.877  0.0510 -0.1799 -0.0806
 1646W        W21926   3.700   8.584  14.878 -0.0419 -0.0330  0.0048
 1647W        W21927  11.660   6.581   3.997 -0.0069  0.3023 -0.1342
 1648W        W21928  16.622   3.716   3.813  0.0970 -0.2005  0.1001
 1649W        W21929   0.995   9.650  13.113 -0.1185  0.2980 -0.0649
 1650W        W21930   7.858  12.761   1.731 -0.2503 -0.2062 -0.3115
 1651W        W21931   7.763   2.706   1.574 -0.0646 -0.1756 -0.1786
 1652W        W21932   2.700   7.660  11.586 -0.2731  0.0812 -0.0545
 1653W        W21933  15.589  10.126   4.203 -0.2470  0.2112  0.0258
 1654W        W21934  14.195   1.443   1.509 -0.1711  0.3368 -0.0044
 1655W        W21935   3.406   1.013  12.917  0.2795  0.1438  0.0495
 1656W        W21936   6.037   6.775  15.379  0.0427 -0.0372  0.0945
 1657W        W21937   1.299  18.139   0.930  0.0751  0.1487  0.4077
 1658W        W21938  10.909  16.944  12.290 -0.1536  0.2067 -0.2782
 1659W        W21939   4.189   2.162   4.301 -0.0720 -0.1061 -0.1359
 1660W        W21940  13.718  11.436   3.947 -0.2520  0.2436 -0.1179
 1661W        W21941   2.859   2.374   2.707  0.0666 -0.3487  0.1634
 1662W        W21942  14.628  18.392   1.409 -0.0338  0.1757  0.1630
 1663W        W21943  17.903  17.998  12.688  0.2598 -0.0326 -0.2420
 1664W        W21944   6.230   8.663   3.899  0.2579 -0.1661 -0.1085
 1665W        W21945   1.211  16.974   2.542 -0.0261  0.4015  0.1477
 1666W        W21946   3.310   7.833   2.804  0.3468  0.0970  0.1444
 1667W        W21947   2.673   7.662   0.760  0.1941  0.1056 -0.0918
 1668W        W21948  11.074  18.426   3.275  0.3782 -0.1030 -0.1037
 1669W        W21949   5.876   7.986   0.730  0.2046 -0.0693  0.1429
 1670W        W21950  16.319   1.881  11.867 -0.1587 -0.0403  0.0096
 1671W        W21951  17.588  16.102  11.464 -0.0190 -0.2411 -0.0239
 1672W        W21952   8.397   9.475  12.444  0.0311 -0.2360 -0.0682
 1673W        W21953   7.585   1.975  14.024 -0.0500 -0.2125 -0.3273
 1674W        W21954   2.282  18.133  13.140 -0.2857  0.5126  0.0425
 1675W        W21955  12.353  17.056   3.032 -0.2952 -0.2775 -0.3006
 1676W        W21956   3.894  12.605  14.387 -0.0050 -0.2911 -0.1107
 1677W        W21957  14.580  14.302   0.356  0.1264 -0.1323 -0.1426
 1678W        W21958  16.443   2.986  13.472 -0.0317  0.1020 -0.1867
 1679W        W21959  11.478  11.665  14.555  0.2628  0.0655 -0.2563
 1680W        W21960  18.131   5.930   1.299  0.1166 -0.1041 -0.1843
 1681W        W21961   2.953   6.908   2.816  0.4094 -0.1902  0.1884
 1682W        W21962   8.568  16.805  15.345 -0.0086 -0.1409 -0.1034
 1683W        W21963   6.004  10.280   3.662 -0.3238  0.0140 -0.1577
 1684W        W21964  18.484   1.677   1.855 -0.0620 -0.0600 -0.2684
 1685W        W21965   4.574   5.922   3.444  0.0034  0.0074  0.2643
 1686W        W21966  17.347   8.402  11.754  0.2266  0.1915  0.0965
 1687W        W21967   8.043   4.763  11.792 -0.0190  0.3235 -0.1709
 1688W        W21968  16.389   8.928  13.305  0.0379  0.2022  0.0464
 1689W        W21969  12.095   2.605  15.306  0.0723 -0.0537 -0.0319
 1690W        W21970   3.684   7.642  11.435 -0.0435  0.3686  0.1197
 1691W        W21971   4.649   0.523   1.584  0.2736 -0.2074 -0.1565
 1692W        W21972  15.616  11.970  13.260 -0.0661 -0.1115  0.2274
 1693W        W21973   3.340  13.919   2.519  0.0616 -0.0110  0.1175
 1694W        W21974  10.945   7.209   2.430  0.0518  0.0999  0.1331
 1695W        W21975  13.934   1.723   2.212  0.0557  0.2351 -0.0482
 1696W        W21976   3.340   0.506  11.397 -0.0161 -0.1382 -0.1745
 1697W        W21977   6.081   8.132   3.535  0.2735  0.1119  0.0397
 1698W        W21978   2.990   2.231   1.766  0.1254 -0.1623  0.1731
 1699W        W21979  15.501   2.444  15.260  0.0521  0.1430  0.0356
 1700W        W21980  18.334   3.691  10.393 -0.0882 -0.0188 -0.0685
 1701W        W21981   9.409  16.368   0.072 -0.2271 -0.0096 -0.1258
 1702W        W21982   0.527   3.090   2.597 -0.3701  0.5404  0.0022
 1703W        W21983   8.174  10.641  13.375 -0.0836 -0.0323  0.0216
 1704W        W21984   0.449   8.887   2.778 -0.0096 -0.0340  0.0349
 1705W        W21985  15.482   0.756  10.589 -0.1531  0.1719 -0.0017
 1706W        W21986   6.542  16.794  14.995  0.1457 -0.1605 -0.3621
 1707W        W21987   5.033   9.636  10.054  0.0178 -0.0515  0.2598
 1708W        W21988  18.577  11.740   2.677 -0.3989  0.0507  0.0859
 1709W        W21989   8.160  15.723   3.274  0.0230  0.1102 -0.0008
 1710W        W21990  15.544  13.251  11.951  0.2745 -0.1657 -0.3138
 1711W        W21991  14.360  17.242   2.067  0.0545  0.1357 -0.0203
 1712W        W21992  13.420   1.169   1.835  0.1511 -0.0058 -0.0767
 1713W        W21993   5.692   7.849  11.120 -0.2776 -0.1176 -0.0382
 1714W        W21994  13.009  16.347  12.612  0.2970 -0.0864 -0.3864
 1715W        W21995  18.477   0.886   2.383  0.0519 -0.2115 -0.0512
 1716W        W21996  18.082   6.564   1.281 -0.0088  0.2074 -0.4105
 1717W        W21997  13.187   4.633   1.850 -0.2822  0.1048  0.2693
 1718W        W21998  15.390  11.415  11.564 -0.3427 -0.1521  0.1041
 1719W        W21999  14.195  16.393   3.915 -0.0936 -0.1507  0.0467
 1720W        W22000  10.932  13.812   2.442  0.0806  0.0024 -0.1306
 1721W        W22001  14.581  16.555  13.969  0.1686  0.2023  0.2075
 1722W        W22002   1.732   9.305  14.418  0.0611 -0.4775  0.1555
 1723W        W22003   5.305   8.722  13.240 -0.0420 -0.0303 -0.2423
 1724W        W22004  18.313  14.419   2.151  0.1123 -0.3649 -0.0916
 1725W        W22005   7.431   1.263   3.413 -0.1143 -0.2306 -0.3729
 1726W        W22006  10.402   9.044  11.951  0.0211  0.1031  0.2632
 1727W        W22007  13.520   6.298   1.469 -0.1098  0.2302 -0.2382
 1728W        W22008   6.812   7.097  12.030  0.0724 -0.3387  0.1881
 1729W        W22009  18.494   9.486  15.235  0.2351 -0.2248  0.1441
 1730W        W22010   9.888   8.086   0.771  0.3786  0.0573 -0.0196
 1731W        W22011  12.524   5.237   4.399  0.0483  0.0556  0.0242
 1732W        W22012   7.118  14.251  14.381  0.2629 -0.2606  0.0492
 1733W        W22013   5.817   5.529   0.333 -0.1613  0.1089 -0.0347
 1734W        W22014   7.395   5.504   0.263 -0.0459  0.0509  0.2980
 1735W        W22015   4.621  13.297   2.546  0.1932 -0.0110  0.2572
 1736W        W22016   0.464  12.504  15.332  0.0489 -0.0853  0.2403
 1737W        W22017   1.695   4.507   2.227  0.2723 -0.2916 -0.0900
 1738W        W22018  11.047   7.967   3.075 -0.3608 -0.1218  0.2173
 1739W        W22019   4.684   6.173   2.427  0.3685 -0.0951 -0.0514
 1740W        W22020   5.987   7.408  12.902 -0.2517  0.0397  0.2306
 1741W        W22021  12.496   9.531   3.204 -0.2850 -0.0517  0.1735
 1742W        W22022   1.916  18.554  11.202 -0.1458  0.1872  0.0405
 1743W        W22023   4.364   6.670  11.064  0.2293 -0.2006  0.1298
 1744W        W22024  12.837  16.082   3.908 -0.2115  0.1185 -0.1780
 1745W        W22025   8.109  12.499   2.945  0.1527  0.2165 -0.2604
 1746W        W22026  15.804   7.501   3.861 -0.1603  0.1741 -0.1133
 1747W        W22027  16.520  15.076   3.589  0.1822 -0.1663 -0.1042
 1748W        W22028   3.263  13.670   1.058 -0.0456  0.1370  0.0142
 1749W        W22029   6.014   5.094   1.372 -0.0331  0.0360  0.4475
 1750W        W22030   9.468   4.565   1.294  0.0323  0.1608 -0.0907
 1751W        W22031   5.087   2.303   0.909  0.0655 -0.1734 -0.1145
 1752W        W22032   5.753  17.917  15.124  0.3030  0.1417 -0.1322
 1753W        W22033   1.823   6.604  12.505 -0.0369  0.1656  0.3900
 1754W        W22034   9.669   8.666  15.309  0.0746 -0.0099  0.2641
 1755W        W22035   2.426   9.266  11.964 -0.1960  0.1522 -0.0056
 1756W        W22036  14.529   5.418  13.479  0.0703 -0.3400 -0.1025
 1757W        W22037   7.186  18.513  10.920 -0.0228 -0.0144  0.0930
 1758W        W22038  10.771   5.206  11.746  0.1725 -0.1325  0.0127
 1759W        W22039  11.033  13.274  12.062  0.0256 -0.0847  0.2378
 1760W        W22040  15.441   6.866   2.190  0.1870 -0.1832 -0.0272
 1761W        W22041  16.452  13.032  10.606  0.2202 -0.1457  0.2550
 1762W        W22042  13.192  15.397   2.980 -0.2488 -0.0997  0.2426
 1763W        W22043  12.085  14.497   2.618 -0.0627 -0.0458  0.0526
 1764W        W22044  12.284  10.410   2.924  0.0935 -0.2279 -0.1137
 1765W        W22045   5.270   7.410  12.862  0.0748 -0.0573 -0.3541
 1766W        W22046  11.023   2.637  11.676  0.2181 -0.0624 -0.1924
 1767W        W22047   3.388   0.213   2.283  0.0898 -0.1639 -0.3227
 1768W        W22048  10.819   1.997  11.194  0.0692 -0.0158 -0.2289
 1769W        W22049  16.738   2.103   3.089 -0.0061  0.0210 -0.0924
 1770W        W22050   5.992   2.796  14.288  0.0083 -0.0895 -0.4526
 1771W        W22051   5.779   0.937   2.013 -0.0291 -0.0129  0.2077
 1772W        W22052  13.388  16.198   0.734 -0.0057  0.0498 -0.1612
 1773W        W22053   4.140   8.790  12.862  0.2453  0.1886 -0.0700
 1774W        W22054   6.675   6.726  13.448 -0.0581  0.2508 -0.1275
 1775W        W22055   6.777   2.073   2.850 -0.2461 -0.0559  0.1585
 1776W        W22056  10.724   1.174  12.889 -0.0958 -0.3286 -0.0682
 1777W        W22057   6.581   9.375  14.999  0.1855 -0.1004  0.1450
 1778W        W22058   9.759   3.532  12.232 -0.1064 -0.2636 -0.2884
 1779W        W22059  15.757   1.187  14.474  0.1905  0.0817 -0.1753
 1780W        W22060   7.570  10.807  13.803 -0.0862  0.2266  0.1071
 1781W        W22061   2.384  15.124   1.315 -0.0588  0.2235  0.2321
 1782W        W22062   7.167   8.621   2.840  0.1052 -0.1480  0.2372
 1783W        W22063  13.433   1.455  13.399 -0.1740  0.1941  0.0904
 1784W        W22064  14.266   9.876   3.244  0.0847  0.1166 -0.0150
 1785W        W22065   8.901   8.138  11.442 -0.0884  0.1257 -0.3690
 1786W        W22066   6.569  15.028   2.895  0.0687 -0.0547 -0.2730
 1787W        W22067  15.269  10.223   2.955  0.1090 -0.0269  0.2748
 1788W        W22068   3.710  14.259   1.508  0.0796 -0.0233 -0.0859
 1789W        W22069   5.471   3.718  15.154  0.4859 -0.1072 -0.2797
 1790W        W22070   4.455   9.961  11.536  0.1151  0.0107  0.2536
 1791W        W22071   2.635   0.240   0.001 -0.2418 -0.0334  0.3516
 1792W        W22072   5.746   2.537  13.641 -0.2497 -0.0781 -0.1585
 1793W        W22073  14.772   4.160  13.119  0.1592  0.0180 -0.2390
 1794W        W22074  14.557  16.804  12.630 -0.0281  0.0509  0.0086
 1795W        W22075   2.483   9.590  11.618 -0.1734  0.0160  0.0479
 1796W        W22076  11.392   6.312   1.440 -0.0432 -0.0576  0.0394
 1797W        W22077  18.544  14.919  11.940  0.0222 -0.1827  0.0189
 1798W        W22078  12.620  17.396  12.060  0.2016 -0.0041 -0.0534
 1799W        W22079   9.935  15.651   1.323 -0.0331 -0.0369 -0.1510
 1800W        W22080  13.272   6.547   0.702  0.2315  0.0152  0.1270
 1801W        W22081   4.992   4.518   2.546  0.2267  0.1389 -0.1195
 1802W        W22082  17.169  17.680  13.300 -0.2426 -0.0965  0.0539
 1803W        W22083   3.509  12.231  14.280 -0.2558 -0.1881 -0.1171
 1804W        W22084   1.629  13.011   3.116  0.0193  0.0166 -0.1648
 1805W        W22085   3.302   8.924  11.701  0.1120 -0.2203 -0.0561
 1806W        W22086  13.993   0.386   3.812  0.0108 -0.1413 -0.1137
 1807W        W22087  16.441  13.766  14.158 -0.1508 -0.2817  0.1881
 1808W        W22088  10.829  12.196  15.234 -0.1703 -0.0469 -0.0030
 1809W        W22089   6.737  12.271  10.356  0.2509  0.1993  0.1654
 1810W        W22090  17.769  14.817   4.233 -0.0427  0.1168  0.1089
 1811W        W22091   4.133  12.358   4.376  0.1354  0.1219 -0.2151
 1812W        W22092   5.903  16.119  14.625 -0.0005  0.0083  0.2942
 1813W        W22093   1.106  10.537  13.697 -0.2775 -0.1353  0.1386
 1814W        W22094  11.328   3.835   3.683  0.0066  0.0023  0.1485
 1815W        W22095   2.458  12.373   3.224 -0.0939 -0.1432 -0.0880
 1816W        W22096   5.099  15.909   5.463 -0.1721 -0.0171 -0.1201
 1817W        W22097   2.765   8.224  13.892 -0.1802 -0.1250 -0.0209
 1818W        W22098   8.822  17.317   1.825 -0.1204  0.0930  0.2677
 1819W        W22099   4.621   2.923   1.886 -0.0560  0.1549 -0.1032
 1820W        W22100   8.676  16.014  12.260  0.0134  0.0582  0.0484
 1821W        W22101  14.023   5.420  12.015  0.0406 -0.1877  0.2013
 1822W        W22102  10.512  18.011  11.449  0.2243 -0.0284  0.0361
 1823W        W22103   7.154   1.363   5.375 -0.3319  0.1699 -0.0589
 1824W        W22104   7.130  11.254   1.462  0.0752  0.2061 -0.3548
 1825W        W22105   6.948  14.740  13.761  0.0036 -0.0865 -0.1226
 1826W        W22106  10.902   3.032   1.028  0.2992 -0.0041 -0.0503
 1827W        W22107   6.818   2.434   1.035 -0.0767  0.1240 -0.1602
 1828W        W22108   4.707   0.468   1.104  0.1548 -0.0974 -0.2349
 1829W        W22109   9.937   4.957  11.802 -0.1590  0.0308 -0.2304
 1830W        W22110  10.225  17.114   3.526 -0.0557 -0.1283  0.1915
 1831W        W22111  16.765   3.235   0.368  0.0078  0.0461 -0.1518
 1832W        W22112   3.640  16.864  11.034  0.0356  0.1436 -0.2027
 1833W        W22113  15.796  13.519   1.906  0.2764 -0.1136  0.0491
 1834W        W22114  15.340   9.255   1.422 -0.1193 -0.0888 -0.0714
 1835W        W22115   8.870  13.599   3.150  0.0682  0.1287 -0.1161
 1836W        W22116   0.447  14.835   2.309  0.0212  0.0707 -0.1528
 1837W        W22117   1.149   5.403   1.376 -0.1727  0.0913  0.1372
 1838W        W22118   9.220   6.908  14.308 -0.1058 -0.0533 -0.0569
 1839W        W22119   1.912   2.376   2.941 -0.1437 -0.0189 -0.0782
 1840W        W22120  14.022   7.678  12.181  0.1815 -0.1386 -0.0870
 1841W        W22121  11.891   7.858   2.387 -0.1319 -0.3524  0.0599
 1842W        W22122   1.218   7.759   2.419  0.0254  0.0754 -0.1762
 1843W        W22123  15.751  13.103   3.692 -0.0104  0.2486  0.0510
 1844W        W22124  16.662  12.651  13.943  0.1546 -0.0670  0.0070
 1845W        W22125  17.972  11.225  13.840  0.2431 -0.2987  0.0901
 1846W        W22126  16.957  14.486   2.969  0.0920 -0.0560  0.0151
 1847W        W22127  16.626   0.183  12.228 -0.1308 -0.0903 -0.1960
 1848W        W22128   0.403   3.068  11.197 -0.0994  0.0388 -0.0496
 1849W        W22129  16.376  18.580   4.066 -0.3704 -0.2010  0.0830
 1850W        W22130   4.573  15.497   2.791 -0.3029  0.2015  0.1975
 1851W        W22131  18.309  14.536  12.096  0.0609 -0.1957 -0.0110
 1852W        W22132   6.700   8.035   3.592 -0.2117  0.2171  0.0767
 1853W        W22133  14.114  18.673  13.144 -0.1432 -0.0757  0.0825
 1854W        W22134  17.996  13.363  14.952  0.1781  0.1113  0.0793
 1855W        W22135   5.359  12.565   3.545  0.0991  0.3598  0.1404
 1856W        W22136   7.019  12.762   4.204  0.0152 -0.0420 -0.0487
 1857W        W22137   4.454  15.998  11.743 -0.3584 -0.0187  0.2797
 1858W        W22138  18.615  18.600  11.903 -0.2101 -0.0566 -0.0316
 1859W        W22139   4.328   6.165  14.993  0.2076 -0.2005  0.0546
 1860W        W22140  11.649  17.770  15.132  0.2103 -0.0595  0.2128
 1861W        W22141  18.199   8.379   0.121 -0.0987 -0.1031 -0.3219
 1862W        W22142  11.032  10.164   3.353  0.0557 -0.0773 -0.0713
 1863W        W22143  10.490  14.898   0.103  0.1018 -0.1638  0.0284
 1864W        W22144   2.479  11.675  14.180  0.1863 -0.4016 -0.1671
 1865W        W22145  13.356  16.458  11.514  0.0533 -0.0528 -0.1171
 1866W        W22146  12.910  13.384  12.694 -0.1770 -0.1124  0.0725
 1867W        W22147   2.433  14.420   0.152 -0.0891  0.0165  0.1297
 1868W        W22148   3.336   1.191  14.294 -0.0352  0.0140 -0.0665
 1869W        W22149   5.142  18.538  15.102  0.1931  0.2174  0.0232
 1870W        W22150   6.703   0.274   2.827  0.2380  0.2062 -0.4332
 1871W        W22151   4.198   0.287   0.901 -0.3234  0.0080  0.0407
 1872W        W22152  11.646   0.299   3.643  0.2033 -0.0454 -0.1539
 1873W        W22153  13.587   0.282  15.291  0.0507  0.1226 -0.3799
 1874W        W22154   3.145  10.922   3.360 -0.1380  0.2619 -0.1305
 1875W        W22155  11.581  12.466   3.250 -0.1827  0.0625  0.0318
 1876W        W22156  13.117  11.998   4.145 -0.1477  0.1242 -0.1048
 1877W        W22157  15.373  18.034  13.739  0.0341  0.0614 -0.1384
 1878W        W22158   4.952   1.165  12.335 -0.1307 -0.1080  0.0353
 1879W        W22159  10.614   6.040   3.498 -0.2896  0.2429 -0.1846
 1880W        W22160   6.641   3.385   2.621  0.1199 -0.3242  0.1172
 1881W        W22161   2.827   0.307   1.688  0.1246  0.0659 -0.0058
 1882W        W22162   7.447   7.167  11.361 -0.0242 -0.0348 -0.0753
 1883W        W22163   6.801  17.045   3.774  0.0417  0.0101 -0.1055
 1884W        W22164  14.965  10.929  13.760 -0.3113  0.1967 -0.2850
 1885W        W22165   3.232   7.742  13.086  0.1085 -0.0058  0.1240
 1886W        W22166   7.263   2.571  11.409 -0.0699  0.3503 -0.4698
 1887W        W22167   0.160  11.529   0.567  0.1197  0.2751 -0.1273
 1888W        W22168  18.497  10.487   0.597  0.0255  0.0406 -0.2054
 1889W        W22169  18.232   1.604   1.415  0.1574  0.3282  0.0462
 1890W        W22170   4.099  15.418   0.202  0.0232 -0.1747  0.1142
 1891W        W22171   0.991   1.746   3.088 -0.0728  0.1131 -0.1979
 1892W        W22172   8.698   7.755   2.372 -0.0059 -0.0016  0.0707
 1893W        W22173  17.727  10.353  14.355  0.0112 -0.3211  0.0105
 1894W        W22174   9.803   7.822   3.716  0.0227  0.2195 -0.0406
 1895W        W22175   8.034   4.699  11.323 -0.2815  0.1606  0.3628
 1896W        W22176   5.217  15.805  14.649 -0.0230  0.0169 -0.2004
 1897W        W22177   4.601   6.018   1.617  0.0135 -0.0193 -0.1109
 1898W        W22178  18.562   4.346  11.280 -0.1487  0.2561  0.1031
 1899W        W22179  14.298   3.485  14.401  0.2597  0.0269 -0.2290
 1900W        W22180   2.630   9.431  10.782  0.2295  0.0334 -0.0548
 1901W        W22181  16.080  15.929  13.495 -0.0612  0.0338 -0.0147
 1902W        W22182  12.856  17.524  14.779  0.1194  0.0608 -0.0513
 1903W        W22183  12.110  15.408   2.054  0.2232 -0.4962  0.1967
 1904W        W22184  13.103   5.510  12.079  0.0048 -0.1548  0.0576
 1905W        W22185   0.567  10.584   3.225 -0.1042  0.0096  0.2434
 1906W        W22186  10.698   6.260  14.539 -0.1527  0.0888 -0.2696
 1907W        W22187  16.744   9.883   1.993 -0.1149 -0.0607 -0.0984
 1908W        W22188  14.376  11.578   1.440  0.4735 -0.0383 -0.0235
 1909W        W22189   1.247  15.653   3.008 -0.1277 -0.0337 -0.2934
 1910W        W22190  14.101  14.534  11.194 -0.1395  0.1571 -0.1760
 1911W        W22191  10.012  15.151   2.372  0.0020  0.1633  0.0642
 1912W        W22192   1.027  14.089   4.345 -0.1454  0.0539 -0.1533
 1913W        W22193  13.442   0.588  12.236 -0.1261 -0.0611 -0.0638
 1914W        W22194  11.639  13.151   0.525  0.0060  0.0328  0.3325
 1915W        W22195  18.026   7.897   3.096  0.0835 -0.2713  0.0149
 1916W        W22196  18.401   1.206   4.092  0.1145  0.3211 -0.0980
 1917W        W22197   9.997   3.421  13.157 -0.0194  0.0034  0.3404
 1918W        W22198   5.477  14.932  11.963  0.6088  0.2283 -0.0392
 1919W        W22199   9.662  14.108  10.921  0.1495  0.2380  0.2316
 1920W        W22200  17.435  16.454   4.444 -0.2576 -0.0202  0.2717
 1921W        W22201  13.044   0.023  12.645 -0.0663  0.2555 -0.1705
 1922W        W22202  17.790  15.358  13.882  0.0756  0.0357  0.0348
 1923W        W22203   2.467  12.909   3.318 -0.2259  0.2287 -0.3128
 1924W        W22204  16.774  15.457   3.434  0.0495 -0.4560  0.1981
 1925W        W22205  10.379  10.414  11.187 -0.1334 -0.1939  0.1056
 1926W        W22206  16.436   4.878   1.911  0.0721 -0.0253  0.0571
 1927W        W22207   3.573   5.091   0.925 -0.2109  0.2192  0.0249
 1928W        W22208  17.248  12.338  13.533 -0.1450 -0.2220  0.0300
 1929W        W22209   7.895  16.429  11.155 -0.1796  0.1174  0.1538
 1930W        W22210   3.539   1.318   0.401  0.1641  0.3613  0.2229
 1931W        W22211  11.168   0.285  13.812 -0.0731  0.0876  0.0084
 1932W        W22212   4.381  10.197  12.867  0.3126 -0.3563  0.0606
 1933W        W22213  15.460   8.612   3.140  0.0521 -0.2383 -0.1473
 1934W        W22214   3.357  17.557   1.502 -0.2629  0.1540  0.0626
 1935W        W22215  13.372  17.687   2.239  0.5277 -0.1656  0.0725
 1936W        W22216  18.163   1.274   1.892 -0.2386  0.3726  0.0277
 1937W        W22217   3.964   0.859  13.720 -0.0203  0.3620  0.0361
 1938W        W22218  10.172  13.637   0.251  0.0926 -0.2819  0.2111
 1939W        W22219   1.807  12.726  11.406 -0.1261  0.1035  0.0267
 1940W        W22220   2.390   9.100   3.662  0.1667 -0.0996 -0.0465
 1941W        W22221   2.972  13.118  10.830  0.2525 -0.0338  0.1007
 1942W        W22222  17.845  11.158   2.519 -0.3110  0.1593 -0.1683
 1943W        W22223  14.126  13.190  15.244 -0.5174 -0.0587 -0.0736
 1944W        W22224  12.800  13.829   2.885 -0.1273 -0.0939  0.1846
 1945W        W22225   3.529   1.555  12.712 -0.4096  0.1030 -0.0219
 1946W        W22226  17.270   3.158  12.358 -0.1156 -0.2519  0.3137
 1947W        W22227  17.695  14.668   1.342 -0.0665  0.1910 -0.2134
 1948W        W22228  10.975  13.390  11.134  0.1185  0.3984  0.1085
 1949W        W22229   6.206  14.084  11.652 -0.0210 -0.1196  0.2545
 1950W        W22230  14.957   8.355   0.026  0.0879  0.1305 -0.1185
 1951W        W22231  14.745   1.748   2.453  0.1745  0.0469  0.3104
 1952W        W22232   7.432   3.903   1.492 -0.4741 -0.0797 -0.0121
 1953W        W22233   1.020   7.259  14.782  0.0057 -0.1635 -0.2617
 1954W        W22234   0.058  17.602  15.241 -0.0621  0.1176  0.0238
 1955W        W22235  11.068   5.481   2.427  0.0297 -0.1746 -0.1940
 1956W        W22236   3.434   8.648   4.184  0.0389  0.3348  0.0104
 1957W        W22237   6.121   0.893   9.582 -0.1424  0.2362  0.1234
 1958W        W22238  14.459  13.366  13.440 -0.2294 -0.0746  0.0796
 1959W        W22239   3.583  17.836  10.898  0.1583  0.1663  0.1761
 1960W        W22240   7.297  16.094  14.351  0.2640  0.1435 -0.4357
 1961W        W22241  15.595   1.962   1.162 -0.0423  0.1501 -0.0853
 1962W        W22242   2.854  11.050  15.084  0.2313  0.0731 -0.1431
 1963W        W22243  11.839   3.776  13.939  0.0672  0.1898 -0.2208
 1964W        W22244   5.645   5.370   1.623  0.0788  0.2008  0.0754
 1965W        W22245  13.520  15.531   3.770 -0.0166 -0.0586 -0.3059
 1966W        W22246   4.015   6.318  12.184 -0.1340 -0.3693  0.0916
 1967W        W22247  15.492   0.147   1.374 -0.1192 -0.2504  0.0478
 1968W        W22248  16.305   6.303  12.153  0.0665  0.2838  0.2555
 1969W        W22249   3.064   8.894   2.116  0.2297  0.0442  0.0362
 1970W        W22250  14.184  11.438  11.573 -0.0328  0.0030  0.0396
 1971W        W22251   9.901  17.263   4.245 -0.4056  0.0400 -0.0061
 1972W        W22252   2.899   4.364  14.608  0.1392 -0.2615  0.3896
 1973W        W22253   1.976  12.173   1.589 -0.2046  0.1765 -0.0752
 1974W        W22254   4.664   3.243  12.346  0.1815 -0.0692  0.0783
 1975W        W22255   7.683   7.110   3.687  0.0383 -0.0567  0.1843
 1976W        W22256  13.944   3.680  15.161 -0.1114 -0.3024 -0.2891
 1977W        W22257   3.194   6.767   3.951 -0.1413 -0.0149 -0.1967
 1978W        W22258   2.895   5.335   4.398 -0.2851  0.0689  0.0468
 1979W        W22259   8.753  12.073   1.037  0.2342 -0.0160  0.1777
 1980W        W22260   4.630   3.042  14.947  0.0601 -0.0915  0.1004
 1981W        W22261   1.706   0.634   2.514 -0.1010  0.0456 -0.1465
 1982W        W22262  12.562  11.350  12.366  0.2658 -0.0510 -0.1449
 1983W        W22263   9.570   5.247  13.603 -0.1796 -0.1420  0.0215
 1984W        W22264  13.583   7.445   0.947  0.1532  0.0487  0.1990
 1985W        W22265   5.036   8.262   4.196 -0.0431 -0.0049 -0.3926
 1986W        W22266  10.844   4.975   4.143  0.2500  0.1740  0.0606
 1987W        W22267  10.092   7.760  12.030  0.2663 -0.2612 -0.0488
 1988W        W22268   4.989  11.188   2.325  0.0425 -0.3263 -0.1985
 1989W        W22269  16.114   2.626  13.612 -0.1400 -0.0318  0.2234
 1990W        W22270   4.253   8.707   2.943 -0.0963  0.0695  0.0684
 1991W        W22271   8.594  15.563  14.821 -0.0469 -0.1403  0.0819
 1992W        W22272  10.354  14.466  14.152  0.0166  0.1105 -0.0664
 1993W        W22273  10.804   0.374  12.684  0.3508 -0.1175  0.1068
 1994W        W22274   5.566  11.801  13.171 -0.3674  0.1644 -0.0222
 1995W        W22275   9.283  13.117  14.858 -0.0910  0.0499 -0.1550
 1996W        W22276   9.700   9.141   2.876  0.1023 -0.0529 -0.0837
 1997W        W22277  11.859   9.221   4.010 -0.0662  0.1369 -0.3059
 1998W        W22278   7.473   9.022   2.159 -0.0951 -0.1487 -0.0381
 1999W        W22279   4.440   7.586   5.121  0.0009  0.1024  0.1507
 2000W        W22280  12.006   5.052   4.189 -0.1874  0.0346 -0.0352
 2001W        W22281   6.170   0.085   0.027 -0.0293 -0.1527  0.0691
 2002W        W22282   8.308   4.770  12.220 -0.3585 -0.0305 -0.0551
 2003W        W22283  11.204  11.067   1.878 -0.4063  0.1699 -0.0785
 2004W        W22284   2.282   5.412   3.680  0.0891 -0.3528 -0.1231
 2005W        W22285  10.745  10.943   2.978 -0.0856 -0.1436 -0.0191
 2006W        W22286   4.529  13.992   4.226  0.1187  0.1881 -0.1387
 2007W        W22287   6.274   4.057  12.543 -0.0085  0.1114  0.1228
 2008W        W22288   7.319   2.601  11.908 -0.3048  0.0199 -0.1513
 2009W        W22289   2.406  12.109   0.851  0.1363 -0.2183 -0.0798
 2010W        W22290  15.994   1.379   3.196 -0.1196  0.1603  0.0079
 2011W        W22291   8.952  13.566   2.194 -0.2073  0.0943  0.0216
 2012W        W22292   3.747   6.303   2.183 -0.2645 -0.0318 -0.1984
 2013W        W22293   3.707  17.418   2.532 -0.1887 -0.1069  0.1233
 2014W        W22294   6.074  14.784  11.194 -0.1132  0.1100  0.0013
 2015W        W22295   2.851  18.538  11.827 -0.1617  0.1205  0.0872
 2016W        W22296   9.092   9.730  13.880 -0.1518 -0.1697  0.0148
 2017W        W22297   6.196   9.747   4.489 -0.1096  0.0218 -0.1100
 2018W        W22298   5.579   7.578   0.115  0.3195 -0.2376 -0.0893
 2019W        W22299  16.268   3.152   3.580  0.1523  0.1013 -0.2430
 2020W        W22300   5.285  17.765  11.335  0.1521 -0.1168 -0.0400
 2021W        W22301  10.552  17.819   1.689  0.0578 -0.1548 -0.1236
 2022W        W22302   5.706   7.071   1.251 -0.0204 -0.2215 -0.1084
 2023W        W22303   8.288  14.877  10.777  0.0264  0.1743  0.1443
 2024W        W22304   7.266  11.470   0.600  0.0133  0.0527 -0.0593
 2025W        W22305   6.198  10.145   0.616 -0.2187  0.1496 -0.0748
 2026W        W22306   3.554   5.448  13.122 -0.1726 -0.0421 -0.1806
 2027W        W22307  13.096  18.368   3.886 -0.1300 -0.1202 -0.2066
 2028W        W22308   6.749  17.657  15.081  0.0916  0.4584 -0.1136
 2029W        W22309  15.516  17.893  14.240  0.1016 -0.0457  0.2418
 2030W        W22310   9.173  11.640  12.397 -0.0676 -0.0230  0.0053
 2031W        W22311  10.446   9.256   0.936  0.1842  0.3731 -0.3321
 2032W        W22312   0.206   3.381   4.051  0.0737 -0.0113  0.0182
 2033W        W22313  14.064  14.211  12.627 -0.0037 -0.2358  0.3646
 2034W        W22314  16.430   2.797  15.039 -0.2632  0.1124 -0.2638
 2035W        W22315   8.404   5.849  11.972  0.0503  0.3448 -0.2066
 2036W        W22316   5.955  10.054  13.656 -0.2506  0.0271  0.1772
 2037W        W22317  15.145   3.209  14.398  0.0939 -0.2855  0.1761
 2038W        W22318   2.544   4.929  10.904 -0.0806  0.2569  0.0665
 2039W        W22319   5.147   2.933  12.227  0.1850 -0.1410  0.1048
 2040W        W22320   7.084  10.539   4.322 -0.1826  0.0357  0.1359
 2041W        W22321  15.752  10.575  13.870  0.0936 -0.1836 -0.0230
 2042W        W22322   8.967  14.693  11.807  0.4956 -0.0688 -0.0974
 2043W        W22323  12.198  17.022   0.282  0.3561  0.2157 -0.0404
 2044W        W22324  12.267   0.460  12.039 -0.0513 -0.3797 -0.0856
 2045W        W22325  10.520   8.735   0.996  0.2094  0.1945 -0.0355
 2046W        W22326  10.893   5.166   3.268 -0.1639  0.0426 -0.0752
 2047W        W22327  16.208  14.577   2.083  0.3393  0.0957 -0.0593
 2048W        W22328  14.179   5.804  12.738  0.4672  0.1949 -0.1525
 2049W        W22329   4.091   4.596  13.541 -0.2044  0.1853  0.0152
 2050W        W22330   5.396  16.485   0.912  0.0426 -0.0277  0.1373
 2051W        W22331  11.902   4.743  12.481  0.2674  0.1469 -0.1829
 2052W        W22332   8.628   7.288  14.426  0.1268 -0.3144  0.0802
 2053W        W22333   3.642  18.635   3.873  0.3171 -0.2494  0.1224
 2054W        W22334  14.340  12.743   2.645  0.0876  0.2585 -0.0168
 2055W        W22335   1.473  14.434   4.284 -0.1519  0.0934  0.1515
 2056W        W22336  15.711   5.649   3.522  0.1452 -0.2418 -0.0210
 2057W        W22337  16.879   1.264   3.357 -0.1688 -0.1761 -0.1876
 2058W        W22338   1.120  14.410  14.751  0.2257  0.3085  0.0505
 2059W        W22339   6.844  17.714  11.234 -0.2202 -0.0160  0.0028
 2060W        W22340  15.619   2.291   4.130 -0.0518 -0.0680  0.2293
 2061W        W22341   3.970  15.296  15.082  0.0259 -0.0004  0.0458
 2062W        W22342  10.032  14.583  13.794 -0.0752 -0.0676 -0.1509
 2063W        W22343  10.182   2.007   0.522  0.0023  0.1075  0.1903
 2064W        W22344  15.462   2.867  12.205  0.0056 -0.0131  0.1512
 2065W        W22345   9.397  18.161  11.216  0.0503  0.0670  0.0337
 2066W        W22346   4.615  15.813  14.826 -0.1978  0.2202 -0.0090
 2067W        W22347  14.908   3.877   3.009 -0.1995  0.1159 -0.0564
 2068W        W22348  18.383   2.672  11.910  0.0828 -0.1223 -0.0026
 2069W        W22349   3.772  10.263  12.202  0.1368  0.1534 -0.4597
 2070W        W22350   4.228  14.530   2.685  0.1103 -0.2107 -0.1833
 2071W        W22351   4.538  14.489  13.087 -0.3095  0.3694 -0.0350
 2072W        W22352  15.151  18.015   1.980  0.1566  0.0229 -0.2616
 2073W        W22353  15.571   0.576  11.438 -0.0562  0.2339 -0.2025
 2074W        W22354   9.144  17.847   2.640 -0.0478 -0.3666  0.0234
 2075W        W22355  17.686   9.399  11.385  0.1221 -0.2012  0.3733
 2076W        W22356  11.296  13.237   4.329 -0.1117 -0.2355  0.1558
 2077W        W22357  10.519   8.228  14.430 -0.0977  0.2688 -0.1697
 2078W        W22358   0.033  14.612  12.354  0.2131  0.2671 -0.1787
 2079W        W22359  10.441  17.600   1.026  0.2508 -0.1292  0.0661
 2080W        W22360   4.805   8.875   2.246  0.1770  0.3684 -0.2240
 2081W        W22361  16.607  17.382   1.347 -0.0600  0.2342  0.4807
 2082W        W22362   1.842   0.318   1.611 -0.0582  0.0590  0.0863
 2083W        W22363  14.060  12.974   1.419  0.2793  0.1378  0.2585
 2084W        W22364   4.319  15.958  14.443  0.0245 -0.1532 -0.1519
 2085W        W22365   6.195  12.333  10.358 -0.1462  0.0899 -0.0225
 2086W        W22366   3.870  17.443  13.207 -0.1605 -0.0454  0.1872
 2087W        W22367  12.221  14.734  14.151 -0.0719  0.1189 -0.1019
 2088W        W22368  16.347   0.051   3.072 -0.2331 -0.0347  0.1741
 2089W        W22369   7.729  18.426  10.799  0.0590 -0.1039  0.0519
 2090W        W22370   7.240  15.362   4.201 -0.4762 -0.2059  0.1390
 2091W        W22371   0.247  12.285  12.252  0.1355 -0.3315  0.0896
 2092W        W22372   6.584   0.391  11.237 -0.1072  0.0386  0.0477
 2093W        W22373  13.899   9.080   3.074 -0.2111 -0.1333  0.2759
 2094W        W22374   4.417  18.590   4.334 -0.1579 -0.0834 -0.1401
 2095W        W22375  18.293  10.429   3.290 -0.1115  0.3425 -0.1207
 2096W        W22376   5.582  14.477  11.961  0.0543  0.1162  0.0138
 2097W        W22377   9.432  13.494  15.229  0.0524 -0.0489  0.0934
 2098W        W22378   3.282  18.195  15.323  0.0671  0.0632  0.1206
 2099W        W22379   3.823   9.761  13.226  0.1000  0.2819  0.1293
 2100W        W22380   4.315   9.817  14.953  0.0832  0.1581 -0.0869
 2101W        W22381   5.354  12.069  11.999  0.3243  0.1980  0.0142
 2102W        W22382   1.090   6.067  13.038  0.3684  0.2779 -0.0735
 2103W        W22383   5.594  14.522  12.912 -0.2426 -0.0767  0.0183
 2104W        W22384  14.798  17.155  14.165  0.1667  0.0453 -0.0939
 2105W        W22385   7.655   8.061  13.907 -0.0427 -0.0664  0.0387
 2106W        W22386   2.005   8.647  12.736  0.0541  0.0196 -0.0634
 2107W        W22387  10.374   3.334  14.082 -0.1502  0.0218  0.0574
 2108W        W22388   2.878   4.813   2.263  0.0637 -0.3587  0.0648
 2109W        W22389   9.488  16.182   2.154 -0.0722 -0.0357  0.0668
 2110W        W22390   9.709  17.898   0.050 -0.0357 -0.0366  0.2641
 2111W        W22391   7.009   9.088   2.010 -0.4036  0.0323 -0.2678
 2112W        W22392  14.211  14.457   2.244 -0.0167  0.1762  0.0276
 2113W        W22393   0.314  11.238   1.072 -0.2328  0.1077  0.0557
 2114W        W22394   9.568  13.736  14.222 -0.1221 -0.0828 -0.2256
 2115W        W22395   5.274   2.345   3.258  0.0696  0.1284  0.0162
 2116W        W22396  18.525   5.292   0.298 -0.2921  0.1482  0.2680
 2117W        W22397   5.080   7.768   4.489 -0.2332  0.1527  0.0140
 2118W        W22398  17.385  12.132   2.362  0.1416 -0.0840  0.3309
 2119W        W22399   6.976   1.269   1.837 -0.0023 -0.0727 -0.2505
 2120W        W22400   4.509   2.055  12.563  0.0224  0.1766  0.0295
 2121W        W22401  14.618   0.845   0.438  0.0971 -0.3656 -0.2634
 2122W        W22402   9.955  13.827  12.645 -0.3175 -0.3025 -0.4497
 2123W        W22403  11.630   2.759  12.841 -0.0952  0.0642 -0.1001
 2124W        W22404   4.914   5.363   0.556  0.0703 -0.0595  0.3497
 2125W        W22405  18.713   4.820   1.614 -0.0479 -0.0001  0.1303
 2126W        W22406   2.313  13.334   2.554  0.1590  0.2204  0.3708
 2127W        W22407  15.156  11.754  13.423 -0.3368  0.2202  0.0372
 2128W        W22408  16.402  12.593  14.952 -0.2415  0.0214 -0.2655
 2129W        W22409  14.985   8.176   1.910  0.1188  0.1381  0.1922
 2130W        W22410  10.868   0.970  14.112 -0.0828  0.2494  0.2985
 2131W        W22411  11.988  11.808   2.248  0.0011 -0.0630 -0.0712
 2132W        W22412  10.627  11.157   2.543 -0.1038  0.0078  0.0099
 2133W        W22413  13.886  17.456   0.173 -0.1266  0.1275 -0.0460
 2134W        W22414  18.309   6.400   4.105 -0.1314  0.0631  0.3177
 2135W        W22415  14.776   8.641  14.987 -0.3229  0.1768 -0.0800
 2136W        W22416  16.870   4.047   3.536  0.1352 -0.0014 -0.1180
 2137W        W22417  11.996  15.088  11.288  0.2144  0.0666  0.1956
 2138W        W22418  18.686  13.908  13.120 -0.1499 -0.0337  0.1031
 2139W        W22419  16.200   6.483  15.060 -0.1025  0.0000 -0.1919
 2140W        W22420   1.603  15.975   1.578 -0.3945 -0.1600 -0.1936
 2141W        W22421  13.868   7.982  13.458  0.0492  0.0955  0.0526
 2142W        W22422  13.109  11.401   4.862 -0.5851 -0.0760 -0.1289
 2143W        W22423  12.831   1.368  11.431  0.0215 -0.0009  0.0644
 2144W        W22424   0.235  15.615   4.213  0.1237 -0.0943 -0.0135
 2145W        W22425   4.326  17.749  15.364 -0.0289 -0.0066 -0.0442
 2146W        W22426   2.922   7.333  15.296  0.1021  0.2452 -0.3252
 2147W        W22427   5.474  17.573   2.738  0.1071  0.3039  0.2633
 2148W        W22428  15.379   2.282  12.864 -0.2515 -0.2216 -0.1890
 2149W        W22429  10.200  17.443  12.123  0.0915 -0.0537 -0.1661
 2150W        W22430   7.853   5.411   2.059 -0.0405 -0.1744  0.1178
 2151W        W22431   0.782   6.606  13.274  0.2841  0.0352  0.1519
 2152W        W22432   2.468   4.979  15.165 -0.1438  0.0136 -0.0539
 2153W        W22433  15.175   5.466   3.297  0.1213  0.0159  0.0227
 2154W        W22434   9.703  10.271   4.073  0.3378  0.2221 -0.2190
 2155W        W22435  10.363   3.880   1.254 -0.0580  0.2509 -0.0011
 2156W        W22436  16.553   5.536  14.823  0.0890 -0.2270  0.1607
 2157W        W22437  13.349   6.645  12.130 -0.0728  0.0925 -0.2661
 2158W        W22438   2.535  15.766  13.614  0.0285  0.4541  0.1577
 2159W        W22439  14.741  16.206   2.216  0.0372  0.2013 -0.1012
 2160W        W22440   2.272   2.181   2.568  0.5052 -0.0151 -0.1697
 2161W        W22441  14.153  12.008  11.874 -0.0568  0.0475  0.2003
 2162W        W22442   0.342  11.558  15.231  0.3759  0.0723 -0.1991
 2163W        W22443   6.732  13.885  14.480 -0.0276 -0.4232 -0.1104
 2164W        W22444  13.549   4.162   0.385  0.0120  0.0901 -0.0171
 2165W        W22445   9.846   7.682   1.583 -0.2154  0.0794 -0.0286
 2166W        W22446   7.597   0.823  14.616  0.0448  0.1525 -0.1720
 2167W        W22447   6.160   7.829  12.542  0.2563 -0.1533  0.0301
 2168W        W22448   9.281   3.805   2.957  0.4784 -0.0631 -0.3056
 2169W        W22449   4.613  14.696   3.070  0.0958 -0.0434  0.0611
 2170W        W22450   6.058  12.886  14.595  0.0863 -0.1552  0.0547
 2171W        W22451  12.765  16.052   2.434  0.1648  0.2626  0.2479
 2172W        W22452   8.310  18.371  10.711  0.5581 -0.1319  0.2675
 2173W        W22453   4.321   6.666   2.198 -0.2477 -0.0592  0.1956
 2174W        W22454   0.132  15.839   1.278  0.1237 -0.2032 -0.0248
 2175W        W22455   6.666  13.414   0.915 -0.1503 -0.0243  0.0855
 2176W        W22456   6.413  15.484  15.037  0.3178  0.1690  0.2215
 2177W        W22457   9.439  16.319  12.898 -0.3259 -0.2780  0.0321
 2178W        W22458   8.453  15.736  11.445  0.0843 -0.2550  0.1127
 2179W        W22459  15.468   7.909   1.714 -0.4677  0.0296 -0.0951
 2180W        W22460  17.319   4.338   2.643 -0.1976  0.0088  0.1687
 2181W        W22461  12.075  11.741  13.117 -0.3504 -0.3527 -0.0105
 2182W        W22462  15.641   8.268   3.535  0.2786 -0.2212  0.2805
 2183W        W22463  16.841  15.238   0.492  0.0498 -0.1242 -0.1382
 2184W        W22464   2.647   7.079   1.636 -0.0198  0.1718 -0.2325
 2185W        W22465   7.336   3.412   3.439 -0.0311 -0.1086 -0.1502
 2186W        W22466  17.898   0.687  14.931 -0.2012  0.7174  0.1220
 2187W        W22467   3.131   9.185  12.702 -0.1238 -0.3560  0.0789
 2188W        W22468   5.757  13.844   1.130  0.2503 -0.0427  0.1885
 2189W        W22469   0.477   5.292  14.084 -0.1093  0.0558  0.1453
 2190W        W22470   8.923  14.547  12.752 -0.3449  0.3242 -0.1538
 2191W        W22471  13.380  15.302   0.467 -0.0410 -0.0290  0.2394
 2192W        W22472  13.534   7.607   2.853  0.1100 -0.1308  0.3207
 2193W        W22473  16.149   1.239  14.871  0.0929  0.0980  0.0145
 2194W        W22474   4.087  11.826   3.087  0.0448  0.0721  0.0523
 2195W        W22475  16.847   5.193   2.784 -0.1589 -0.2465 -0.0235
 2196W        W22476  13.155   3.332  12.823  0.3387 -0.0775  0.0485
 2197W        W22477  18.413   6.032  13.114 -0.0237 -0.0784  0.0245
 2198W        W22478  11.371  11.932  13.814 -0.0362  0.1427 -0.1843
 2199W        W22479  16.954  12.474   3.418 -0.0276 -0.2174 -0.0467
 2200W        W22480  14.559  12.223  14.255  0.0969  0.3268  0.4259
 2201W        W22481  17.722  17.891   5.531 -0.2314  0.0080 -0.3994
 2202W        W22482   4.255   2.164  10.681 -0.2782 -0.1025  0.1267
 2203W        W22483   7.208  18.387   1.281 -0.0394  0.2184  0.0973
 2204W        W22484   5.983  13.764   0.127 -0.0591  0.0669 -0.1710
 2205W        W22485   7.350   6.756  15.182  0.1087  0.0392 -0.0473
 2206W        W22486  15.585   1.020  11.134  0.2611  0.2229  0.1063
 2207W        W22487  13.974  13.342   4.534 -0.1138 -0.1286  0.2639
 2208W        W22488  16.530  10.021   4.172 -0.0507  0.1915  0.1202
 2209W        W22489  16.551   4.976   0.192  0.1982  0.0253 -0.0774
 2210W        W22490   8.252   9.568   1.871  0.3309  0.1687  0.2364
 2211W        W22491   0.487  15.367   2.597  0.0071  0.1256 -0.0382
 2212W        W22492  12.646  12.034  14.335 -0.1912  0.0285 -0.0748
 2213W        W22493   3.457   7.530   1.001 -0.0535 -0.0851  0.0044
 2214W        W22494  14.204   7.639   2.051  0.2224 -0.1714  0.0027
 2215W        W22495  12.429   0.852  10.829 -0.3728  0.2756  0.2707
 2216W        W22496  12.680  18.541  13.973  0.2006  0.0729 -0.2338
 2217W        W22497   5.195   3.729   0.468 -0.3921 -0.0703 -0.0745
 2218W        W22498   6.942   9.679  15.181  0.0888  0.1106 -0.1084
 2219W        W22499   8.731   0.047   2.957  0.0096  0.0669 -0.3314
 2220W        W22500   6.070  15.893  10.484  0.0023  0.1125 -0.2598
 2221W        W22501  10.206  12.475   1.352 -0.1393 -0.3153  0.1965
 2222W        W22502   1.910   5.058  13.986 -0.1053  0.1843  0.0548
 2223W        W22503   0.187   2.702   2.578 -0.2752 -0.0545  0.0279
 2224W        W22504   4.198   2.849  11.418 -0.4772 -0.1363  0.1541
 2225W        W22505   4.680   1.621   2.884 -0.1909  0.2833  0.2052
 2226W        W22506   1.089  12.335   0.587  0.0498  0.1658  0.0759
 2227W        W22507  12.566  15.650  12.514  0.0726  0.0325 -0.1650
 2228W        W22508   7.450   9.072  15.330 -0.0725 -0.2079  0.0525
 2229W        W22509  18.369   3.535   4.896  0.1944  0.1752 -0.0750
 2230W        W22510   6.606   4.030   2.070  0.1675  0.1627 -0.4036
 2231W        W22511  16.612   9.460  12.017  0.0636  0.2668 -0.0890
 2232W        W22512  10.884  18.672   1.145 -0.0169  0.3019  0.0175
 2233W        W22513  17.418   9.335   1.601 -0.1944 -0.0081 -0.2752
 2234W        W22514   7.224  11.903  14.087 -0.2190 -0.2394 -0.5063
 2235W        W22515   8.778   3.608  15.131 -0.0774 -0.1186 -0.2164
 2236W        W22516  11.337   2.033  13.434 -0.2192 -0.2276  0.0372
 2237W        W22517  10.390   8.991  11.438 -0.1187 -0.0215  0.2974
 2238W        W22518   0.829  15.895   0.884 -0.0001  0.1287 -0.1713
 2239W        W22519   3.609   1.593  11.233  0.1349 -0.1705 -0.0541
 2240W        W22520   4.121   3.941   0.300  0.1495  0.3150 -0.0677
 2241W        W22521  15.532  12.250   3.733 -0.2208 -0.0747 -0.2470
 2242W        W22522  12.424  14.430   2.280 -0.2878  0.3053  0.1126
 2243W        W22523   5.435  17.852  10.618 -0.0205 -0.2549 -0.0575
 2244W        W22524   7.245   1.367   4.408 -0.0826 -0.2238  0.1055
 2245W        W22525   2.557  10.157  12.367  0.0780  0.0375  0.0190
 2246W        W22526   9.999  14.433   4.342 -0.0165  0.2050 -0.1413
 2247W        W22527   1.010   8.003   3.140 -0.2965 -0.1679  0.0253
 2248W        W22528  14.890   4.759   2.421  0.1217 -0.0583 -0.0503
 2249W        W22529   5.988  12.483  14.087 -0.0807 -0.0682 -0.1257
 2250W        W22530   6.275  13.787  12.077  0.1920  0.0025  0.0977
 2251W        W22531  13.739  10.296  15.001 -0.0549 -0.0879 -0.1320
 2252W        W22532   5.447  14.457   1.577 -0.0202  0.0843  0.0054
 2253W        W22533   6.778  15.641   0.230 -0.2056 -0.0802 -0.0212
 2254W        W22534  18.386   6.000   0.034 -0.0520  0.2862 -0.0305
 2255W        W22535   1.143  13.502  11.251 -0.2791  0.0171 -0.1166
 2256W        W22536  11.772   2.305   1.341 -0.1926 -0.4528 -0.1682
 2257W        W22537   7.643  10.620   4.158 -0.2414 -0.0360  0.0367
 2258W        W22538  12.664  12.514   0.000  0.1474  0.0184 -0.1188
 2259W        W22539  16.169   2.361  14.004  0.3228 -0.3809 -0.2064
 2260W        W22540  12.941  12.812  12.637 -0.2185 -0.0251  0.1041
 2261W        W22541  15.798  13.827   3.353  0.0215  0.1506  0.0340
 2262W        W22542  12.424   1.729  13.198 -0.1388  0.1732 -0.0304
 2263W        W22543   2.065   7.425  10.989 -0.2107  0.0035 -0.2225
 2264W        W22544   5.171   2.318   4.461 -0.0170  0.0420 -0.4367
 2265W        W22545   8.806  18.679  13.739 -0.1784  0.2664  0.0782
 2266W        W22546   8.177   8.446   0.918 -0.0965  0.1124 -0.1305
 2267W        W22547   6.148  13.498   2.336 -0.2772  0.2081 -0.0017
 2268W        W22548   9.897  10.212   1.380  0.1556  0.2638  0.1620
 2269W        W22549  10.851   6.387   3.877  0.1948 -0.1277 -0.0504
 2270W        W22550  16.399   2.194   4.499  0.2880  0.2901  0.2752
 2271W        W22551  10.974   1.440  12.428 -0.3988 -0.0378 -0.2459
 2272W        W22552   4.627  12.486   4.467 -0.1082 -0.4807  0.1028
 2273W        W22553   0.922   9.571   1.445  0.2641 -0.0343  0.2861
 2274W        W22554  14.641  11.290  11.447  0.1771  0.2944  0.1703
 2275W        W22555   4.746   9.380   4.190 -0.4086 -0.0853  0.0688
 2276W        W22556  16.409   6.887  10.684 -0.2131 -0.1057  0.1003
 2277W        W22557  11.348  16.545   3.564  0.0367  0.1515 -0.0779
 2278W        W22558   0.587  15.742   0.448 -0.0062 -0.1382 -0.1522
 2279W        W22559   1.107   1.428  11.588 -0.1670 -0.0186  0.4159
 2280W        W22560  10.479  17.067  11.450  0.2778  0.1723 -0.0674
 2281W        W22561  18.023   1.100  14.699  0.0280 -0.0739  0.0446
 2282W        W22562  11.275  11.767  12.560 -0.0563 -0.0579  0.4003
 2283W        W22563  10.654   2.213  10.752 -0.1788 -0.1629 -0.1252
 2284W        W22564  13.635  10.893  10.583  0.0379 -0.1760 -0.2230
 2285W        W22565  17.945   8.134  13.386  0.1041 -0.1168  0.1839
 2286W        W22566   3.109  11.115   0.133 -0.0079 -0.5614 -0.1966
 2287W        W22567  10.605  15.120   4.894  0.1357 -0.2217  0.1901
 2288W        W22568  11.333   3.997  11.450 -0.2923  0.1413 -0.2187
 2289W        W22569   7.718  10.672  12.919  0.1040 -0.2578 -0.0887
 2290W        W22570   5.847  13.031   0.624  0.2783 -0.1401  0.0725
 2291W        W22571  13.816   5.917  14.727  0.1819 -0.1610 -0.0712
 2292W        W22572   7.670  11.694  12.731 -0.0707  0.0006  0.0462
 2293W        W22573  10.840  17.939  13.288 -0.0620 -0.1924 -0.0458
 2294W        W22574  13.320   8.652  14.808  0.0899  0.0000  0.0237
 2295W        W22575  12.208  18.337   0.995  0.0608 -0.1371  0.3783
 2296W        W22576  16.052  11.632   1.984  0.0310 -0.1034  0.1832
 2297W        W22577   0.137  12.384   3.338  0.2544  0.0811  0.1887
 2298W        W22578   8.547   9.901   4.861  0.1905 -0.1300 -0.2276
 2299W        W22579   5.315  17.834  12.234  0.1845 -0.2305 -0.0269
 2300W        W22580   2.928   8.120  11.783 -0.1427 -0.1093  0.2744
 2301W        W22581  12.343  13.692  14.179 -0.1149 -0.0715  0.0296
 2302W        W22582   5.020   1.849   3.122 -0.3509 -0.0013 -0.2120
 2303W        W22583   2.387   6.911  14.180 -0.0066  0.0868 -0.1743
 2304W        W22584   2.473   4.172   3.269 -0.0570  0.0285 -0.0344
 2305W        W22585  15.833   2.711   2.866  0.0385 -0.1007 -0.1991
 2306W        W22586  16.479  10.904  14.555 -0.0374  0.0751 -0.3635
 2307W        W22587   5.977  14.805   5.314  0.2102  0.3112  0.1701
 2308W        W22588   8.977   4.812  13.116 -0.0826  0.2674  0.0115
 2309W        W22589  17.628   1.067   1.903  0.3106 -0.0701  0.1721
 2310W        W22590  10.038   0.168   1.320  0.1674 -0.1414  0.0530
 2311W        W22591  11.916   0.444  10.329  0.2490 -0.0504 -0.1376
 2312W        W22592   2.428   6.802   3.375  0.1763 -0.2500  0.4193
 2313W        W22593  17.886  15.072  14.332  0.2251 -0.0029 -0.1985
 2314W        W22594   2.663   4.276  11.956  0.0605  0.2492  0.3440
 2315W        W22595   1.609   2.569   0.165  0.0101 -0.2568 -0.2512
 2316W        W22596  11.823  10.136   3.631 -0.0477  0.0407  0.0669
 2317W        W22597   9.393   1.461  13.060 -0.0415  0.1376 -0.1514
 2318W        W22598  10.675  18.257  11.830 -0.1149 -0.1043 -0.1306
 2319W        W22599  13.956   7.868   4.597 -0.2796 -0.0493 -0.3739
 2320W        W22600   8.536  12.281  13.446  0.2007 -0.0591  0.2697
 2321W        W22601  14.036  14.431   2.745  0.0258  0.1981 -0.0244
 2322W        W22602   5.502  15.965  15.066 -0.0797 -0.0292  0.2461
 2323W        W22603  12.508   2.896   1.908  0.3363 -0.3185  0.1958
 2324W        W22604  14.791  14.986   2.526  0.2942  0.1525  0.0368
 2325W        W22605   7.637  12.951  13.036  0.0516  0.3974 -0.0185
 2326W        W22606  11.358  15.212   0.063  0.0093 -0.0204 -0.0955
 2327W        W22607   6.210   5.992   1.746 -0.0952  0.0130 -0.0587
 2328W        W22608  17.813   6.860  13.434 -0.1365  0.0017 -0.0251
 2329W        W22609   0.761   8.470   2.936  0.1197  0.3008 -0.2085
 2330W        W22610  11.567   3.545  13.563  0.0614  0.0853 -0.5565
 2331W        W22611  15.419  16.397  15.134 -0.2654 -0.0900  0.0183
 2332W        W22612  17.700   9.941   0.464  0.0002  0.0258 -0.1323
 2333W        W22613   7.382  15.432  13.499  0.0479 -0.0851 -0.2297
 2334W        W22614  15.899  13.169  11.197 -0.0981  0.3146 -0.0382
 2335W        W22615   3.619   3.287   3.063 -0.3038 -0.0432 -0.3153
 2336W        W22616  17.125   7.538  13.250 -0.4084 -0.1226 -0.0613
 2337W        W22617  17.488   3.368   1.264  0.0045  0.0101 -0.4102
 2338W        W22618  12.930  16.778  13.670  0.2868 -0.0861  0.0276
 2339W        W22619  15.058  11.875  14.940 -0.0084 -0.0438 -0.0249
 2340W        W22620  16.840  13.756   3.662  0.0115 -0.0234  0.2803
 2341W        W22621  16.244   7.407  12.038 -0.0745  0.6197 -0.1288
 2342W        W22622   9.475   2.725   3.541  0.0323 -0.0346 -0.0599
 2343W        W22623   4.660  16.403   3.639  0.3853  0.1408  0.0183
 2344W        W22624  10.444   0.049  11.882 -0.2372  0.3570  0.4310
 2345W        W22625   1.257  18.595   0.775  0.0825  0.1123  0.0643
 2346W        W22626  15.551   3.317   3.833  0.2299 -0.1183  0.0855
 2347W        W22627  10.085   4.204  13.649 -0.2222  0.0419  0.0345
 2348W        W22628   5.012   5.420  10.208 -0.1469  0.3924 -0.3247
 2349W        W22629  15.938  14.755   0.672  0.2499 -0.0647  0.1384
 2350W        W22630  10.570   8.164   0.322  0.3222  0.0288  0.2957
 2351W        W22631   4.931   2.242  14.410  0.3441 -0.0951  0.1698
 2352W        W22632  12.695  14.573   3.165 -0.1324 -0.1863 -0.1638
 2353W        W22633   9.921   7.010   0.400 -0.2111 -0.0675  0.3682
 2354W        W22634   4.478  12.123   3.391 -0.3231  0.0181 -0.2240
 2355W        W22635   2.896   5.621   1.414 -0.0336  0.0299 -0.0787
 2356W        W22636   3.793  15.354   1.132  0.1671  0.0125 -0.0625
 2357W        W22637   4.890   3.496   0.853 -0.0960  0.1915 -0.2412
 2358W        W22638   8.725   0.752   1.861 -0.0331 -0.3048 -0.1277
 2359W        W22639   8.880   8.309   4.646  0.2902 -0.2135  0.2670
 2360W        W22640  18.019  10.197   2.437  0.1551  0.2085 -0.2017
 2361W        W22641   7.015  18.446  15.272  0.1097 -0.0412 -0.1183
 2362W        W22642   5.056   6.034  11.280  0.2753 -0.0182  0.1615
 2363W        W22643  17.153  17.669   1.888  0.1677  0.1663 -0.0712
 2364W        W22644   8.054   4.969  14.902 -0.4058 -0.1324  0.0584
 2365W        W22645  11.481  13.842  13.126 -0.3138  0.3502 -0.0601
 2366W        W22646  13.228  15.036  12.665 -0.1850  0.0816  0.2800
 2367W        W22647   6.806  17.402  12.704  0.2313  0.0126  0.0026
 2368W        W22648   7.067   5.688   3.292 -0.0240 -0.0623 -0.0107
 2369W        W22649  17.956   7.285  13.123  0.0086 -0.2106 -0.2897
 2370W        W22650  12.067   3.501   5.145 -0.1906 -0.1268  0.3170
 2371W        W22651  16.178   0.292  15.374 -0.1161 -0.2523  0.0078
 2372W        W22652  15.592  15.246  13.108  0.2722 -0.0657 -0.1631
 2373W        W22653   9.001   9.677   1.311 -0.0500 -0.0298 -0.1007
 2374W        W22654   6.634  10.455   3.022 -0.1223  0.0882  0.2851
 2375W        W22655  14.459  16.333  15.341 -0.1364 -0.1896 -0.0392
 2376W        W22656   3.552   5.567  14.661 -0.0561 -0.3130 -0.4499
 2377W        W22657   4.279   0.734   1.263  0.0803  0.2459 -0.0701
 2378W        W22658   6.062  14.481  12.794 -0.1452 -0.0164  0.0574
 2379W        W22659  12.998  17.191  14.398  0.2331  0.2362  0.1331
 2380W        W22660   8.588   8.092   3.970  0.2344 -0.1841 -0.1317
 2381W        W22661  16.267   9.095  12.180  0.0761 -0.1306 -0.0968
 2382W        W22662  14.114  17.320   2.564 -0.0743  0.0925 -0.1860
 2383W        W22663   4.897   3.054  11.419 -0.0552 -0.0064 -0.1424
 2384W        W22664   9.023   8.276  12.530 -0.1479  0.0293  0.3653
 2385W        W22665  10.446  18.163   1.193  0.2102  0.2928 -0.1794
 2386W        W22666   5.083  12.562   4.014 -0.0347 -0.2569  0.5087
 2387W        W22667   0.351   8.304   2.794  0.0058  0.0304 -0.0607
 2388W        W22668   9.431  16.430   3.468  0.0561  0.0201 -0.1165
 2389W        W22669  16.748   6.378   2.064  0.2186  0.0847 -0.1787
 2390W        W22670  10.587   2.744   0.556 -0.2706  0.0605  0.1778
 2391W        W22671  16.255   8.837  14.469 -0.0392 -0.0585  0.0127
 2392W        W22672  13.013  12.074  12.143 -0.3278  0.0312  0.1027
 2393W        W22673  12.995  10.951   0.880  0.3803  0.0688 -0.1220
 2394W        W22674  14.628  11.554   3.899  0.0460  0.2009  0.1169
 2395W        W22675  15.348   4.228  15.282  0.0387 -0.0437 -0.2485
 2396W        W22676  15.278   8.823  12.232  0.4349  0.0621 -0.0367
 2397W        W22677   9.970  14.682   0.196 -0.4664  0.0393  0.2454
 2398W        W22678   6.697  17.731  14.594 -0.0730 -0.0586  0.1828
 2399W        W22679  12.639   1.198   1.451  0.1997 -0.0096 -0.0334
 2400W        W22680  15.833  14.055  13.743 -0.0700  0.0715 -0.0832
 2401W        W22681   2.983   4.227   2.503 -0.0822  0.3452 -0.1149
 2402W        W22682   7.727  14.841   1.082  0.0064 -0.0578  0.1471
 2403W        W22683  16.045  15.881  11.414  0.1268 -0.0579  0.0529
 2404W        W22684  14.700   0.197   0.734 -0.2611  0.0919 -0.0888
 2405W        W22685  15.917   5.747   0.223 -0.3147  0.0635  0.1435
 2406W        W22686  16.917   3.539  12.014  0.2599 -0.0230 -0.0903
 2407W        W22687   3.423  10.300   3.990  0.1814  0.2204  0.0723
 2408W        W22688  13.380   6.637  14.394 -0.2689 -0.2753 -0.0809
 2409W        W22689   8.293   5.175   2.985 -0.0109  0.2697  0.1177
 2410W        W22690  17.542  17.734  13.610 -0.5009  0.0677 -0.0800
 2411W        W22691  10.916   9.788  13.662  0.0704 -0.0209  0.3464
 2412W        W22692   5.121  11.595  12.032 -0.0677 -0.2836  0.0482
 2413W        W22693   1.575  14.256   1.919  0.4099  0.1007  0.2862
 2414W        W22694  18.487  10.196   3.676 -0.1623 -0.4717 -0.1314
 2415W        W22695   3.123  15.821  10.869  0.1194 -0.0033  0.1919
 2416W        W22696   8.009   9.476  12.080  0.3704  0.0977  0.2489
 2417W        W22697   0.712  14.195   1.590 -0.2012 -0.0647  0.0161
 2418W        W22698   7.980   2.566   0.395 -0.2447 -0.1348 -0.0283
 2419W        W22699  12.673   4.698   1.964 -0.1618  0.0517  0.1332
 2420W        W22700  13.840   1.472   3.556  0.0113 -0.1504  0.2860
 2421W        W22701  16.154  17.164  14.712 -0.3894 -0.1333  0.1070
 2422W        W22702  12.865  17.157  15.224 -0.0795 -0.3864 -0.0410
 2423W        W22703   6.776   6.450  13.991  0.0461 -0.1461 -0.0791
 2424W        W22704  10.950   5.258   4.533 -0.1812  0.0073 -0.1419
 2425W        W22705  11.821   1.824  14.877 -0.2260 -0.1213 -0.1157
 2426W        W22706  12.475  12.547   0.815  0.0678  0.1144 -0.2032
 2427W        W22707  14.044  17.419  13.179  0.1721  0.1763 -0.0979
 2428W        W22708   3.574   7.419   3.000 -0.3384  0.0928 -0.0819
 2429W        W22709   2.049  11.676   3.678 -0.0428  0.0032 -0.2020
 2430W        W22710   3.106   4.615  13.720  0.0494  0.0629  0.1602
 2431W        W22711  17.666  12.509   2.537  0.2056  0.0080 -0.1718
 2432W        W22712   0.922   5.770   0.193 -0.1892 -0.2376  0.0461
 2433W        W22713   8.925  11.967   5.217 -0.2613 -0.2390  0.1658
 2434W        W22714  16.827   8.624  11.809  0.0649  0.0505  0.0442
 2435W        W22715   3.461   5.492   0.661 -0.1885 -0.2082 -0.3012
 2436W        W22716   4.924   8.368   1.657  0.1613  0.1039  0.0046
 2437W        W22717   2.668   7.787  14.636  0.0691 -0.1071  0.2636
 2438W        W22718   4.543  16.804   1.247  0.0577  0.1849 -0.1056
 2439W        W22719   1.732  15.384  13.215 -0.3113 -0.2227  0.2786
 2440W        W22720  16.659   8.508  12.426 -0.0879  0.0210 -0.0344
 2441W        W22721   1.013   9.274  12.065  0.4634  0.1146 -0.2644
 2442W        W22722  11.933  11.106   1.688 -0.0621  0.1247 -0.1509
 2443W        W22723   6.651   8.954   3.624 -0.1078 -0.2329  0.0996
 2444W        W22724   6.185  18.721  11.237 -0.1275 -0.1763 -0.0319
 2445W        W22725  14.935  13.304   4.263 -0.1173  0.1047 -0.0823
 2446W        W22726   8.260  17.374   2.633  0.1236  0.2911  0.0683
 2447W        W22727  15.326   7.689   0.631  0.2078  0.1036 -0.0444
 2448W        W22728  16.316  12.970  11.426  0.2492  0.3254  0.2317
 2449W        W22729  16.685   7.331   3.311  0.0677 -0.0627  0.1068
 2450W        W22730   2.729  11.732   0.586  0.4178 -0.0796 -0.2092
 2451W        W22731   3.859  14.834   2.037 -0.1973  0.1255  0.0297
 2452W        W22732   5.691   2.876   3.948  0.1543 -0.2020  0.1903
 2453W        W22733   4.222   9.885  14.467 -0.1986  0.0093  0.2224
 2454W        W22734   4.035   0.469   3.808  0.1806 -0.0642 -0.3017
 2455W        W22735   9.714   2.176   2.373  0.0112 -0.3820 -0.0620
 2456W        W22736  11.728   9.201  12.794 -0.1882  0.1486 -0.2654
 2457W        W22737  10.529  11.135   4.546 -0.1461  0.1951  0.1265
 2458W        W22738  17.434   2.892  14.257 -0.2293  0.2652 -0.1238
 2459W        W22739  18.230   7.516  15.078 -0.2541  0.0477  0.3088
 2460W        W22740  11.046  12.359   2.031  0.0857 -0.3832  0.1076
 2461W        W22741   3.720  17.588  11.317 -0.0503 -0.0817  0.0782
 2462W        W22742  11.441   8.550  14.549 -0.2034 -0.1234  0.2521
 2463W        W22743  16.588  13.882   2.835 -0.2387 -0.1320 -0.1046
 2464W        W22744  17.006   8.153   0.447  0.2469  0.0263 -0.0490
 2465W        W22745  18.372   7.582   2.224 -0.0035 -0.0184 -0.0490
 2466W        W22746   6.116   6.976  10.837  0.0894 -0.0559 -0.1490
 2467W        W22747   9.228   7.959   5.819 -0.1041 -0.1737  0.0892
 2468W        W22748   3.038  11.411   0.730 -0.1066  0.1048 -0.1593
 2469W        W22749  11.477  10.002   0.344  0.0741 -0.0969 -0.1941
 2470W        W22750  11.531   7.574   4.810 -0.0386  0.0906 -0.0389
 2471W        W22751   8.426   4.427   4.228  0.1646  0.3771  0.1740
 2472W        W22752   7.709   2.885   2.056  0.4549  0.0341 -0.0699
 2473W        W22753  10.172  14.218  14.620  0.2427  0.1724  0.0474
 2474W        W22754   4.992  15.275   1.599  0.2590 -0.0127 -0.3137
 2475W        W22755  18.194   9.993  13.261 -0.0230 -0.2417  0.0392
 2476W        W22756  12.803  16.608  11.619  0.0338  0.0549  0.2365
 2477W        W22757  12.774  11.341   1.267  0.2668  0.0425 -0.1406
 2478W        W22758   4.870   0.399   0.066  0.2824  0.2583  0.0723
 2479W        W22759  17.912  13.013  13.908  0.3132  0.1532 -0.0293
 2480W        W22760   1.323   7.137   4.595 -0.1697  0.1088 -0.1737
 2481W        W22761   8.546   5.696  14.700  0.0011 -0.2296 -0.0296
 2482W        W22762   9.376   4.524  13.093 -0.3110  0.1041  0.0863
 2483W        W22763   8.398  10.147   0.996 -0.1287 -0.0072  0.1234
 2484W        W22764  14.897  14.788  13.975 -0.1791 -0.0304  0.1605
 2485W        W22765  15.625  18.009   2.198 -0.2329 -0.0439 -0.2995
 2486W        W22766   4.229   2.782  13.896 -0.3581  0.0603 -0.3865
 2487W        W22767  14.030   1.621   0.263 -0.1467  0.0985 -0.1126
 2488W        W22768   2.982  14.578   0.269  0.1367 -0.0316  0.1737
 2489W        W22769   6.689  10.075  11.100  0.2739  0.0044 -0.0429
 2490W        W22770  16.918  11.910   2.070  0.1243  0.1557  0.0120
 2491W        W22771   0.253  10.071  13.584  0.1304 -0.0716 -0.1096
 2492W        W22772  10.461   6.290   0.344  0.0083  0.1051 -0.0970
 2493W        W22773  12.536  11.655   0.934  0.5059  0.1024  0.0826
 2494W        W22774  17.769  15.146   4.606  0.0718  0.1996  0.0473
 2495W        W22775  12.961  11.025   1.659 -0.0677 -0.2278  0.1990
 2496W        W22776  15.379   5.041   4.278  0.0500 -0.0272 -0.1093
 2497W        W22777   5.778   8.895  13.826  0.1571 -0.1768  0.0676
 2498W        W22778  10.506   7.280   2.165  0.1238 -0.1668  0.1486
 2499W        W22779  16.421  12.089  15.196 -0.1043  0.1533 -0.2340
 2500W        W22780   3.098  16.548  13.904  0.0213 -0.0931  0.1564
 2501W        W22781  14.144   5.638   1.204 -0.0403 -0.0473  0.1774
 2502W        W22782   0.268   4.662  13.623 -0.0750  0.0738  0.0165
 2503W        W22783  17.834   2.816  11.312  0.0903  0.1722  0.1060
 2504W        W22784   1.051   8.140  14.504 -0.2667  0.4090 -0.1268
 2505W        W22785  16.384   5.180   2.809 -0.1966  0.1586 -0.0474
 2506W        W22786  11.154   8.148  13.042 -0.2687  0.0701  0.0845
 2507W        W22787  11.473   6.665  11.371  0.1017  0.0651  0.0386
 2508W        W22788   8.883   8.769  12.714  0.1939 -0.0252 -0.2839
 2509W        W22789  14.513   2.334  11.750 -0.0963 -0.0279 -0.0404
 2510W        W22790  18.397  13.030  15.143 -0.1861 -0.0661  0.0221
 2511W        W22791  16.005   3.501  11.725 -0.0634  0.2866  0.2268
 2512W        W22792  17.358  14.834   0.006 -0.1866  0.1556 -0.1024
 2513W        W22793  17.792   0.319   0.623 -0.2910 -0.0284  0.0391
 2514W        W22794  10.836  10.317   1.612  0.0479 -0.1851 -0.2046
 2515W        W22795  11.128   0.697   0.165  0.1413  0.0128  0.2792
 2516W        W22796  10.463   5.300   3.093 -0.0805  0.1917 -0.0725
 2517W        W22797  15.821  10.972   3.358  0.0690 -0.2832 -0.1682
 2518W        W22798  16.583  18.006   2.632  0.0069  0.2057 -0.3743
 2519W        W22799  14.397   9.917  12.971 -0.0806 -0.1170 -0.2877
 2520W        W22800  15.918   9.022   0.208  0.2599  0.0284 -0.2310
 2521W        W22801   1.735  16.014  15.279  0.1707  0.0679  0.1271
 2522W        W22802  16.955   7.348   2.498  0.2223  0.0145 -0.1718
 2523W        W22803  10.821  11.781   0.703  0.1871  0.1631 -0.3575
 2524W        W22804  18.182   3.634  14.584  0.1212  0.0511  0.5592
 2525W        W22805  15.875   9.688  14.686  0.1087  0.2742  0.2002
 2526W        W22806   9.435   1.737  14.062 -0.4214 -0.0661 -0.1195
 2527W        W22807  11.705   9.713   3.291 -0.0103 -0.0850 -0.3378
 2528W        W22808   6.258   2.662   0.384  0.0684 -0.0373 -0.3875
 2529W        W22809   6.013  14.028   4.337 -0.1465  0.1302 -0.1205
 2530W        W22810   1.918   2.328  15.260 -0.0207  0.0357  0.2967
 2531W        W22811  13.832  13.489  13.089  0.0836 -0.0153 -0.3078
 2532W        W22812  15.533  18.602  14.114  0.2899 -0.0782  0.2902
 2533W        W22813   3.844   9.048   1.960 -0.1793 -0.2621  0.2009
 2534W        W22814   5.586   9.379   3.913 -0.1579 -0.2455 -0.0174
 2535W        W22815  12.036  17.269   3.904  0.1897 -0.2854 -0.2678
 2536W        W22816  17.886   8.399  12.367 -0.2682 -0.1290 -0.1326
 2537W        W22817   6.495   5.126  12.793  0.0391 -0.0398 -0.0841
 2538W        W22818   1.736  17.477   0.450 -0.2227  0.2426 -0.2022
 2539W        W22819  18.631  11.917   3.364  0.0503  0.0297  0.1094
 2540W        W22820   4.499  12.790   0.685  0.0354 -0.0495 -0.0078
 2541W        W22821  17.417   9.645   0.047  0.0604  0.1498  0.1187
 2542W        W22822  13.562   9.869   4.114 -0.1948 -0.1083  0.4376
 2543W        W22823  12.961   6.436  13.589  0.1275 -0.2583 -0.1609
 2544W        W22824  12.285  15.416  12.142 -0.2719  0.0157 -0.1270
 2545W        W22825   6.650   7.999   4.101 -0.1619  0.0118 -0.1460
 2546W        W22826   4.362  17.262  12.341 -0.0111  0.0857  0.1641
 2547W        W22827  18.028  11.350   4.713 -0.2406 -0.1119  0.3415
 2548W        W22828   0.707  11.585   3.056  0.0390  0.0019 -0.2750
 2549W        W22829   1.211   1.542   3.921  0.0113  0.2533  0.0182
 2550W        W22830  11.564  12.418   0.989 -0.1330 -0.0568  0.0230
 2551W        W22831  16.286   4.435   3.344  0.2695 -0.2087 -0.1871
 2552W        W22832   6.894  13.413  14.499 -0.0683 -0.1898  0.1438
 2553W        W22833   8.501   5.020   4.181  0.0861 -0.1111  0.1777
 2554W        W22834   6.302  11.774   1.816  0.2076 -0.1782 -0.0748
 2555W        W22835   7.353   4.591  14.581 -0.0850  0.1734  0.1812
 2556W        W22836  15.295  14.485  14.265  0.0718 -0.0416  0.1701
 2557W        W22837  18.619   8.056   3.982 -0.2065 -0.0638 -0.3243
 2558W        W22838  14.993   8.239  12.842  0.0825 -0.1045 -0.0379
 2559W        W22839   4.874   8.097   1.206  0.0616  0.0958 -0.0287
 2560W        W22840  15.217   4.113   1.812  0.1424 -0.0796  0.0053
 2561W        W22841   7.209  13.541  14.829  0.0640  0.1850 -0.1011
 2562W        W22842   1.901   6.826  13.978  0.0772 -0.0859 -0.1254
 2563W        W22843  15.143   1.938  13.575 -0.0076  0.1267  0.2462
 2564W        W22844  14.390  17.646  12.869  0.0905  0.2221  0.1649
 2565W        W22845   7.518   8.851  12.907  0.3007 -0.1693  0.2056
 2566W        W22846  12.045   8.150   2.014 -0.3215 -0.0536  0.1850
 2567W        W22847   3.306  10.415   4.875  0.1998 -0.0168 -0.0499
 2568W        W22848   4.492   8.537   2.503 -0.4277  0.0278 -0.2675
 2569W        W22849   6.312   8.266   1.600 -0.0535  0.0726  0.1410
 2570W        W22850   5.112   5.958  15.155 -0.2062 -0.3003  0.1242
 2571W        W22851   3.155   7.467  13.912  0.1666 -0.0228  0.2280
 2572W        W22852  12.709   8.757   4.200 -0.1474  0.0194  0.3194
 2573W        W22853   7.461  17.096   1.815 -0.0525  0.0042  0.0362
 2574W        W22854  16.075   6.901   1.740 -0.0139 -0.0428  0.1914
 2575W        W22855  18.319   4.961  14.147  0.1060 -0.2599  0.2045
 2576W        W22856  15.707  16.204  12.969  0.2341 -0.0507 -0.3562
 2577W        W22857   7.598  17.054  13.790  0.1953 -0.2927 -0.1299
 2578W        W22858   5.010  14.468   1.112  0.2762  0.2320 -0.2217
 2579W        W22859   7.290  12.679  11.251 -0.1023 -0.0865 -0.2646
 2580W        W22860  16.423   1.933   0.735 -0.0458 -0.1494  0.1073
 2581W        W22861   5.121  11.231  13.637  0.0523  0.0545 -0.2520
 2582W        W22862   2.512  12.890   1.929 -0.0325 -0.1602  0.1902
 2583W        W22863   9.108   1.056  12.309 -0.3407  0.1712 -0.1705
 2584W        W22864   7.198   4.353  12.014 -0.1137 -0.1965  0.2556
 2585W        W22865   5.249  11.451  12.892 -0.2246 -0.1797  0.0708
 2586W        W22866  17.716   4.704   0.560 -0.1742 -0.2503  0.1671
 2587W        W22867   8.855  13.283  13.625 -0.0071  0.3063 -0.0003
 2588W        W22868  17.168  14.509  12.046  0.1617 -0.1814  0.0397
 2589W        W22869   4.054   6.749  13.515  0.0907 -0.0630 -0.0132
 2590W        W22870  12.265   9.915  13.842  0.0284  0.2655 -0.0363
 2591W        W22871  11.786   0.221  11.269 -0.1651  0.0296  0.2606
 2592W        W22872  18.284  12.142   3.018 -0.1664  0.1252 -0.0202
 2593W        W22873  14.804  18.009  12.135 -0.0149 -0.1306  0.3489
 2594W        W22874   6.897   4.474   3.151  0.2333 -0.0829  0.0848
 2595W        W22875  13.716  14.206  13.866  0.0454  0.0429 -0.0838
 2596W        W22876  15.623   8.963  10.950 -0.0821 -0.1477 -0.3319
 2597W        W22877  12.944  11.432   0.758  0.2467 -0.2414 -0.2758
 2598W        W22878   8.609   9.403   3.889 -0.0111 -0.0848  0.2423
 2599W        W22879   4.838   3.406   0.334  0.0039  0.1276 -0.2186
 2600W        W22880   8.580   0.270  12.350  0.3047 -0.1016  0.1083
 2601W        W22881   5.810  17.833  11.354 -0.0673 -0.0588  0.1231
 2602W        W22882   2.451  12.379  15.237 -0.1088 -0.2337 -0.1727
 2603W        W22883   9.424   2.193   2.823  0.0812  0.0364 -0.0572
 2604W        W22884   3.997   1.722   3.491 -0.1646  0.0906  0.1111
 2605W        W22885   2.875   8.660   2.486 -0.3215  0.0995  0.0807
 2606W        W22886  16.218   8.801  15.021 -0.0510 -0.1534  0.0751
 2607W        W22887   8.569   5.017  13.512 -0.1376  0.1034  0.0196
 2608W        W22888   0.704  11.800  11.052 -0.2823 -0.3333 -0.2130
 2609W        W22889  15.665  13.968   2.744  0.2445 -0.1057  0.2066
 2610W        W22890  13.624  17.044  12.498  0.2561 -0.0498 -0.2017
 2611W        W22891   0.152  10.674   2.779 -0.0549  0.3625 -0.1468
 2612W        W22892  10.766   5.797   2.101  0.1240  0.1047 -0.0775
 2613W        W22893  17.356   4.535   1.840  0.3024 -0.3965  0.1296
 2614W        W22894  16.582   2.084  14.041  0.0929  0.2603 -0.2204
 2615W        W22895   7.639  11.559  11.811 -0.0373 -0.1429  0.0607
 2616W        W22896   2.262   4.849   0.534  0.1012  0.3090  0.3362
 2617W        W22897  11.096  12.543  11.291  0.0920 -0.1127 -0.0582
 2618W        W22898   3.843   1.964   1.856 -0.0168  0.1249  0.1374
 2619W        W22899  15.758  14.889   2.518  0.2249 -0.0793 -0.1309
 2620W        W22900   7.871   8.154   2.676  0.1024  0.0199 -0.0143
 2621W        W22901   2.701   5.300   1.876 -0.1491  0.0673  0.1373
 2622W        W22902  11.647   1.108   2.946 -0.1806 -0.0124  0.3592
 2623W        W22903   8.481  16.292  15.358 -0.0075 -0.1892 -0.2643
 2624W        W22904  12.831  16.928   2.903 -0.2218  0.1527  0.0758
 2625W        W22905   8.365   8.225   2.812  0.0536  0.0899  0.3146
 2626W        W22906   4.389   4.833  12.808  0.3889 -0.0031  0.2319
 2627W        W22907   6.082  16.553   3.022 -0.0156 -0.0505 -0.4247
 2628W        W22908   3.275  15.806   0.482 -0.2553 -0.0270  0.2551
 2629W        W22909   5.621  12.250  13.393 -0.0133 -0.0620  0.1472
 2630W        W22910   4.095   6.450  13.929  0.1665 -0.1532 -0.0856
 2631W        W22911   9.718   4.456  11.830 -0.1319  0.0679 -0.0502
 2632W        W22912   0.388  13.799  12.831  0.1953 -0.2347  0.1720
 2633W        W22913  17.952   3.038   1.250 -0.0398 -0.0839 -0.1233
 2634W        W22914  14.337   0.420   0.488  0.2629  0.3933 -0.2395
 2635W        W22915   4.041   0.821  10.882  0.2035  0.2596  0.0317
 2636W        W22916   9.196  17.786  14.795  0.0456  0.2174  0.0746
 2637W        W22917  15.773   1.099  15.171 -0.2840 -0.1924  0.1787
 2638W        W22918  16.090  16.183   5.095  0.0397  0.0064 -0.0275
 2639W        W22919  16.914  14.722  14.052 -0.0271  0.1187  0.0589
 2640W        W22920   5.907  12.638   1.927 -0.1348 -0.1065  0.0767
 2641W        W22921   8.370  12.521  12.987  0.2447  0.1794 -0.1563
 2642W        W22922   4.988   2.557   1.835 -0.0630 -0.1046  0.3004
 2643W        W22923   3.552   0.218   1.772  0.1283 -0.5544  0.0827
 2644W        W22924  15.538  15.998  11.859  0.2141 -0.0916 -0.1088
 2645W        W22925  10.479   2.554   3.331  0.0415 -0.0380 -0.3225
 2646W        W22926   0.278  18.237  14.459 -0.1812 -0.0962  0.0550
 2647W        W22927   9.699   5.626   4.037  0.1382  0.0305 -0.0909
 2648W        W22928   9.016   4.020  14.440  0.0510  0.0700 -0.0115
 2649W        W22929  10.439  11.598   3.352 -0.0624 -0.2824  0.1044
 2650W        W22930  13.770   6.066  13.688  0.0494  0.0204  0.0059
 2651W        W22931   1.567   8.261  14.648  0.1948  0.0444  0.1407
 2652W        W22932  14.085  10.824  13.793  0.0218  0.1222 -0.2518
 2653W        W22933  16.557  10.541   3.931  0.2911  0.0133  0.0183
 2654W        W22934  16.750  16.351   2.453  0.0129  0.1679 -0.0593
 2655W        W22935   3.302  10.885   0.818  0.1134  0.0280 -0.0836
 2656W        W22936   6.306   9.387  12.276 -0.0080 -0.1026 -0.1772
 2657W        W22937  12.633   1.115   3.691 -0.1593 -0.1085  0.1909
 2658W        W22938   4.945  12.826   0.477 -0.2378  0.1091  0.1435
 2659W        W22939   6.787  11.519   0.576 -0.0961  0.0924 -0.0690
 2660W        W22940  11.355  15.603   1.834 -0.0680  0.2895 -0.3959
 2661W        W22941   3.452  13.367   3.741  0.2886 -0.3072  0.1696
 2662W        W22942  15.510   8.308   0.889 -0.1310  0.2509 -0.0664
 2663W        W22943   6.811  18.729   2.148  0.3615 -0.0951  0.0787
 2664W        W22944  18.263   6.267  14.141  0.0606 -0.0781  0.0761
 2665W        W22945   9.976  12.425   3.387 -0.0045  0.0643 -0.1711
 2666W        W22946   7.862  15.985   2.972 -0.0354  0.1069 -0.2520
 2667W        W22947  12.845  12.066  11.341 -0.3271 -0.2400  0.0286
 2668W        W22948   0.211   9.026   4.034 -0.2523  0.1057  0.0257
 2669W        W22949  12.851   1.298  11.952 -0.1023 -0.0756  0.1848
 2670W        W22950   7.588   4.989   0.837  0.0292  0.2478 -0.0459
 2671W        W22951   7.862   1.357  12.847 -0.0348 -0.2150 -0.0694
 2672W        W22952   8.969  15.462  11.157  0.2001 -0.0016  0.3173
 2673W        W22953   6.977   8.322   1.566 -0.0707  0.1897 -0.3128
 2674W        W22954  13.631  10.347   1.649  0.2603  0.0570  0.0901
 2675W        W22955  15.527   9.254  10.609 -0.2991  0.0755  0.1876
 2676W        W22956   5.284   9.069  13.931 -0.1437  0.2286  0.0579
 2677W        W22957  10.794  16.440  12.166 -0.3438  0.0599  0.4506
 2678W        W22958  13.978  10.550  11.842 -0.1325  0.0428 -0.1138
 2679W        W22959   5.574   5.675  13.499  0.1434 -0.0765 -0.0345
 2680W        W22960  18.551  10.560  13.423  0.1916  0.0949  0.0858
 2681W        W22961   4.556  18.654  11.072  0.0067 -0.0505  0.2274
 2682W        W22962  16.764  13.942   5.706  0.1517  0.0982 -0.0247
 2683W        W22963  10.071   4.503  13.120 -0.1738  0.0119  0.1393
 2684W        W22964   2.704  13.035  13.226 -0.0092 -0.1092 -0.1888
 2685W        W22965  14.698   7.535   0.136  0.2178 -0.1149 -0.1169
 2686W        W22966   4.957   2.296  12.270  0.0575  0.2666  0.1284
 2687W        W22967  16.540  17.036  14.366  0.1144 -0.2439  0.2816
 2688W        W22968   4.458   8.135   0.686  0.1288 -0.0787 -0.0942
 2689W        W22969  12.634   2.877  11.364 -0.1076  0.4221  0.2189
 2690W        W22970  14.214  10.742   1.397 -0.2309 -0.1516 -0.3471
 2691W        W22971  14.960   3.932  11.412 -0.2684  0.1961 -0.0542
 2692W        W22972  16.763   4.388   0.768  0.0373 -0.3131 -0.1909
 2693W        W22973   1.360   2.175  13.308  0.4723 -0.0752 -0.1371
 2694W        W22974   0.652   3.012  15.352 -0.3316 -0.3953  0.0289
 2695W        W22975   8.548   8.100  12.293 -0.1390 -0.0892 -0.0677
 2696W        W22976  12.647  10.348   3.967  0.0125  0.0354  0.2577
 2697W        W22977   7.599   1.243   2.327 -0.0042 -0.0952  0.1478
 2698W        W22978   4.980   6.277  14.120  0.0546  0.2797  0.0496
 2699W        W22979  18.108   6.592  13.067  0.1653 -0.1787 -0.0352
 2700W        W22980  16.205   7.107  15.292  0.0392 -0.0239 -0.0213
 2701W        W22981   3.034   6.585  11.124 -0.2197 -0.3024  0.0659
 2702W        W22982   6.234   3.636   0.410  0.0390  0.1058 -0.2485
 2703W        W22983  11.147  14.653   2.801  0.1281 -0.3591 -0.2795
 2704W        W22984  17.955   7.687   0.485 -0.2181  0.0108  0.1580
 2705W        W22985   0.999   1.450   1.101 -0.3549 -0.1436  0.1237
 2706W        W22986  16.138   7.177  13.984  0.0075  0.0590 -0.3070
 2707W        W22987  14.249   6.438   3.592 -0.1511 -0.1468 -0.2024
 2708W        W22988  11.489  13.401   1.095  0.1722 -0.1691 -0.2589
 2709W        W22989   9.199  17.403  14.408 -0.0169  0.2092  0.1388
 2710W        W22990   5.533   1.992   4.454  0.0803 -0.1131 -0.1142
 2711W        W22991   4.322  15.771   1.940 -0.1973  0.0407  0.0962
 2712W        W22992   6.858  13.497  15.390  0.1509  0.2673 -0.1307
 2713W        W22993   8.544   0.263   3.647 -0.1324 -0.0691 -0.2669
 2714W        W22994   4.005   1.705   1.074  0.0610 -0.2210  0.2054
 2715W        W22995  11.959  12.742  13.832 -0.1977  0.0613 -0.1222
 2716W        W22996   7.497   9.655   0.924 -0.1791 -0.1750 -0.0740
 2717W        W22997   7.551   8.971   4.262  0.0015 -0.0803 -0.1515
 2718W        W22998   0.302  17.598  11.062 -0.1651 -0.4574 -0.2738
 2719W        W22999   3.255  13.066  11.704  0.0755  0.1714  0.0796
 2720W        W23000  17.298  12.304   2.835 -0.4234  0.2255 -0.0386
 2721W        W23001  16.555  14.773   3.976 -0.1542  0.1446  0.1353
 2722W        W23002  17.443  16.678  14.863  0.0035  0.0152 -0.3320
 2723W        W23003  15.065  11.940   0.408 -0.2287  0.2718  0.2141
 2724W        W23004  14.656  14.501   3.303 -0.0835 -0.0777 -0.1052
 2725W        W23005  12.031   0.083  12.614 -0.1227  0.3176 -0.0151
 2726W        W23006   0.680   1.081  11.532 -0.0683 -0.1315  0.3167
 2727W        W23007   9.012   2.429   3.329  0.4603 -0.3317  0.0538
 2728W        W23008  11.411  10.786   0.840  0.0540 -0.0517 -0.2381
 2729W        W23009  11.361   8.771   0.411 -0.0419 -0.2493  0.0633
 2730W        W23010  16.303   4.631  14.784  0.0442  0.1884 -0.2240
 2731W        W23011  15.360  10.334  14.108  0.0106  0.1060  0.0338
 2732W        W23012  14.736  16.889   2.963 -0.1732  0.0096  0.0109
 2733W        W23013  14.417  15.576   3.350 -0.1844  0.1960 -0.4251
 2734W        W23014  17.115  12.606  11.900  0.1104  0.0219  0.0221
 2735W        W23015  18.174  16.462   1.832  0.0442  0.0857  0.0623
 2736W        W23016   6.160   8.508  11.135  0.0059  0.0131 -0.0949
 2737W        W23017   5.326   2.050   2.697 -0.1907 -0.1393  0.0772
 2738W        W23018  12.897   3.397   4.090  0.2276 -0.0142  0.2561
 2739W        W23019   6.365   4.279  13.146  0.0553  0.0068  0.1846
 2740W        W23020   7.525   0.714  14.016  0.1011  0.0601  0.0614
 2741W        W23021   6.372  14.022  13.520  0.2456 -0.0931 -0.1196
 2742W        W23022   6.581   9.963  12.486 -0.1252  0.2991  0.0783
 2743W        W23023  14.678  15.782   1.953  0.1024  0.0366 -0.1837
 2744W        W23024   9.381  15.189  11.354  0.1772  0.0995  0.2238
 2745W        W23025   1.575  16.861  11.445 -0.3297 -0.0778 -0.0031
 2746W        W23026   7.846   4.192   3.096  0.0272  0.1256  0.0474
 2747W        W23027  16.963  18.293  12.728  0.1869 -0.2306 -0.1996
 2748W        W23028   1.898  10.267  15.123  0.0535 -0.1883 -0.1174
 2749W        W23029   5.580   6.566   4.501 -0.1463 -0.0464 -0.1722
 2750W        W23030  11.471   1.345  11.826 -0.0074 -0.1741 -0.4243
 2751W        W23031  16.421   3.358  12.013  0.4070  0.1284  0.0110
 2752W        W23032  14.027   1.277  10.930  0.0162  0.1185 -0.0954
 2753W        W23033  13.981  15.864  14.140 -0.0825 -0.0172 -0.0653
 2754W        W23034  14.300   6.281  14.041 -0.0788 -0.0734 -0.0336
 2755W        W23035   6.310  13.201  13.657 -0.0750  0.1646  0.0311
 2756W        W23036  11.221   0.626   4.462  0.2328 -0.3167  0.0304
 2757W        W23037   9.567  10.731  12.583  0.1229 -0.1919 -0.1146
 2758W        W23038  11.677   9.947  13.066  0.0858 -0.1487  0.1131
 2759W        W23039   3.704   0.876  15.346  0.1114 -0.3061 -0.3606
 2760W        W23040   7.685  10.975  14.257  0.2086 -0.1257 -0.1572
 2761W        W23041   5.378  16.083  10.777 -0.0643 -0.0711 -0.4239
 2762W        W23042   7.759   5.996  12.055  0.1707  0.0384 -0.1681
 2763W        W23043  14.189   9.436  14.619 -0.2767 -0.1067 -0.0537
 2764W        W23044   9.785  14.812   2.655  0.0865 -0.1403 -0.1481
 2765W        W23045  15.896  16.748   0.752  0.0756  0.2290 -0.1524
 2766W        W23046  10.911   7.023   1.507  0.0895 -0.0324  0.1730
 2767W        W23047   2.100   0.315  13.095 -0.1820 -0.0797  0.0508
 2768W        W23048   6.588  18.537   3.716  0.0549  0.3171  0.0121
 2769W        W23049   6.161   8.685  15.338 -0.1469  0.3040 -0.3213
 2770W        W23050  16.979   1.657   3.044 -0.0526  0.0749 -0.1622
 2771W        W23051   6.903   4.410   2.061 -0.1194  0.0613  0.4439
 2772W        W23052  15.571   1.516  10.964  0.2944 -0.1074 -0.0853
 2773W        W23053  12.922   9.026   1.266 -0.5011  0.1949 -0.3942
 2774W        W23054  16.979   5.619  13.855  0.1286  0.1133 -0.1142
 2775W        W23055  11.835   1.512   3.346  0.0003  0.0405  0.0755
 2776W        W23056   2.378   2.550   0.975  0.0707  0.2808 -0.1356
 2777W        W23057  10.186   2.215  10.641 -0.0433 -0.0957  0.0692
 2778W        W23058   8.955  13.336  11.331 -0.0700  0.1895  0.1878
 2779W        W23059  12.827  13.147   1.335  0.1759 -0.0667  0.1979
 2780W        W23060  16.690  17.375  14.813 -0.1587 -0.2097  0.3603
 2781W        W23061   5.397   9.722   2.534  0.2244 -0.3248 -0.1719
 2782W        W23062   3.935  17.085   0.488 -0.1729 -0.0249 -0.1308
 2783W        W23063  14.910   2.460  11.450  0.1439  0.4238  0.0601
 2784W        W23064   1.767   0.259  14.140 -0.0846  0.1001  0.1658
 2785W        W23065   3.365   0.415   2.743  0.0671  0.2321  0.0603
 2786W        W23066   8.366   3.478  14.025  0.2736  0.2733  0.1336
 2787W        W23067  17.675  12.693   4.019 -0.1067  0.0613 -0.1151
 2788W        W23068  13.440  17.493  13.218 -0.0715  0.3122 -0.1717
 2789W        W23069  16.297  11.118  11.803 -0.1272  0.1219  0.1571
 2790W        W23070   3.914   8.699   2.488 -0.0587  0.0389  0.1659
 2791W        W23071   5.102  15.663   0.804  0.3224  0.1161 -0.1977
 2792W        W23072   6.021   7.480   0.279  0.0048 -0.2269 -0.2538
 2793W        W23073  11.000  10.210   2.376  0.1355  0.3890 -0.0340
 2794W        W23074   6.014   2.380   0.711 -0.2008  0.3415 -0.4242
 2795W        W23075   3.585  16.712   3.945 -0.2214 -0.0521  0.0779
 2796W        W23076   5.941  16.909   2.685  0.1953  0.0573 -0.1779
 2797W        W23077  13.315   7.397   3.548  0.3132 -0.0578 -0.0568
 2798W        W23078   1.683   7.373   3.123 -0.2002  0.0759 -0.1479
 2799W        W23079   6.287  16.486  10.937 -0.0249 -0.0717  0.1682
 2800W        W23080  13.937  10.959   3.877 -0.1199  0.1544 -0.1184
 2801W        W23081  15.093   7.582   2.656  0.1723  0.0899 -0.3326
 2802W        W23082  11.552  10.714  14.515  0.0016 -0.2916  0.1901
 2803W        W23083  15.448  15.513   4.487  0.0127 -0.0993 -0.0827
 2804W        W23084  15.181   4.712  11.704 -0.0545 -0.0891 -0.2404
 2805W        W23085  12.982   9.132  11.993 -0.1905 -0.3391  0.2745
 2806W        W23086   7.861  15.282  13.906 -0.2197  0.2456 -0.0781
 2807W        W23087   1.789   9.525   1.001  0.0772 -0.0423 -0.4804
 2808W        W23088  14.312   3.936   4.066 -0.0608 -0.1731 -0.0563
 2809W        W23089   5.466   1.045  12.559 -0.0924  0.3257  0.5708
 2810W        W23090   8.555  17.431  10.311  0.0526 -0.0183  0.0728
 2811W        W23091   4.980  18.012  11.002  0.4294 -0.1521  0.4549
 2812W        W23092   9.970   1.963   1.480 -0.0144 -0.1046 -0.2075
 2813W        W23093   9.952   4.182   3.523 -0.1115  0.0483 -0.0488
 2814W        W23094  17.017   1.395  12.417 -0.2096 -0.0696 -0.3306
 2815W        W23095   3.126   1.390   3.240 -0.0513 -0.3269  0.1473
 2816W        W23096   7.537   4.691  12.688 -0.0325 -0.0323 -0.0501
 2817W        W23097  13.597  13.576   4.300  0.0374 -0.1073  0.0928
 2818W        W23098  16.611   0.363  15.100 -0.0348 -0.1963  0.0213
 2819W        W23099   1.122  10.185  12.956 -0.0574  0.2167  0.2022
 2820W        W23100   2.510  14.186   1.849 -0.1414 -0.2770  0.4621
 2821W        W23101  11.746  12.986  13.337  0.3844  0.1623  0.0270
 2822W        W23102  11.227  18.323  12.450 -0.1323 -0.2021  0.0116
 2823W        W23103   3.946   9.578  13.865  0.1384  0.0662  0.0618
 2824W        W23104   8.078   2.896  12.718  0.0474 -0.2647 -0.3711
 2825W        W23105  13.362   2.698  13.718 -0.1422  0.0608 -0.0637
 2826W        W23106  15.478  15.933  13.958 -0.0922 -0.1343 -0.1410
 2827W        W23107   8.363   4.617  14.318 -0.0411 -0.2613  0.0920
 2828W        W23108   5.883   2.842   2.718 -0.1360  0.1598 -0.2703
 2829W        W23109  13.516  14.763  14.972  0.2192  0.0383  0.1788
 2830W        W23110  17.682   1.644  13.578  0.3658 -0.0525 -0.3286
 2831W        W23111   7.560  10.846  11.273  0.4084 -0.1597  0.1169
 2832W        W23112  16.829   2.181  13.344  0.1869 -0.1564  0.0004
 2833W        W23113   2.649   2.652  13.415  0.1479  0.1778 -0.0660
 2834W        W23114   1.378   8.563   3.547  0.1443 -0.1708 -0.2142
 2835W        W23115  16.091  13.738   4.374  0.1898 -0.0487  0.0052
 2836W        W23116  11.980  13.875  13.875  0.1599  0.0209  0.0271
 2837W        W23117   4.312   4.070  13.419  0.1246 -0.1482 -0.2066
 2838W        W23118  16.726   8.905   4.178 -0.1175 -0.0380 -0.0685
 2839W        W23119   2.679  15.948   3.913  0.2680 -0.0812  0.3333
 2840W        W23120   7.493   6.853  14.645  0.3759 -0.1872  0.1186
 2841W        W23121   2.337  16.720  13.271  0.1977 -0.0053 -0.0004
 2842W        W23122   6.699   4.185  13.938  0.1004 -0.0245  0.0920
 2843W        W23123   5.524  14.969   3.320 -0.0233 -0.0411  0.2118
 2844W        W23124   3.151  17.180   3.137 -0.0352  0.0830  0.1897
 2845W        W23125   8.608  17.597  12.163  0.1359  0.1103  0.1458
 2846W        W23126   6.537  11.289   3.546  0.3628 -0.1822  0.2413
 2847W        W23127  14.082   7.007  13.870  0.3254 -0.2962  0.0384
 2848W        W23128   2.109  14.591  14.128 -0.1028 -0.0695  0.0054
 2849W        W23129   7.822  15.523   2.235 -0.1760  0.2124 -0.2441
 2850W        W23130   6.754   5.808  12.433 -0.1242 -0.1387  0.4275
 2851W        W23131  16.860   4.874  12.715  0.0157 -0.2412  0.0826
 2852W        W23132   2.880  13.209   3.814 -0.0936 -0.3346  0.1249
 2853W        W23133  10.002  16.940  15.192 -0.4797  0.0635 -0.1743
 2854W        W23134  12.869  17.576   4.353  0.0038  0.2131 -0.0424
 2855W        W23135   8.729   6.760   2.043  0.0146  0.0951  0.2498
 2856W        W23136   0.674   0.577   0.960 -0.1500 -0.3123  0.1578
 2857W        W23137  14.005   1.307  12.825 -0.0737  0.0562 -0.2245
 2858W        W23138  12.628  12.500  14.055 -0.1463 -0.0463 -0.0663
 2859W        W23139   2.437   0.138  12.708 -0.2771 -0.2122 -0.1075
 2860W        W23140   2.416  14.264   0.771 -0.3153 -0.1099  0.1197
 2861W        W23141   2.439  13.832  14.369 -0.3093  0.4588 -0.2546
 2862W        W23142   6.334   1.368  11.076 -0.1488 -0.2768 -0.3295
 2863W        W23143   3.293  10.666   1.988 -0.0741 -0.1586  0.3157
 2864W        W23144  15.317   2.318  14.763 -0.1362  0.0170  0.0010
 2865W        W23145  13.116   8.890   4.420 -0.0487  0.2853  0.1477
 2866W        W23146  13.899   7.367  14.988 -0.0266  0.1867  0.1277
 2867W        W23147  17.064  16.954  14.650  0.2157 -0.0651  0.2925
 2868W        W23148  18.652  15.059   3.395  0.1556 -0.2738 -0.0801
 2869W        W23149  10.151   8.241  10.672 -0.2446 -0.0988  0.2973
 2870W        W23150   7.996   9.772   4.505  0.1271 -0.0965 -0.0158
 2871W        W23151   8.829  14.181  14.808  0.0534 -0.2268 -0.0925
 2872W        W23152  16.519   1.479  12.710 -0.0821 -0.1457 -0.3991
 2873W        W23153   4.586   1.858   3.403  0.0199 -0.0663  0.1509
 2874W        W23154  12.371   1.978  12.748 -0.0878  0.2613 -0.5091
 2875W        W23155   1.478   1.846   1.700 -0.0022  0.0947  0.0616
 2876W        W23156  14.227   9.732   1.413 -0.3648  0.1467 -0.2228
 2877W        W23157   9.426  16.537   0.585  0.0212  0.4505 -0.3018
 2878W        W23158   2.455  15.620   2.579  0.1389 -0.1703 -0.0024
 2879W        W23159   3.334   3.296   1.188 -0.0864  0.1215 -0.0075
 2880W        W23160  10.448  10.720   3.718  0.1336 -0.0102 -0.0881
 2881W        W23161  18.040  13.034  12.483 -0.2950 -0.3219  0.0443
 2882W        W23162  17.614  11.138   1.071 -0.0422 -0.0427 -0.4208
 2883W        W23163  14.907  11.991  13.926 -0.0716  0.0795  0.0821
 2884W        W23164   6.330   6.461  14.185  0.0487 -0.3387 -0.0318
 2885W        W23165  12.782   4.496   0.426 -0.0790  0.1524 -0.0643
 2886W        W23166  14.561   1.015  11.449  0.0407  0.0286  0.1239
 2887W        W23167  16.197  15.301  15.085 -0.0452  0.1943 -0.0239
 2888W        W23168   2.677   5.548   0.902 -0.0931 -0.1417 -0.5973
 2889W        W23169   6.338   2.703  12.322 -0.0970  0.0677 -0.0136
 2890W        W23170  18.653   6.878  11.896 -0.3155  0.1221 -0.0194
 2891W        W23171  11.189   0.699   1.080  0.0572  0.1321  0.1567
 2892W        W23172   0.173   1.229  11.883  0.0762 -0.1507 -0.0655
 2893W        W23173  14.769   6.113  14.512 -0.3730 -0.0194 -0.0051
 2894W        W23174  14.624  16.891  14.995  0.1555 -0.3782 -0.3247
 2895W        W23175   7.084  17.922   1.150 -0.2163 -0.0968  0.0501
 2896W        W23176  17.028  11.931  13.405 -0.1602 -0.0596  0.1016
 2897W        W23177   5.498  12.240   4.067  0.0736 -0.1319 -0.3245
 2898W        W23178   4.633   8.366   2.048 -0.0610 -0.3810  0.0684
 2899W        W23179  18.524  10.949   0.436  0.1148 -0.1352  0.1095
 2900W        W23180  11.689   0.305  14.935 -0.0616  0.0215  0.1515
 2901W        W23181   1.243  18.158  11.766 -0.3663 -0.0755 -0.0259
 2902W        W23182   6.480  15.641  10.698  0.2817  0.0093 -0.2283
 2903W        W23183   5.325   1.607   0.704  0.1257  0.2614  0.0428
 2904W        W23184   0.450  12.289  13.298 -0.1723  0.0588  0.3111
 2905W        W23185  11.879   9.838   0.678  0.0402  0.0777  0.2297
 2906W        W23186  17.873   1.523   2.359  0.3679 -0.1413 -0.2255
 2907W        W23187   5.338   4.735   2.108 -0.1809  0.0787  0.0997
 2908W        W23188   5.095  17.937  11.771 -0.0882  0.0067 -0.0987
 2909W        W23189   5.597   3.198  11.253 -0.1410 -0.2201 -0.0223
 2910W        W23190  15.741   4.819  11.810 -0.3945  0.0501 -0.2818
 2911W        W23191  10.248  17.547  11.634 -0.1712 -0.1850  0.0970
 2912W        W23192   0.481   7.402   0.851 -0.2456 -0.0438 -0.3385
 2913W        W23193  12.515  16.664  14.616 -0.1889 -0.4485 -0.1182
 2914W        W23194   5.196   3.926   1.827  0.0412 -0.1656 -0.0258
 2915W        W23195  11.099   9.297  14.115 -0.0537  0.2590  0.0034
 2916W        W23196   1.085   1.955   2.042 -0.2141 -0.1014 -0.0798
 2917W        W23197   7.461   6.795   2.319  0.1515  0.2538 -0.2176
 2918W        W23198   2.261   0.655  15.189  0.2763  0.1777 -0.0817
 2919W        W23199   7.306  14.290  12.071 -0.1478  0.2146  0.0380
 2920W        W23200  14.472  15.354   2.179  0.0698 -0.2917  0.1296
 2921W        W23201  15.048   8.624   1.643 -0.1154  0.0084 -0.2293
 2922W        W23202   7.053   8.370  12.077 -0.1925  0.3292 -0.0273
 2923W        W23203  17.120   3.583   0.999  0.0496 -0.0603  0.3074
 2924W        W23204   2.266   7.404   3.338 -0.1195  0.1228  0.2846
 2925W        W23205   0.048   8.469   0.680 -0.1389  0.0315  0.0700
 2926W        W23206   4.509   9.097   3.186  0.0172 -0.1325 -0.1462
 2927W        W23207  12.217  18.412  15.276  0.1880  0.3613 -0.1282
 2928W        W23208   5.809  11.984  13.818  0.3238 -0.3567  0.4786
 2929W        W23209  17.472  10.121   1.065 -0.4702  0.1692 -0.0086
 2930W        W23210   2.620   1.141   4.044 -0.2403  0.2381  0.2328
 2931W        W23211  10.116   5.943   0.325  0.2087  0.0950  0.1939
 2932W        W23212  10.375   1.784   2.844 -0.0958  0.1022 -0.0326
 2933W        W23213   6.874  14.712  13.247  0.1435 -0.1583  0.0836
 2934W        W23214   6.344   7.415   1.951 -0.0062 -0.2011 -0.0789
 2935W        W23215   9.854  18.167  10.968 -0.2202  0.1313  0.1911
 2936W        W23216   1.691  16.174   1.137  0.1293 -0.1141 -0.1749
 2937W        W23217  17.183   9.624  14.858  0.0164 -0.2101  0.2627
 2938W        W23218  17.183   2.412  14.927  0.0777  0.0485  0.1643
 2939W        W23219  17.876  14.749  12.670 -0.0751  0.1479 -0.1640
 2940W        W23220   2.012  14.655  12.902  0.4539  0.0098  0.0366
 2941W        W23221   9.464   6.482  13.602  0.0097  0.1396 -0.0676
 2942W        W23222   6.752   6.692   1.333  0.0355 -0.2027  0.0512
 2943W        W23223   6.770   0.203  13.746  0.1201  0.1071 -0.1069
 2944W        W23224   8.909  10.187  13.588 -0.5392 -0.1573  0.0474
 2945W        W23225   0.565   3.466  10.055 -0.2902 -0.2112 -0.3215
 2946W        W23226   9.928   3.755   3.792 -0.0837  0.1732 -0.1327
 2947W        W23227   1.386  11.961   2.431  0.1103 -0.1963  0.1585
 2948W        W23228  17.565  16.161  13.890  0.0046  0.3294 -0.0290
 2949W        W23229   7.600  18.536  12.626  0.0348 -0.0751  0.1273
 2950W        W23230   6.262   8.946   2.655 -0.0685  0.2657  0.0932
 2951W        W23231   7.935   3.516  15.355 -0.1625 -0.0185 -0.0596
 2952W        W23232   9.540  13.985   1.409  0.0789 -0.0832 -0.1788
 2953W        W23233  14.352  10.880  14.858 -0.0116  0.3023  0.1256
 2954W        W23234   9.901  11.011  11.533 -0.2491  0.2697 -0.2710
 2955W        W23235  16.773   3.867   1.083  0.0663  0.1685 -0.1694
 2956W        W23236  18.654   5.714   0.480 -0.2677  0.1121 -0.3826
 2957W        W23237   8.192  11.644  15.190 -0.0491 -0.1286  0.0981
 2958W        W23238  17.977  18.290   3.377 -0.2687  0.1114 -0.1882
 2959W        W23239  11.548  17.421  12.976  0.1000 -0.2731  0.2998
 2960W        W23240   6.118   6.036   0.540  0.1424 -0.0141 -0.2315
 2961W        W23241   0.357   8.542  14.549 -0.1228 -0.3158 -0.1121
 2962W        W23242   6.807  16.050   0.709  0.0179 -0.1820 -0.1451
 2963W        W23243   5.234  14.411   2.046 -0.0230  0.0480 -0.0868
 2964W        W23244  14.582   4.433  12.096  0.0951  0.1770 -0.2940
 2965W        W23245  12.950  11.817   2.192  0.2369 -0.1685 -0.3465
 2966W        W23246  11.256   9.737  15.373  0.2006  0.2157 -0.1693
 2967W        W23247   3.825   7.689   2.168  0.0444 -0.0749 -0.0088
 2968W        W23248   5.125   1.403  12.997  0.1460  0.1710  0.2628
 2969W        W23249  10.396  11.180  11.539  0.0486  0.0983 -0.0879
 2970W        W23250  10.062   4.277  12.618 -0.3700 -0.0552 -0.0612
 2971W        W23251   5.886   8.867   1.170  0.0293  0.1641  0.2413
 2972W        W23252   4.122   9.460  12.012 -0.0668  0.1080  0.1148
 2973W        W23253  14.801   3.323   1.398  0.2109  0.1781  0.1860
 2974W        W23254   2.855  14.232  13.070 -0.2624  0.1635  0.1191
 2975W        W23255   8.456  13.386   3.990 -0.0596 -0.0333  0.0338
 2976W        W23256  15.705   0.134  15.308  0.1829 -0.0661  0.2731
 2977W        W23257   8.758   9.290   0.911  0.0909 -0.0313 -0.0294
 2978W        W23258  16.895   9.918   3.765 -0.2673 -0.1085  0.0344
 2979W        W23259   9.724   3.168   2.531 -0.0014  0.0002 -0.1962
 2980W        W23260  13.551   5.044  12.613  0.0319  0.1948 -0.0237
 2981W        W23261   1.070  17.700  14.311 -0.2075  0.1799 -0.0182
 2982W        W23262  14.893   0.144   2.706 -0.2236  0.1781 -0.0567
 2983W        W23263   5.699   3.748   0.514 -0.0451 -0.1250  0.0262
 2984W        W23264   0.520   2.305  14.213 -0.1008  0.0292  0.1715
 2985W        W23265   1.032   5.593   2.338  0.1632 -0.3351  0.0756
 2986W        W23266  13.937   6.036   1.375 -0.1136  0.0107  0.0919
 2987W        W23267   3.998   8.076  11.906 -0.0302  0.0882  0.3229
 2988W        W23268   6.382   4.680   1.293 -0.4375  0.2056  0.2142
 2989W        W23269  12.067  11.571  13.678  0.3020  0.0199 -0.0985
 2990W        W23270   8.383  12.673   1.740  0.3987 -0.3243  0.1625
 2991W        W23271   6.570  16.211   0.308 -0.2262  0.0877  0.0696
 2992W        W23272   1.527  15.732   0.210  0.1061  0.1011 -0.3043
 2993W        W23273   2.021   5.127  13.450  0.0501  0.2165 -0.0521
 2994W        W23274   7.929  14.547   1.776  0.1068  0.0087  0.1839
 2995W        W23275   4.973   9.827   4.481  0.1948 -0.3314  0.0018
 2996W        W23276  13.420   9.405   1.626 -0.1306 -0.5783  0.1977
 2997W        W23277   9.942   9.957  14.173 -0.2912 -0.2075  0.1895
 2998W        W23278  13.130  14.318  12.636 -0.4273 -0.1205 -0.1043
 2999W        W23279   1.828  17.273  11.525  0.0819 -0.2295 -0.2198
 3000W        W23280  18.280  14.863   3.150 -0.0131  0.0299  0.0116
 3001W        W23281   5.276   8.583  15.386  0.2273 -0.0181  0.2189
 3002W        W23282  14.071  17.168  11.709 -0.1474  0.1069 -0.0624
 3003W        W23283  12.816  17.450   3.840 -0.0043 -0.0727  0.1267
 3004W        W23284   6.390   0.767  14.984  0.0177  0.2164 -0.0509
 3005W        W23285  14.129  16.981   1.703  0.0574 -0.0871 -0.1145
 3006W        W23286  14.954  13.135   1.092 -0.1315 -0.4463 -0.2687
 3007W        W23287   0.035  14.603   5.993 -0.0459  0.1550  0.0007
 3008W        W23288   8.749   3.359   3.519  0.3246 -0.2382 -0.0729
 3009W        W23289  15.400  13.904   4.875 -0.0468 -0.2863  0.0008
 3010W        W23290  10.711   4.919   0.393 -0.1509 -0.0188 -0.0325
 3011W        W23291  15.280   2.144  11.704  0.0651 -0.0349 -0.2069
 3012W        W23292  12.875  11.722   0.299 -0.2088 -0.1435  0.2878
 3013W        W23293  18.610   6.218  11.237  0.0577 -0.2371  0.0089
 3014W        W23294   4.099   1.803   4.836  0.2231 -0.1618 -0.1961
 3015W        W23295   2.742  16.852   1.178  0.1204 -0.0430 -0.0426
 3016W        W23296   5.866   5.717   1.399  0.1070 -0.0224  0.0353
 3017W        W23297  17.914  10.235  11.829  0.0364 -0.0409 -0.4721
 3018W        W23298  11.999  16.159   0.561 -0.1427 -0.1804  0.1263
 3019W        W23299  12.697  13.907   4.243 -0.0324 -0.1413 -0.2568
 3020W        W23300   2.631   1.791  12.845 -0.0196  0.2844 -0.0666
 3021W        W23301   4.707  10.821  11.837  0.0699  0.2041 -0.0335
 3022W        W23302   6.672  10.451  14.156  0.1098  0.1425 -0.1282
 3023W        W23303   9.692   0.329  12.209 -0.0491 -0.0530 -0.0957
 3024W        W23304   0.256   5.535   0.928 -0.0105  0.1823  0.0887
 3025W        W23305  10.610  10.424   2.093  0.1332  0.0199 -0.0078
 3026W        W23306   9.612  13.186   4.051 -0.2897  0.1088  0.0922
 3027W        W23307  18.388   2.844   3.739  0.0048  0.1066 -0.0840
 3028W        W23308  10.658  16.713   2.274 -0.0353 -0.0126  0.0662
 3029W        W23309   4.664   5.226   0.103  0.1125 -0.1615 -0.4528
 3030W        W23310  17.702  15.072  11.391 -0.2933  0.0860 -0.1042
 3031W        W23311   0.049   3.756   5.076  0.2088 -0.1309 -0.1816
 3032W        W23312  10.730   7.719   2.774  0.2672 -0.1644  0.0754
 3033W        W23313  16.924  13.338  12.184  0.2803  0.0692  0.0462
 3034W        W23314  10.967   0.225   5.230  0.2149  0.1258 -0.1510
 3035W        W23315   4.851  13.203   9.966  0.2625 -0.0442  0.0782
 3036W        W23316  10.100   4.987  13.924  0.1913 -0.1039  0.1026
 3037W        W23317   5.288  14.269  13.933 -0.0399 -0.1679 -0.2069
 3038W        W23318   3.437  10.692   3.640 -0.0692  0.0448 -0.0208
 3039W        W23319   2.277   5.333   0.720  0.1001 -0.1328  0.1869
 3040W        W23320   9.888   2.950   0.367  0.0952  0.1640  0.3160
 3041W        W23321   3.518  14.813   3.939 -0.0924 -0.2423  0.1012
 3042W        W23322   0.700  15.968   1.859  0.1893 -0.1225 -0.2553
 3043W        W23323  14.019  16.435   0.489  0.0100  0.1971  0.1033
 3044W        W23324   8.524  13.281   1.586 -0.1454  0.2749  0.0743
 3045W        W23325  17.124  12.061  12.852 -0.0415  0.1397  0.0200
 3046W        W23326  10.108   1.593  11.311  0.0117 -0.3225 -0.1111
 3047W        W23327   1.705   5.798   4.139 -0.0070 -0.0214  0.0098
 3048W        W23328   8.015  16.834   2.643  0.0346  0.1041 -0.0704
 3049W        W23329  17.690   8.482   3.944 -0.1005 -0.0971 -0.1243
 3050W        W23330   1.386   7.704   3.334 -0.1767 -0.2591  0.0004
 3051W        W23331   1.150  16.466   0.296 -0.1067 -0.1434  0.2235
 3052W        W23332   1.769   3.698   0.758  0.1393  0.1420  0.0359
 3053W        W23333  11.472  11.434  11.357  0.2132  0.1098 -0.2959
 3054W        W23334  10.593  15.553  13.734 -0.0703  0.0381 -0.0197
 3055W        W23335  12.909   6.521   3.550 -0.1694 -0.0413 -0.1930
 3056W        W23336   8.883  10.272  12.074  0.1922 -0.0474  0.2134
 3057W        W23337   1.201  17.368  14.666 -0.0710  0.1946 -0.1617
 3058W        W23338  14.540   5.799  14.125  0.1857 -0.2075 -0.3088
 3059W        W23339   1.189  12.255  14.222 -0.0593  0.0156 -0.3046
 3060W        W23340   5.866   6.634  11.225  0.2710 -0.2781 -0.0750
 3061W        W23341   6.799  12.566  12.327  0.1270 -0.1003 -0.2504
 3062W        W23342  12.440  17.551   2.985 -0.0069  0.2279  0.0741
 3063W        W23343  16.911   0.767   3.083  0.0343  0.0351 -0.1586
 3064W        W23344   8.926   7.071  14.779  0.1228  0.0728 -0.0636
 3065W        W23345  12.438   7.639  12.156 -0.0804 -0.0071  0.1402
 3066W        W23346   1.676   7.525   2.620  0.2276 -0.0824  0.0493
 3067W        W23347   4.369  11.492  11.157  0.5717  0.2197 -0.0356
 3068W        W23348   6.414  11.050   2.199  0.0758 -0.0756 -0.0285
 3069W        W23349  16.169  13.360  14.026 -0.0631 -0.1066  0.3826
 3070W        W23350  15.538   4.275   0.801  0.0559 -0.2393  0.0429
 3071W        W23351   5.409   2.765  10.934 -0.0829 -0.0421  0.1153
 3072W        W23352   6.054  13.184  13.245 -0.0790  0.1301 -0.1758
 3073W        W23353   2.187  15.940   1.870  0.1054  0.0120 -0.1068
 3074W        W23354  18.174  12.611  15.115 -0.0111  0.0640  0.0021
 3075W        W23355  13.523   4.493   2.269 -0.1674  0.2677 -0.0524
 3076W        W23356   6.495  13.587  13.325  0.0856 -0.0243 -0.1201
 3077W        W23357  14.757  15.871  14.805  0.0081 -0.1546  0.0755
 3078W        W23358   7.438   3.824  14.256  0.1601 -0.1612 -0.1793
 3079W        W23359   4.361   7.388  15.187  0.0492  0.2330 -0.4625
 3080W        W23360   4.257  11.503  12.056 -0.1615  0.0435 -0.0795
 3081W        W23361   8.306  10.365  14.660 -0.1597  0.0076  0.1804
 3082W        W23362   4.389  18.262  12.392  0.0677 -0.0707 -0.0532
 3083W        W23363   0.483   2.395  12.141  0.1781 -0.0667 -0.1576
 3084W        W23364   0.702  13.876   0.204 -0.2365 -0.3960  0.0985
 3085W        W23365  16.657   6.904  14.078 -0.1658 -0.0276  0.1274
 3086W        W23366  17.700  15.712   2.321  0.2430  0.3526 -0.1138
 3087W        W23367   3.334  13.294   0.132 -0.1041  0.2761  0.3100
 3088W        W23368   3.565   6.628  12.114 -0.0779 -0.1438  0.0276
 3089W        W23369   9.598  16.442  14.538  0.2593 -0.0693  0.0517
 3090W        W23370   0.724  14.575  11.806 -0.1597 -0.1768  0.4754
 3091W        W23371  14.615  10.333  14.518 -0.1585 -0.0453  0.3714
 3092W        W23372   5.472  11.602  13.650 -0.1440 -0.0590 -0.0304
 3093W        W23373   1.643  13.360  14.210  0.1613  0.0273  0.0562
 3094W        W23374  16.813   2.700  13.102  0.2569  0.1289  0.1487
 3095W        W23375   8.034   0.007  15.061 -0.0082  0.0348  0.0585
 3096W        W23376   9.427   7.762  12.518  0.0205  0.5832 -0.0618
 3097W        W23377   1.969  16.404   0.080 -0.0627 -0.1262  0.0193
 3098W        W23378   9.645  10.546   3.269 -0.3606  0.0504 -0.1747
 3099W        W23379   2.760  14.620   2.746 -0.2391  0.2618  0.1604
 3100W        W23380   7.118   8.916   0.768  0.1117  0.1340 -0.2922
 3101W        W23381  11.762  10.666  15.062 -0.0419  0.2312 -0.1744
 3102W        W23382  15.239  13.424   1.743 -0.0501 -0.2734  0.0762
 3103W        W23383  11.474   7.790   0.547 -0.1989 -0.1442  0.1675
 3104W        W23384   0.964  15.530   2.552  0.0422 -0.0167 -0.2789
 3105W        W23385   0.483   7.444   2.637  0.1070  0.0928  0.3141
 3106W        W23386  17.258   7.763   2.134  0.0304 -0.0550  0.0859
 3107W        W23387  16.018  10.315   3.958  0.1437 -0.0327 -0.0302
 3108W        W23388  10.269  12.489  13.895  0.0924  0.0261 -0.1758
 3109W        W23389  18.458   3.832   9.967  0.0892  0.0072 -0.5200
 3110W        W23390   7.705  12.883  14.470 -0.0602 -0.0315 -0.1332
 3111W        W23391  10.554   3.705  14.368  0.1001 -0.0153  0.0070
 3112W        W23392  11.557   2.584   3.180 -0.1144  0.0039 -0.2069
 3113W        W23393   8.468  15.371   3.448 -0.0654 -0.0410 -0.1745
 3114W        W23394   2.415   4.935   2.064  0.1929 -0.0886 -0.0532
 3115W        W23395   8.690   7.554  14.910 -0.2821  0.2370  0.1260
 3116W        W23396   8.926   3.075  15.282 -0.1159  0.1292  0.3807
 3117W        W23397   6.580  12.603   3.800  0.0219  0.0395 -0.3131
 3118W        W23398  15.370   0.850   2.793  0.0203 -0.2294  0.0772
 3119W        W23399   0.086   9.495   2.319  0.1379  0.0134 -0.0294
 3120W        W23400  15.566   2.950   1.137  0.0839  0.0731 -0.1352
 3121W        W23401   8.657  14.617   1.315  0.1117  0.0029 -0.2928
 3122W        W23402   6.867  18.709  14.842 -0.0319 -0.4249 -0.0629
 3123W        W23403   4.715   4.998  15.002  0.0190 -0.4126  0.2119
 3124W        W23404   1.930  12.027   0.534  0.0169  0.0088  0.1948
 3125W        W23405   5.183   0.185   0.957 -0.2295  0.2183 -0.2174
 3126W        W23406   1.025  15.456   4.748  0.3588  0.2344  0.0694
 3127W        W23407   9.639   0.553  14.676  0.2131  0.2085  0.2523
 3128W        W23408  10.576  16.777  14.868  0.0887  0.0531  0.1036
 3129W        W23409  16.598   3.165   1.830  0.0099  0.2012  0.1985
 3130W        W23410   9.617   4.839   3.943  0.2833 -0.2097  0.0025
 3131W        W23411   1.948  10.630   1.963  0.0576  0.0905  0.0875
 3132W        W23412   8.476  17.030  14.881 -0.0135  0.0239  0.1628
 3133W        W23413   7.823  11.015  13.356  0.0301 -0.0697 -0.2229
 3134W        W23414  15.269   0.171  12.780  0.0568 -0.0055  0.0742
 3135W        W23415   1.352  13.073  12.559 -0.0090 -0.1244  0.0756
 3136W        W23416  14.105  11.111   1.021 -0.4608  0.0466  0.0967
 3137W        W23417  15.062  15.174   0.652  0.2164 -0.1366 -0.0435
 3138W        W23418  12.176   6.466  11.692 -0.0990  0.1010 -0.1136
 3139W        W23419   8.940  15.828  13.191 -0.0662 -0.1967  0.1453
 3140W        W23420   7.845   1.274  11.586  0.2499  0.1967 -0.0780
 3141W        W23421   1.421   4.447   3.469  0.1044 -0.1409 -0.1450
 3142W        W23422   2.705   3.382   2.230 -0.0154 -0.0846 -0.0513
 3143W        W23423   3.698   3.474  12.257 -0.0455 -0.0767 -0.0556
 3144W        W23424  18.048   1.542   0.140  0.1421 -0.1219  0.1664
 3145W        W23425  11.229  16.262  13.780  0.0259  0.3094  0.0306
 3146W        W23426  18.445  12.950   2.295 -0.0519  0.0376 -0.0732
 3147W        W23427   2.083   0.019   3.818 -0.0477  0.1244  0.3612
 3148W        W23428   6.940   8.165   4.616  0.2041 -0.0753  0.2049
 3149W        W23429  18.043   6.165  12.842 -0.1076  0.0107 -0.0318
 3150W        W23430  16.338   6.257   1.042 -0.0394 -0.1018 -0.2008
 3151W        W23431   2.447   8.483  12.700 -0.2763 -0.3091  0.4177
 3152W        W23432   1.102  14.322  12.718 -0.2273  0.1156  0.0477
 3153W        W23433  18.406   5.722   3.314  0.0372  0.0224 -0.2240
 3154W        W23434   2.734   5.902   3.570  0.0315  0.1256 -0.0899
 3155W        W23435  10.764  10.007  12.155  0.1045  0.3045  0.0899
 3156W        W23436   1.946   5.097  15.197 -0.0656  0.0709  0.3961
 3157W        W23437   1.542   9.173  14.867 -0.2531 -0.0529 -0.3085
 3158W        W23438  14.737   2.097   3.833 -0.0863  0.0694  0.2856
 3159W        W23439   7.480  10.634   1.101 -0.0777  0.3848  0.2606
 3160W        W23440   8.596   2.199  13.540 -0.2638 -0.2959 -0.0219
 3161W        W23441  16.451   1.452   1.724  0.0312 -0.0966 -0.3794
 3162W        W23442   1.692   8.497   2.820  0.2175  0.1045  0.0104
 3163W        W23443  12.578   2.235   1.620 -0.0683  0.2024  0.4107
 3164W        W23444  13.798   2.619  14.026  0.3510  0.0050 -0.2553
 3165W        W23445   6.174   4.966   2.303 -0.2177  0.1231  0.0282
 3166W        W23446   1.025   0.929  12.420 -0.1821  0.2417  0.1251
 3167W        W23447  17.361   2.585  12.892  0.0662  0.1694  0.1457
 3168W        W23448  14.654  16.630   4.587 -0.0531 -0.2874  0.3181
 3169W        W23449  10.035   4.943  12.355  0.5832  0.0014  0.0839
 3170W        W23450   8.035  18.544  11.647  0.1492 -0.0637  0.2409
 3171W        W23451  10.347   9.868   0.171  0.2846 -0.0606  0.0616
 3172W        W23452   9.391  14.938  11.901 -0.0468 -0.2226 -0.0442
 3173W        W23453  15.071  14.924  11.986 -0.1050 -0.0524 -0.0810
 3174W        W23454   9.946  18.237  14.904 -0.1521  0.2546  0.0384
 3175W        W23455   3.816  16.069   4.159  0.2585  0.0933  0.2791
 3176W        W23456   3.977   5.283   1.543 -0.0865  0.2433 -0.1631
 3177W        W23457  17.566  10.412   0.441 -0.0699  0.1707  0.0032
 3178W        W23458  16.720  11.567   1.025  0.0659 -0.0829  0.0967
 3179W        W23459   3.827   0.398  13.879 -0.1772  0.0718 -0.0209
 3180W        W23460   5.443  16.494  11.513  0.3168 -0.3450  0.0827
 3181W        W23461  18.126  11.315   0.872  0.3053  0.1243  0.3547
 3182W        W23462   2.231  14.934   2.275  0.1254 -0.2711 -0.1983
 3183W        W23463   9.178  16.072   0.658  0.0961  0.1793  0.1194
 3184W        W23464   2.443   4.096   2.490  0.2187 -0.3546 -0.0827
 3185W        W23465   0.143   3.922   0.539  0.0044 -0.0720 -0.0315
 3186W        W23466   4.689   3.592  14.265 -0.2313 -0.0321 -0.1044
 3187W        W23467  14.146  11.863   0.988 -0.2594 -0.0198 -0.0918
 3188W        W23468  16.364  16.796   0.601 -0.2512  0.3765  0.0236
 3189W        W23469  11.682  17.450   0.949 -0.0805  0.0768  0.1992
 3190W        W23470  10.803  15.257  12.706 -0.0093  0.0579  0.0109
 3191W        W23471   2.439   8.627   2.163  0.2335 -0.1673  0.0262
 3192W        W23472   0.586   1.443   0.792 -0.0565 -0.0489  0.4018
 3193W        W23473  14.436   0.940   1.565 -0.1913 -0.3820  0.0438
 3194W        W23474  16.262   8.441   3.652  0.2359  0.3270  0.0127
 3195W        W23475   8.378  16.617  14.541 -0.1776  0.1239 -0.2504
 3196W        W23476  18.348   9.557  13.000 -0.2050 -0.0215 -0.0339
 3197W        W23477   0.374   2.279   2.764  0.0130  0.3569  0.3801
 3198W        W23478   2.602  13.908   3.634  0.1690  0.1110 -0.0895
 3199W        W23479   5.466  14.105  11.547  0.1151 -0.1737  0.1235
 3200W        W23480  12.996   5.910  12.401  0.2426 -0.0906  0.1719
 3201W        W23481  13.303  18.601  13.027  0.1714 -0.0326  0.0626
 3202W        W23482   9.246  12.679  14.019 -0.1363  0.2650  0.1113
 3203W        W23483  17.319   4.884  14.522 -0.0679  0.2262 -0.2762
 3204W        W23484   7.698   5.857   2.554  0.1315 -0.1512  0.1555
 3205W        W23485  15.203   0.312  15.324 -0.2544  0.0347 -0.2270
 3206W        W23486   6.580  17.884   1.213  0.1766  0.2790 -0.0897
 3207W        W23487   4.789   8.884  13.539  0.0884  0.1088  0.1415
 3208W        W23488  10.103   2.273  12.444  0.0154  0.1160 -0.0224
 3209W        W23489   5.381  17.922   2.375 -0.1367  0.1523  0.1323
 3210W        W23490   4.191   8.097  12.814 -0.1721  0.0017  0.0055
 3211W        W23491   9.484   8.302   4.338 -0.2836  0.0374 -0.1751
 3212W        W23492  13.846  15.939  12.729 -0.0542  0.0876 -0.0137
 3213W        W23493  17.173   4.848  11.643 -0.0344  0.2832  0.0855
 3214W        W23494  17.177   2.448  10.535 -0.0928  0.0980  0.2353
 3215W        W23495  14.957  11.442   2.659 -0.0848 -0.0988  0.3097
 3216W        W23496  14.837  10.677  12.250  0.0054  0.1545  0.1434
 3217W        W23497   8.231   3.916   1.078  0.1615  0.0422  0.1597
 3218W        W23498   1.528   4.455   4.247  0.0010 -0.0914 -0.1588
 3219W        W23499  18.008  16.880   3.357 -0.1756  0.0342  0.3304
 3220W        W23500   8.851   0.681  10.996  0.0838  0.1645 -0.0201
 3221W        W23501   0.711  11.203  12.293  0.0334 -0.1378  0.1417
 3222W        W23502   4.662   2.544   4.146 -0.0193  0.1663  0.0921
 3223W        W23503  14.553  16.510   2.579 -0.2266 -0.0459  0.1371
 3224W        W23504   5.123  12.621   2.533  0.2142  0.1711 -0.1955
 3225W        W23505  16.372   9.830   1.039  0.3159  0.0241 -0.0834
 3226W        W23506  17.190  14.601   1.240 -0.2117 -0.0317  0.1566
 3227W        W23507   8.386   8.001   1.742  0.0815 -0.1330  0.0814
 3228W        W23508  16.593  17.984  12.344 -0.0307 -0.1397 -0.2976
 3229W        W23509   0.664  15.886   1.340 -0.0087 -0.3349 -0.0266
 3230W        W23510   7.731   8.378   6.158 -0.0324  0.2822 -0.0108
 3231W        W23511  12.533  13.208   0.759 -0.1757  0.1992 -0.0151
 3232W        W23512   4.414  12.433  12.127 -0.1563  0.0890 -0.1131
 3233W        W23513  15.420  10.476   3.861 -0.0373 -0.0986 -0.0089
 3234W        W23514  16.854   7.043  12.994  0.0008 -0.0604 -0.0098
 3235W        W23515   9.919   4.270   1.404  0.0298  0.0947 -0.0907
 3236W        W23516  18.334  14.157   2.674  0.0671 -0.1250  0.0939
 3237W        W23517  15.532  18.499  12.379  0.0213 -0.1541 -0.0556
 3238W        W23518   6.914   1.605  12.800 -0.0223 -0.1689  0.1200
 3239W        W23519  10.994   5.511   0.501 -0.0259  0.2619  0.3237
 3240W        W23520   3.959  18.332  14.502  0.0172  0.2281  0.1630
 3241W        W23521  10.271  13.810   9.753  0.0805  0.0721 -0.0469
 3242W        W23522  10.610  17.041   3.850  0.0360 -0.1895  0.2510
 3243W        W23523  16.946   9.829  14.365  0.0690  0.1966  0.2037
 3244W        W23524  11.405   4.151   1.412  0.1359 -0.3223 -0.0113
 3245W        W23525   4.332   6.650   1.641 -0.3356 -0.0498 -0.3366
 3246W        W23526   3.253   4.512   3.895 -0.0549 -0.0142 -0.0893
 3247W        W23527   8.047   4.021   0.015  0.0215 -0.0995 -0.0738
 3248W        W23528   3.999   0.318  14.738  0.1819 -0.1801 -0.1537
 3249W        W23529  12.842  16.325   1.442  0.1965 -0.1654 -0.0940
 3250W        W23530   2.655  18.417   1.702 -0.2227  0.0130 -0.1532
 3251W        W23531  13.286   6.357  14.866  0.3216 -0.2552  0.2114
 3252W        W23532  10.798   8.540  13.137 -0.0962  0.3866 -0.0924
 3253W        W23533   4.157  17.826   3.549  0.2963 -0.2058  0.2423
 3254W        W23534   1.959  11.156  14.622  0.0801  0.0338  0.1021
 3255W        W23535  14.306   9.426   2.184 -0.1453 -0.0056  0.1059
 3256W        W23536  18.205   4.611  12.981  0.0321  0.1983  0.0579
 3257W        W23537   8.032  12.191  13.610  0.2792  0.1755 -0.1513
 3258W        W23538   1.072  13.033  13.120 -0.4741 -0.1169 -0.0826
 3259W        W23539   1.868   1.487   3.051 -0.1064  0.2275  0.0710
 3260W        W23540   1.555  12.221   0.137  0.0325 -0.2140  0.0649
 3261W        W23541   6.570  10.814   2.660  0.1298 -0.0457  0.1212
 3262W        W23542  11.110  15.790  11.571 -0.2645  0.1936  0.2747
 3263W        W23543  11.109   0.550   1.800  0.0481 -0.1828  0.1808
 3264W        W23544  16.008  15.319   4.662  0.1841 -0.0030  0.1790
 3265W        W23545  15.411   0.673  14.418 -0.0804  0.2032 -0.2962
 3266W        W23546  12.097  15.403   4.193  0.0909  0.0913  0.0440
 3267W        W23547   7.318   6.976   0.444  0.0307 -0.1707  0.0601
 3268W        W23548  16.188   1.843   2.372 -0.2552 -0.0179  0.2598
 3269W        W23549  10.533  14.094  12.169 -0.1325  0.1861 -0.0770
 3270W        W23550  17.451   6.581   5.189  0.2318  0.0998 -0.0402
 3271W        W23551   8.817   9.888   0.854  0.2192 -0.0771 -0.2264
 3272W        W23552   6.989   7.275  11.274  0.2325  0.0104 -0.1646
 3273W        W23553   1.321   5.884  13.416 -0.0104 -0.1526 -0.3398
 3274W        W23554  17.317  13.341  14.416  0.1294  0.0781 -0.0016
 3275W        W23555   5.561   0.379  11.262  0.4840 -0.3772  0.1788
 3276W        W23556  15.062  10.313   0.920  0.2077  0.0094 -0.2748
 3277W        W23557   2.560  14.369  14.319 -0.1443  0.3566 -0.1512
 3278W        W23558  17.041   1.715  11.139 -0.1287  0.3287 -0.1126
 3279W        W23559  18.415  13.137  13.869  0.5444 -0.0292  0.2450
 3280W        W23560   7.977   4.113   0.537  0.1638  0.2904 -0.0494
 3281W        W23561  13.880  11.613  11.903  0.2409 -0.0979 -0.0303
 3282W        W23562   0.411  12.232  14.775  0.2079 -0.1179 -0.2571
 3283W        W23563  13.929   4.616  15.080 -0.0345 -0.1177 -0.0696
 3284W        W23564   5.453  16.547  15.352 -0.2944  0.3812 -0.1466
 3285W        W23565   3.695  13.157  14.240 -0.2334 -0.0685 -0.0380
 3286W        W23566   4.233  15.578  11.358  0.0160 -0.0262  0.2335
 3287W        W23567  18.055   7.558   1.725  0.0705  0.0982 -0.2284
 3288W        W23568  18.531   5.006  13.674  0.1815 -0.1449  0.0724
 3289W        W23569  17.034   3.086   1.430 -0.1884  0.0342  0.0503
 3290W        W23570   4.743   5.309  14.136 -0.1673  0.1507  0.0812
 3291W        W23571  12.035  15.004   1.688 -0.0834  0.1148 -0.0450
 3292W        W23572  16.155  15.783   2.159  0.3572 -0.1190 -0.0189
 3293W        W23573  15.153   4.787  12.667  0.0687 -0.2076  0.2128
 3294W        W23574   3.796   7.890   4.012  0.0128 -0.0987 -0.0635
 3295W        W23575   0.101   3.161  14.166  0.1421 -0.0232  0.1687
 3296W        W23576   1.145  13.621   0.752 -0.1556  0.1504  0.2188
 3297W        W23577  16.424  10.030   0.021 -0.0850  0.3725  0.3152
 3298W        W23578   4.878  10.845   3.105 -0.1348 -0.0564  0.2060
 3299W        W23579  15.630   1.951  12.548  0.0163  0.2338 -0.2126
 3300W        W23580  12.276  10.397   4.350  0.0321 -0.0297  0.0876
 3301W        W23581   8.751  10.046   5.306  0.3069 -0.0147 -0.1760
 3302W        W23582   5.838  14.641   1.227 -0.0230 -0.1928 -0.2429
 3303W        W23583   7.912  14.776  14.590 -0.0553  0.1071 -0.0188
 3304W        W23584   6.323  15.069  11.722 -0.1369 -0.1317  0.0328
 3305W        W23585  11.641   8.346  13.090  0.1374  0.1696 -0.0708
 3306W        W23586   9.564   1.310   3.919 -0.0035 -0.2791  0.0201
 3307W        W23587   6.179  16.004  11.156  0.1516 -0.1110  0.2069
 3308W        W23588   1.258   0.411  13.073 -0.3995 -0.1578 -0.1918
 3309W        W23589   6.177  14.076  14.012  0.0300  0.0127  0.0739
 3310W        W23590  11.130  18.431   2.420  0.4083 -0.1113  0.2080
 3311W        W23591  13.023  12.973   4.247 -0.1355  0.2678 -0.2693
 3312W        W23592   2.636   4.673  12.807 -0.1036 -0.1545 -0.3004
 3313W        W23593  17.502  10.203   2.429 -0.0802 -0.2931 -0.3582
 3314W        W23594  18.087   4.466   3.842  0.1967  0.1074 -0.0548
 3315W        W23595   2.662   2.375  12.550  0.1437 -0.1306  0.3505
 3316W        W23596   4.716   7.794  12.697  0.1596  0.0379  0.0711
 3317W        W23597   9.296  18.361   3.318 -0.3507 -0.0914  0.0663
 3318W        W23598   9.797   3.703   2.946 -0.2875  0.1558  0.2061
 3319W        W23599  18.437  18.253   2.976  0.1009  0.0981  0.2193
 3320W        W23600   5.137   9.795  15.288  0.1173  0.0882 -0.1173
 3321W        W23601  16.664  14.668   1.269 -0.0517 -0.3505  0.0741
 3322W        W23602  13.523   8.553   4.973 -0.1865  0.0211  0.0057
 3323W        W23603  10.300   8.806  12.971 -0.2670  0.1514  0.0722
 3324W        W23604  13.481  17.041   0.459 -0.1322  0.0264  0.1818
 3325W        W23605   2.398  11.641   2.517  0.2819 -0.2119  0.0332
 3326W        W23606  16.077   1.062  12.624 -0.3900  0.2153  0.0521
 3327W        W23607   0.741   9.203   0.795  0.0798  0.1271  0.0147
 3328W        W23608  14.078  16.793  12.345  0.0096  0.2031  0.1865
 3329W        W23609  12.265  15.728   1.485 -0.0551 -0.1288 -0.0902
 3330W        W23610  18.549  14.445   4.710 -0.2718 -0.2620  0.0626
 3331W        W23611  15.410   9.185   2.450  0.1768 -0.0922  0.2673
 3332W        W23612  13.970  10.200  13.116  0.1457  0.2970 -0.1608
 3333W        W23613   1.839  14.889  12.325 -0.2033  0.0302  0.1845
 3334W        W23614   8.419  13.445  13.409 -0.2445 -0.0808  0.0842
 3335W        W23615   3.509  15.762  12.635  0.2724 -0.2285  0.0030
 3336W        W23616  14.366   8.575  12.152  0.0618  0.3830  0.0611
 3337W        W23617   3.267  15.118  11.934  0.3118  0.0818 -0.0564
 3338W        W23618   9.673  10.054  14.970  0.0144  0.2058  0.0802
 3339W        W23619  14.195  14.965  11.014 -0.2890 -0.3402  0.1316
 3340W        W23620   6.056  10.420  11.430  0.0164 -0.1441 -0.1619
 3341W        W23621   1.514  11.084  11.521 -0.2313  0.0654 -0.1681
 3342W        W23622  17.706  13.318   1.471 -0.0052  0.1263  0.1841
 3343W        W23623   0.877   8.144   0.473 -0.4170 -0.1601 -0.1464
 3344W        W23624   7.536   3.875  10.947 -0.4807  0.3427 -0.1381
 3345W        W23625  16.343  12.412  11.415  0.1718 -0.1584  0.1926
 3346W        W23626  13.391   3.989  10.639  0.5645  0.0609  0.0873
 3347W        W23627  15.569   5.396   2.284 -0.1315 -0.1684  0.0247
 3348W        W23628   6.773   4.934   3.323 -0.4981 -0.0041 -0.0299
 3349W        W23629  14.999   7.818   1.512 -0.3459 -0.0881 -0.1409
 3350W        W23630   0.253   8.025  12.777  0.1722  0.0697 -0.1692
 3351W        W23631  12.012  12.405  12.595  0.1107 -0.3775  0.1842
 3352W        W23632  10.026   2.992  13.925  0.0470  0.2378 -0.0322
 3353W        W23633  17.661  16.990  13.863  0.2276 -0.0178 -0.0067
 3354W        W23634   4.357   1.669   3.828 -0.3505  0.1530  0.1111
 3355W        W23635   6.117   4.535  14.107 -0.2950  0.2810 -0.0728
 3356W        W23636   0.103   2.715   1.608 -0.0354  0.1638 -0.0432
 3357W        W23637  12.394   9.433  13.410 -0.0837  0.0787 -0.0974
 3358W        W23638  17.273  15.591   0.309 -0.1409 -0.3264  0.0637
 3359W        W23639  14.944  13.565  14.633 -0.3545 -0.1200  0.0554
 3360W        W23640   4.408  18.526  11.902  0.4451 -0.3531  0.1624
 3361W        W23641   3.360  12.104  13.142 -0.0994 -0.0179  0.1443
 3362W        W23642  11.683  13.454   4.100 -0.3131 -0.0615 -0.1090
 3363W        W23643   6.781  13.662  11.446 -0.0518 -0.0059 -0.3188
 3364W        W23644  14.788  11.927   3.653 -0.2192  0.0919 -0.1386
 3365W        W23645   7.915  14.105  11.334  0.1653  0.3320  0.2601
 3366W        W23646   9.690  13.727   3.450 -0.3522 -0.0142 -0.0849
 3367W        W23647  14.584   4.638   3.367  0.4742 -0.0799  0.0046
 3368W        W23648   7.505  16.717   2.658  0.1595  0.1587  0.2552
 3369W        W23649  12.827   6.716   2.654 -0.0232  0.0664  0.1011
 3370W        W23650   8.834  12.625   2.315  0.3946 -0.2520 -0.0074
 3371W        W23651   3.340  11.228  13.889  0.0138 -0.0234 -0.0591
 3372W        W23652   3.560   6.095  12.233 -0.1053  0.3295  0.2457
 3373W        W23653  16.822  12.124   2.532 -0.1383 -0.2120  0.2931
 3374W        W23654   7.124  12.083  12.359 -0.0751 -0.2330 -0.0703
 3375W        W23655   7.779   7.750  13.499  0.0275  0.0240 -0.4250
 3376W        W23656   3.841  16.557   2.307  0.0701 -0.1214  0.0887
 3377W        W23657  10.291  17.643   3.420  0.2790 -0.0805  0.1640
 3378W        W23658   7.661   9.714   3.550  0.0859  0.1626  0.1248
 3379W        W23659  15.604  15.941  13.380  0.0814 -0.0499 -0.0116
 3380W        W23660   6.135   8.569  14.812  0.2174 -0.2858  0.0818
 3381W        W23661   6.956   4.830  14.353 -0.0754  0.2001 -0.1006
 3382W        W23662   5.218  12.981  13.902 -0.1340  0.3155  0.1577
 3383W        W23663  16.063   7.882   0.530 -0.2448 -0.0082 -0.2794
 3384W        W23664   2.626   8.247   3.428 -0.2734  0.4267  0.2189
 3385W        W23665   2.069   8.633   3.633 -0.0371  0.1230 -0.0091
 3386W        W23666  10.383   8.397   4.145 -0.0840 -0.1250 -0.0905
 3387W        W23667  18.150  18.426   2.598  0.1345 -0.1708 -0.1281
 3388W        W23668   1.757   4.006  11.525  0.1260 -0.1100  0.2005
 3389W        W23669  16.882   9.550   2.548 -0.1138 -0.0694 -0.0298
 3390W        W23670   9.036   2.806   1.366  0.0797  0.1832  0.5155
 3391W        W23671  11.663   3.510   4.074 -0.0771  0.4237  0.5990
 3392W        W23672   5.805   3.323  14.327  0.0565  0.2888 -0.1633
 3393W        W23673   8.664  16.368   1.956 -0.1240  0.2149 -0.0119
 3394W        W23674   3.648  16.944  14.630  0.1085  0.3451 -0.0037
 3395W        W23675  13.613  10.038   0.882  0.0576 -0.0833  0.2465
 3396W        W23676   9.762   8.566   0.748  0.1837 -0.1292  0.0535
 3397W        W23677   5.329   6.726   1.438 -0.1559 -0.1511  0.1330
 3398W        W23678   1.934   5.516   0.396  0.0170 -0.0992 -0.0751
 3399W        W23679   5.540  16.842  12.589 -0.0087 -0.1413 -0.3387
 3400W        W23680   3.391  14.985   1.290 -0.2396  0.2711 -0.0574
 3401W        W23681   9.603   5.203  12.601 -0.0939  0.1589  0.0561
 3402W        W23682   3.805   6.922   2.968 -0.1564 -0.2298  0.0377
 3403W        W23683   3.967   1.126  10.479  0.1856 -0.0670 -0.2183
 3404W        W23684   2.775  13.520   2.387  0.2421 -0.0554  0.0351
 3405W        W23685  16.860  15.382   4.465 -0.0970 -0.1477 -0.1435
 3406W        W23686   8.621  15.679   3.815  0.1535  0.1304  0.2677
 3407W        W23687   6.542   6.984   4.107 -0.1666  0.3247  0.1487
 3408W        W23688   9.485  15.732  11.409  0.1583 -0.0626  0.0492
 3409W        W23689  16.120  17.550   2.681  0.0567  0.0090  0.0058
 3410W        W23690   0.159   6.928   3.769  0.0883  0.1900  0.1900
 3411W        W23691  12.770   3.191  14.924  0.1004  0.0238  0.0972
 3412W        W23692  11.905  12.537   2.559 -0.1774 -0.0259 -0.1012
 3413W        W23693  17.911  12.292   3.595 -0.0563 -0.1955 -0.1063
 3414W        W23694   8.990  16.809   3.302 -0.1464 -0.0471  0.0365
 3415W        W23695  13.248  16.235  14.917  0.0037 -0.0001  0.1109
 3416W        W23696  11.369   9.525  13.661  0.1217 -0.0841  0.0235
 3417W        W23697  10.699  17.496  12.469  0.2318 -0.0052 -0.0877
 3418W        W23698   8.188   2.370   2.940  0.1632  0.0416 -0.4060
 3419W        W23699   7.263   1.565  11.000  0.1243 -0.0139 -0.0591
 3420W        W23700  12.499  14.381   3.596  0.2332  0.4512  0.2805
 3421W        W23701  16.615  11.282  14.086 -0.0510 -0.2336 -0.4098
 3422W        W23702   2.001  15.402   1.097 -0.2777 -0.1635 -0.0258
 3423W        W23703   6.308  12.058  11.949  0.1388  0.0501  0.1106
 3424W        W23704  10.056   6.412   0.603 -0.0703 -0.1755  0.1759
 3425W        W23705  10.898  11.274  12.866  0.0985  0.0232  0.1184
 3426W        W23706  15.336  17.525  14.881  0.0830 -0.3807 -0.2121
 3427W        W23707  10.304  15.814  11.002 -0.0801 -0.2424 -0.1157
 3428W        W23708   0.117  10.909  14.145  0.1598  0.4023 -0.3654
 3429W        W23709   0.826  11.079   1.263 -0.1398  0.2725 -0.0767
 3430W        W23710  17.910  15.704  11.517  0.3348 -0.0215  0.0437
 3431W        W23711   3.045   0.875  11.617 -0.3892  0.3730 -0.0934
 3432W        W23712  10.790  13.906   0.765  0.4010 -0.1053 -0.3621
 3433W        W23713  17.412  15.143   2.533 -0.3383 -0.3252  0.0713
 3434W        W23714  12.435   4.650   2.559 -0.3375 -0.1548  0.0997
 3435W        W23715  16.012   8.186  14.278 -0.0165 -0.0815 -0.1046
 3436W        W23716  18.295   9.824   2.911  0.1904 -0.0048 -0.0197
 3437W        W23717  13.379   7.902   3.231 -0.1770 -0.2305  0.2827
 3438W        W23718   8.108   0.722   4.151 -0.2346  0.0136  0.2363
 3439W        W23719  16.484   0.963   0.905  0.2539 -0.0923  0.0409
 3440W        W23720  13.375   4.614   0.304  0.1417 -0.0707  0.0655
 3441W        W23721  18.539  11.253  13.814  0.1605  0.2903  0.2963
 3442W        W23722   8.788  16.150   2.804 -0.1452  0.0423 -0.0581
 3443W        W23723   9.466   3.698   0.254 -0.0537 -0.0817 -0.2791
 3444W        W23724   9.115   7.087   2.933 -0.2454 -0.0447 -0.0186
 3445W        W23725  12.803   9.727  15.381 -0.1082  0.0317 -0.0510
 3446W        W23726  18.087  15.917  13.322 -0.1891  0.2000 -0.2985
 3447W        W23727   2.083   6.434   3.221  0.1631  0.0614 -0.1272
 3448W        W23728  16.395  13.030  12.245  0.3938 -0.1410  0.0578
 3449W        W23729   3.616   8.315   3.766  0.1200 -0.0025  0.1920
 3450W        W23730   7.688  15.530   3.340  0.1122 -0.0761  0.0342
 3451W        W23731  11.006   4.444   2.794  0.0353  0.1494  0.0572
 3452W        W23732  16.079   0.445   4.267 -0.0743 -0.0338  0.2711
 3453W        W23733   6.551  14.213  11.975  0.0247  0.2105  0.1872
 3454W        W23734  17.769   5.780   2.004  0.2659 -0.0691 -0.0549
 3455W        W23735   7.280  17.277   3.828  0.0653 -0.0200  0.0707
 3456W        W23736   6.826  13.165   5.261 -0.1119  0.0663 -0.0509
 3457W        W23737  12.018  17.833   0.897 -0.1374  0.1843  0.2389
 3458W        W23738   1.654   0.971   3.160 -0.4208  0.2002 -0.0675
 3459W        W23739   7.929   7.320  10.955  0.2682  0.1541 -0.0049
 3460W        W23740  18.285  15.226  14.036  0.2374 -0.2790  0.1330
 3461W        W23741   6.231  14.776   3.147  0.1456 -0.3321 -0.2640
 3462W        W23742   9.061   0.357  13.543  0.0114  0.4544 -0.2511
 3463W        W23743  16.663   1.901   2.177  0.0731  0.1251 -0.4423
 3464W        W23744   4.603   1.939  11.644  0.0819 -0.0777  0.1242
 3465W        W23745  16.346   2.463   0.102  0.1704 -0.1356 -0.1234
 3466W        W23746  17.595  10.325  11.170 -0.2461  0.1830 -0.0521
 3467W        W23747   8.758  15.821  14.414  0.2931  0.1676  0.1454
 3468W        W23748  10.942  17.986  14.500 -0.1759 -0.2393  0.0030
 3469W        W23749  18.021   9.893  12.790  0.1107  0.0139  0.2119
 3470W        W23750   6.796  18.559  14.304  0.1605 -0.1952 -0.3330
 3471W        W23751  17.652   3.667  11.220  0.0087 -0.3426  0.0011
 3472W        W23752  11.073   5.033  14.783 -0.2289 -0.2112  0.0383
 3473W        W23753  14.627  16.008  11.703 -0.2884 -0.0618 -0.0647
 3474W        W23754   8.848   4.947   2.298 -0.0695 -0.0166  0.1686
 3475W        W23755   2.203  13.159  14.173  0.0412 -0.0891  0.1968
 3476W        W23756  14.484  17.335   4.332  0.1110  0.0964 -0.3387
 3477W        W23757   5.560   3.660  14.016  0.0617  0.0101 -0.0194
 3478W        W23758   1.261   4.514   2.914  0.0907  0.4131  0.4093
 3479W        W23759  14.023  14.021   2.049  0.0862 -0.2058 -0.0890
 3480W        W23760   0.736  10.164   3.012 -0.1156 -0.0357 -0.2539
 3481W        W23761   9.358  12.326   3.638 -0.0818  0.1900 -0.1756
 3482W        W23762   0.992   1.139   2.466  0.2059 -0.1851 -0.0352
 3483W        W23763   0.779  15.600  12.930  0.0431 -0.1592  0.3608
 3484W        W23764   8.162   5.819   0.705  0.1338 -0.3575 -0.1069
 3485W        W23765  18.635  17.978  14.346 -0.1661 -0.2152 -0.0480
 3486W        W23766  13.112   2.789   2.330  0.0283 -0.0379 -0.3366
 3487W        W23767   8.466  13.515  11.254  0.0504  0.3694 -0.0254
 3488W        W23768  14.482  17.093  14.557  0.0684  0.1401  0.0238
 3489W        W23769  13.070  12.505   0.533  0.0357 -0.0448  0.1243
 3490W        W23770   6.881   8.293  13.507 -0.3186  0.0111  0.0310
 3491W        W23771  15.686   7.447   1.862  0.0128 -0.1113  0.1697
 3492W        W23772   0.522  10.437  10.556  0.2244 -0.1361  0.2408
 3493W        W23773  17.919   2.647   2.655  0.0708  0.0903  0.1098
 3494W        W23774   7.103  16.966   4.266 -0.0247 -0.0765  0.1158
 3495W        W23775   1.376  16.978   1.165 -0.1184 -0.3000 -0.2135
 3496W        W23776   7.091  14.657   3.517 -0.0298  0.4135 -0.1299
 3497W        W23777   7.861   1.477   0.881  0.0788 -0.2922  0.1728
 3498W        W23778  13.780   7.181   0.496 -0.0364  0.0165 -0.2168
 3499W        W23779  15.166   9.087   3.922 -0.0334 -0.1679 -0.0052
 3500W        W23780   3.445  10.555   3.174 -0.2375 -0.0035 -0.3735
 3501W        W23781   3.564   3.971  12.159 -0.1392  0.1702 -0.0640
 3502W        W23782  12.217   4.581  11.096  0.0219  0.2412  0.2128
 3503W        W23783  17.036   2.518   1.610 -0.4161  0.1819  0.1963
 3504W        W23784   0.823   3.930   1.769  0.1613  0.0162 -0.1374
 3505W        W23785   1.646   9.163   4.241  0.0395  0.0563 -0.1167
 3506W        W23786   7.161   9.110   4.548 -0.3214  0.0926  0.0782
 3507W        W23787   2.899  13.986   0.870  0.3358  0.1254  0.2217
 3508W        W23788  11.448   5.162   2.488 -0.0774  0.0651  0.3370
 3509W        W23789   9.384   5.992   3.250 -0.0261 -0.0644 -0.0457
 3510W        W23790   1.125  15.057  15.317 -0.2075  0.0437  0.2774
 3511W        W23791   0.274  12.260  12.819 -0.1268 -0.2726 -0.0007
 3512W        W23792  17.831   1.408  15.122 -0.0461 -0.0811  0.0159
 3513W        W23793  12.128   1.542   4.176 -0.0906 -0.0330 -0.0592
 3514W        W23794   9.124  14.717  12.318  0.1127 -0.2733 -0.0604
 3515W        W23795   7.941   9.650   1.180 -0.2467  0.0175  0.0430
 3516W        W23796   8.271   9.292   3.326 -0.1897 -0.1748 -0.1344
 3517W        W23797  14.077  11.141  12.421 -0.0415  0.0635 -0.1060
 3518W        W23798   4.692   0.826  12.024 -0.1543  0.0272 -0.1257
 3519W        W23799   3.348  12.559  13.517  0.2484  0.1517  0.2443
 3520W        W23800   5.190   1.134   1.078 -0.0788 -0.1396  0.1685
 3521W        W23801   0.035   2.257   2.337 -0.4930  0.0158  0.0232
 3522W        W23802   5.842   0.683  12.417 -0.0457 -0.1249  0.2891
 3523W        W23803   5.571  11.193   1.158 -0.0634 -0.0685  0.1668
 3524W        W23804  10.745   2.628   1.305  0.1127  0.0830  0.0736
 3525W        W23805  11.387   9.488  11.755 -0.4297 -0.1207 -0.0471
 3526W        W23806   1.261   7.403  14.331 -0.0934 -0.0496  0.0221
 3527W        W23807   2.805   0.789   1.433  0.3391 -0.1673 -0.4728
 3528W        W23808  18.299  13.961  11.400  0.0453  0.0580  0.1221
 3529W        W23809  17.875   4.833  14.141  0.1665 -0.1279  0.1163
 3530W        W23810  16.170  15.837   4.012  0.1627 -0.0514  0.1450
 3531W        W23811   1.245   5.694  11.484  0.0696  0.2549  0.1163
 3532W        W23812   6.348  11.736   3.543 -0.0553 -0.1064 -0.1429
 3533W        W23813  13.834  17.709   0.647  0.2858  0.1958 -0.1829
 3534W        W23814  16.259  11.646  11.679  0.1199 -0.3020 -0.0448
 3535W        W23815   2.395  14.871  15.365 -0.0840 -0.1859  0.2010
 3536W        W23816   2.380   4.461  11.178 -0.3440  0.0169  0.1960
 3537W        W23817   1.946  13.911   0.824 -0.0159 -0.1208  0.1076
 3538W        W23818   8.956  17.215   3.931  0.4880 -0.0945  0.2109
 3539W        W23819  17.856   4.768   5.076 -0.1468 -0.0191  0.0718
 3540W        W23820  13.697   2.779   2.132  0.1071 -0.0919  0.0650
 3541W        W23821  14.387   4.245   3.650  0.0203  0.1480  0.0562
 3542W        W23822   5.115   2.824   3.279 -0.0316 -0.1188  0.3349
 3543W        W23823  16.918   8.887   3.196 -0.0642 -0.2033 -0.2033
 3544W        W23824   0.634  15.925   3.362  0.0237 -0.2996 -0.1223
 3545W        W23825   9.684  12.843  11.613 -0.1615  0.1072  0.1286
 3546W        W23826   4.716  17.758   0.289  0.1328 -0.2747  0.3268
 3547W        W23827   4.373  16.379  12.517 -0.0729 -0.0040 -0.0973
 3548W        W23828  16.489   4.277   2.081 -0.0435 -0.2492  0.0317
 3549W        W23829  17.699   0.532   1.857 -0.0282 -0.2010  0.0663
 3550W        W23830   6.213   3.022  13.867  0.0074  0.2239 -0.0740
 3551W        W23831  13.810  10.217  12.174 -0.2360 -0.0661  0.1702
 3552W        W23832  13.023   5.952  13.438 -0.3091  0.1507 -0.1764
 3553W        W23833   1.512   5.533  14.822 -0.0634 -0.0760 -0.2147
 3554W        W23834   9.678  15.339  11.690 -0.1947  0.3055  0.0543
 3555W        W23835  15.555   5.329   0.111  0.2076  0.0749  0.2483
 3556W        W23836  18.289  16.283   2.521 -0.2577 -0.5731  0.1119
 3557W        W23837  18.404  12.776   1.824  0.0260  0.1825 -0.1348
 3558W        W23838  10.110   0.561  14.354  0.0110  0.2268 -0.0269
 3559W        W23839   5.951  14.180  13.199  0.0723 -0.2147  0.2589
 3560W        W23840   2.635   9.625   4.113 -0.1880  0.1075 -0.0191
 3561W        W23841   1.665  16.127  11.957 -0.1894  0.1952 -0.2282
 3562W        W23842  15.714  12.207  14.549  0.0473 -0.1381 -0.0758
 3563W        W23843   1.260   7.075   3.849 -0.2569  0.1178 -0.2607
 3564W        W23844  14.992  13.602   3.117 -0.3487  0.0799  0.0485
 3565W        W23845   9.943   5.542  12.749  0.0756  0.0916 -0.2510
 3566W        W23846  16.092  14.765   3.811  0.1791 -0.0121  0.2328
 3567W        W23847  17.725  15.679   0.932  0.1044  0.1409 -0.0219
 3568W        W23848   0.063   0.759   1.241 -0.1370  0.0046  0.0560
 3569W        W23849  13.053  18.024   3.540  0.1490  0.1002 -0.2099
 3570W        W23850  15.352   7.708  14.823 -0.0063 -0.2416 -0.0126
 3571W        W23851   5.314   5.944  12.662  0.1428  0.1652  0.2518
 3572W        W23852   2.152   1.052  14.738  0.0189  0.2698 -0.1553
 3573W        W23853   9.051   3.589   1.594 -0.0682  0.2155  0.0704
 3574W        W23854   0.437   4.847   1.910 -0.3815  0.1104 -0.0535
 3575W        W23855   1.356  11.443  13.159  0.2664  0.2995  0.0704
 3576W        W23856  13.525   2.774  15.337 -0.2587  0.0325  0.0904
 3577W        W23857  15.243   3.006  13.236  0.0606 -0.2168 -0.0932
 3578W        W23858   0.617  17.566   1.413  0.0990  0.1479  0.0401
 3579W        W23859  14.316  17.748  13.362  0.2570  0.2296  0.0881
 3580W        W23860   2.077   8.781   9.827  0.0187 -0.2042 -0.1132
 3581W        W23861   5.122   3.855  14.444 -0.0431  0.1214  0.3668
 3582W        W23862  15.775   0.152  12.636  0.0208 -0.4637  0.0349
 3583W        W23863  17.450  12.841  11.591 -0.1521 -0.1101  0.3004
 3584W        W23864  17.063  15.267   0.005  0.1547 -0.0202 -0.1740
 3585W        W23865  15.537  17.262  15.393 -0.3860 -0.3022  0.0275
 3586W        W23866  10.118  14.216   0.195  0.3775 -0.3014  0.2564
 3587W        W23867   9.884  16.394   3.265 -0.1072 -0.0563  0.0521
 3588W        W23868   3.972   8.029  13.258 -0.1992  0.0882  0.0359
 3589W        W23869   6.128  10.873  14.886 -0.6130 -0.0494  0.1796
 3590W        W23870   2.349   0.201   0.915  0.0414  0.1322 -0.2568
 3591W        W23871   4.801   2.554  13.752 -0.0552 -0.0959 -0.0393
 3592W        W23872   9.985  13.173  11.708  0.0631  0.0358 -0.1406
 3593W        W23873  13.800  13.060   4.954  0.1307 -0.0074  0.0116
 3594W        W23874  16.519  10.596   0.810 -0.1845 -0.0597 -0.0369
 3595W        W23875   9.572   2.292   3.829  0.0101  0.1033  0.0278
 3596W        W23876  17.516  12.988   2.229 -0.0173 -0.2301  0.2268
 3597W        W23877   0.649   3.826   0.691  0.0558 -0.1025  0.1759
 3598W        W23878   3.618   4.207  11.729  0.0375 -0.3117  0.0166
 3599W        W23879   0.220  10.939   1.484 -0.2253  0.2715 -0.1485
 3600W        W23880  11.734  16.731  12.712  0.2776  0.0975  0.0255
 3601W        W23881   9.957  18.393   1.209  0.1918  0.4564  0.1348
 3602W        W23882  16.973   1.546   2.030 -0.0646 -0.1501 -0.0623
 3603W        W23883  17.534   3.960   9.941  0.3224 -0.0124  0.2712
 3604W        W23884   4.249   5.780   3.857 -0.0830 -0.1459  0.2573
 3605W        W23885  17.085   4.185   0.339 -0.1323 -0.2662 -0.0031
 3606W        W23886   3.605  13.259  11.413 -0.1780  0.0251 -0.3638
 3607W        W23887  14.153  12.566   3.452 -0.0479  0.0367 -0.0964
 3608W        W23888  17.872   4.046  14.397 -0.0107  0.0860 -0.2830
 3609W        W23889   5.488   3.129   2.617 -0.0418 -0.3667 -0.0421
 3610W        W23890   8.769   8.550   2.817  0.0691  0.0667 -0.0260
 3611W        W23891  16.121   1.769  12.666  0.0821  0.1892  0.1499
 3612W        W23892   6.390  13.352  11.424  0.0459  0.1145 -0.0824
 3613W        W23893   1.971  17.118   3.223 -0.1596 -0.0756  0.0864
 3614W        W23894  15.064   1.847   4.084 -0.1497 -0.1045  0.0633
 3615W        W23895  16.264   2.434   0.602 -0.0755  0.1216  0.0862
 3616W        W23896   0.622  18.613  13.262  0.0893 -0.0706  0.0011
 3617W        W23897  10.001   5.969   2.699 -0.1038 -0.0195  0.1589
 3618W        W23898   0.346  10.590   1.962 -0.1614 -0.1901 -0.0100
 3619W        W23899   5.185  10.646  11.991  0.0611 -0.2590 -0.1151
 3620W        W23900   6.801   1.363  11.249 -0.0673  0.5304 -0.0443
 3621W        W23901   4.861   4.693  11.496 -0.0149  0.2986  0.3108
 3622W        W23902   1.456   5.261  15.259  0.0044  0.0549  0.1931
 3623W        W23903  11.839  14.558   4.297  0.0845 -0.0954 -0.0292
 3624W        W23904   5.303   4.230   4.037  0.1508  0.1937 -0.1997
 3625W        W23905  13.296   1.265  11.702 -0.0060 -0.0090  0.1139
 3626W        W23906  11.646   7.421  14.553  0.3084 -0.0067  0.1702
 3627W        W23907  10.833   3.408   2.772 -0.0879 -0.0668 -0.1493
 3628W        W23908   7.678   7.074   5.020  0.0005  0.0671  0.2177
 3629W        W23909   5.154   9.777   2.077  0.1172  0.2333 -0.2694
 3630W        W23910  11.045  17.623   2.647 -0.0994 -0.0212 -0.1645
 3631W        W23911   7.414   3.483  12.527  0.4510  0.3913  0.0775
 3632W        W23912  17.929   3.001   3.748  0.0761 -0.0581 -0.0568
 3633W        W23913   0.510  16.343  11.921 -0.1158  0.0691  0.1447
 3634W        W23914   6.512  18.232  14.524 -0.1286  0.2196  0.2509
 3635W        W23915  11.681   3.195   2.520 -0.1546  0.3236  0.1165
 3636W        W23916   3.724  12.595   0.501 -0.0561 -0.1255 -0.0330
 3637W        W23917  10.763   8.964   4.549  0.3047  0.1405  0.1718
 3638W        W23918  18.004   3.208   1.727  0.4277 -0.0414 -0.1994
 3639W        W23919   4.478   1.591   5.171  0.2823 -0.0380  0.0676
 3640W        W23920   5.123  11.331  10.506 -0.5165  0.2040  0.0760
 3641W        W23921   2.140   2.070   2.112 -0.0612  0.0233  0.1326
 3642W        W23922   4.725   1.331   2.274  0.3918  0.0223 -0.0310
 3643W        W23923  15.346  16.810   0.120  0.0939  0.0544 -0.2607
 3644W        W23924  16.045  14.421   1.109 -0.0888 -0.0891 -0.1601
 3645W        W23925  16.733  10.416  15.244  0.3275  0.0227 -0.0368
 3646W        W23926  16.880   4.469  12.422  0.2009 -0.3611 -0.0353
 3647W        W23927   4.885   5.084   2.834 -0.0371  0.1674 -0.3685
 3648W        W23928   6.258  14.104   3.023  0.0735 -0.1178  0.0833
 3649W        W23929  12.671   7.263   1.007  0.5169 -0.1403  0.4571
 3650W        W23930  18.433  11.219   4.453 -0.0996 -0.4130  0.0468
 3651W        W23931  16.638   0.815   2.434  0.1945  0.2359 -0.2342
 3652W        W23932   0.734   5.990   2.166  0.0730  0.1356  0.3737
 3653W        W23933   2.444  16.957   0.020 -0.1705 -0.0257  0.1134
 3654W        W23934  14.823   4.074   1.021 -0.1239 -0.0813  0.2918
 3655W        W23935   5.324   8.212  14.368  0.2013  0.0081  0.1275
 3656W        W23936   9.380   5.920  13.388  0.0624 -0.0710 -0.0299
 3657W        W23937  16.401   1.518   0.294  0.0450 -0.1572  0.0176
 3658W        W23938  15.161  12.173  13.047 -0.0294  0.0532 -0.0081
 3659W        W23939   9.562   4.178  12.765 -0.2559  0.0730 -0.1721
 3660W        W23940   9.870  18.092  14.413  0.1065  0.4093 -0.2712
 3661W        W23941  17.198  11.547  15.050  0.1327  0.0431  0.3771
 3662W        W23942   4.451  11.231   0.576 -0.1315  0.2496 -0.1832
 3663W        W23943   9.044  12.936   0.778  0.0581  0.0093 -0.0270
 3664W        W23944   5.673  11.581  14.224  0.2049  0.2762  0.3184
 3665W        W23945   4.552   6.940  12.469  0.0287 -0.0963 -0.1561
 3666W        W23946  13.297   1.334  10.544 -0.0136  0.3900 -0.0053
 3667W        W23947  15.862  18.202  14.093 -0.1838  0.1958  0.1623
 3668W        W23948   9.041   0.518   2.679 -0.0576  0.2515  0.3648
 3669W        W23949   2.757  16.259  13.330 -0.1898 -0.0073  0.2239
 3670W        W23950  14.466   2.947   1.271 -0.1474 -0.0965  0.0526
 3671W        W23951   7.926   6.875  11.260 -0.3030 -0.2190  0.1503
 3672W        W23952  12.838   1.992  13.619  0.0350  0.1768 -0.2216
 3673W        W23953  17.701  18.412  12.868 -0.0098 -0.2953 -0.3263
 3674W        W23954   3.017  10.750   4.609 -0.1666 -0.0768  0.0700
 3675W        W23955   6.086  11.366  11.638  0.0851 -0.0151 -0.0195
 3676W        W23956   7.942  10.271   4.423  0.2600  0.2020 -0.1823
 3677W        W23957  17.191  14.876   2.057 -0.1815  0.1485  0.3016
 3678W        W23958   3.089   8.456   3.541  0.1561  0.4807 -0.2305
 3679W        W23959   7.278  11.928  11.747 -0.2022  0.0424  0.3289
 3680W        W23960   9.583   7.312  13.283  0.2987 -0.0658 -0.2008
 3681W        W23961  12.993   7.453   4.524  0.0970 -0.2320 -0.2478
 3682W        W23962  15.462   0.055   2.856  0.0077 -0.0411 -0.0081
 3683W        W23963  12.249   0.967   4.052 -0.0990  0.0961  0.0902
 3684W        W23964  12.700   5.196  15.310 -0.0243  0.0037  0.0401
 3685W        W23965   1.470  10.856   3.036  0.1420  0.0846 -0.1086
 3686W        W23966  16.406  12.135   2.137  0.3862  0.1079  0.1546
 3687W        W23967   6.207  15.571   2.123  0.2104  0.2268 -0.1248
 3688W        W23968  17.452   5.411  10.174 -0.0404 -0.2242  0.1216
 3689W        W23969  18.492   0.702   4.036 -0.1521  0.3473 -0.0808
 3690W        W23970   4.494   2.085  11.137 -0.0536 -0.2888  0.0811
 3691W        W23971  16.121   3.615  14.581  0.1420  0.1521  0.3877
 3692W        W23972  15.880   3.068  13.274 -0.0476  0.1690  0.2215
 3693W        W23973   8.413   9.073  12.730  0.4000 -0.0828 -0.1268
 3694W        W23974  14.161  16.401  11.027  0.0062 -0.2665  0.0199
 3695W        W23975  15.554  10.051  14.572 -0.0599 -0.0576  0.0964
 3696W        W23976  11.496  13.628  11.217 -0.3597  0.0951  0.1888
 3697W        W23977  16.939   4.041  13.158 -0.1026  0.0508  0.0710
 3698W        W23978  12.189   5.549   4.065 -0.2575 -0.2525 -0.1505
 3699W        W23979   8.192  10.516   0.672 -0.0425  0.1045 -0.0007
 3700W        W23980   3.318   2.618  14.138 -0.0303  0.1396 -0.0601
 3701W        W23981  11.021   9.826  11.755  0.2668  0.2363  0.1188
 3702W        W23982  15.722   0.435  10.873  0.1372  0.0188 -0.3029
 3703W        W23983   1.407  11.912   0.465 -0.0266 -0.1090 -0.3958
 3704W        W23984  17.206   5.372  14.265  0.2457 -0.0058 -0.2306
 3705W        W23985   0.689   6.931  15.292 -0.0983 -0.1712 -0.0439
 3706W        W23986   6.875   7.508  12.975  0.0160 -0.2880 -0.0479
 3707W        W23987  11.104  11.287  15.005  0.2006 -0.2459 -0.0617
 3708W        W23988   9.042   4.867  14.913 -0.0109 -0.1202 -0.0754
 3709W        W23989  18.678  14.906   2.161 -0.2866  0.0264 -0.2064
 3710W        W23990   1.401  16.961   3.964  0.0143  0.0033 -0.1148
 3711W        W23991   3.474   1.322  15.265 -0.2215  0.0684 -0.1001
 3712W        W23992   3.857  14.964  13.097 -0.1348  0.3661  0.0298
 3713W        W23993  11.145   7.564  14.727 -0.0343 -0.0322 -0.2531
 3714W        W23994   7.072   9.930   1.150 -0.1003 -0.0850 -0.0407
 3715W        W23995  10.119  10.222  11.619  0.0162  0.1362  0.1735
 3716W        W23996   4.343  16.803  12.827 -0.0834  0.0740 -0.0300
 3717W        W23997  18.575   8.839   1.392  0.1163 -0.1463 -0.7349
 3718W        W23998   9.947   8.738  11.664 -0.1532 -0.1015 -0.0117
 3719W        W23999  13.839   7.303   1.819 -0.3109  0.2191 -0.1669
 3720W        W24000  10.748  13.092  14.223  0.1937  0.0887 -0.1167
 3721W        W24001   9.269   6.912   3.530  0.0613  0.0954 -0.0006
 3722W        W24002   4.107   4.257  11.757  0.1234  0.0577  0.0845
 3723W        W24003  10.205  15.873  11.560  0.1832 -0.0857  0.0462
 3724W        W24004   7.355   6.472   0.338  0.2265  0.0480  0.1011
 3725W        W24005  11.088  16.743  11.291  0.0513  0.3031 -0.1019
 3726W        W24006   3.473  13.352   0.592  0.0409 -0.2911 -0.3206
 3727W        W24007  17.747   4.323   4.300  0.1250 -0.2691  0.0448
 3728W        W24008  11.018  11.825   3.831  0.0782 -0.0778 -0.0697
 3729W        W24009   0.989   4.325  11.586  0.0377 -0.0814  0.3428
 3730W        W24010  11.384  17.611  14.481 -0.2101 -0.0578 -0.1116
 3731W        W24011   2.567  15.096  10.744  0.0877 -0.1699 -0.3624
 3732W        W24012   1.017  17.515   4.042  0.2758 -0.0122  0.1049
 3733W        W24013  10.061   7.262   2.427  0.0762  0.2580  0.0665
 3734W        W24014  12.834  17.967   1.483  0.0649  0.3847 -0.1254
 3735W        W24015   4.450   4.842   3.516 -0.0023  0.2580 -0.0135
 3736W        W24016   4.195  17.912  12.821 -0.0628 -0.1212 -0.2216
 3737W        W24017   9.630  18.670  14.662 -0.2259  0.0180  0.1932
 3738W        W24018   4.930  16.309  12.870 -0.1071 -0.0691  0.0978
 3739W        W24019  11.979  13.270  14.119 -0.0014 -0.0677  0.1260
 3740W        W24020  17.990   8.916   0.543  0.1656 -0.0109 -0.1640
 3741W        W24021   0.910  11.997   2.775 -0.0104  0.1342 -0.0166
 3742W        W24022  12.102  11.572  12.326 -0.0940 -0.1481 -0.0814
 3743W        W24023  11.392  12.378   0.135 -0.1120  0.5275 -0.0744
 3744W        W24024   1.604   7.722   2.088  0.2561  0.0068 -0.1380
 3745W        W24025  13.380  13.234  14.704  0.1887  0.1152 -0.0054
 3746W        W24026  17.366   8.679   4.674  0.0270  0.4182 -0.0002
 3747W        W24027   8.837   8.798   1.738 -0.0313  0.1309 -0.0397
 3748W        W24028   4.487   0.701   2.852  0.3983 -0.4570 -0.0189
 3749W        W24029   4.274  15.299   3.237 -0.1407 -0.0261 -0.0381
 3750W        W24030   7.351  10.195  11.765  0.0039  0.2912 -0.0900
 3751W        W24031   9.751  17.251   3.749 -0.1390  0.0367 -0.0001
 3752W        W24032   6.829   5.291  12.341  0.2595  0.2682 -0.1804
 3753W        W24033  13.956  13.714   3.343 -0.0495  0.0716  0.1302
 3754W        W24034  11.939   3.845   3.457 -0.2202 -0.4625  0.1518
 3755W        W24035  11.516  10.893   2.772  0.1233 -0.1673  0.1349
 3756W        W24036   7.252   6.331  11.041 -0.1646 -0.1861 -0.2149
 3757W        W24037  12.272  13.646   0.668 -0.1440  0.2081  0.3302
 3758W        W24038  11.639   3.608   4.927  0.0841 -0.0078  0.2238
 3759W        W24039  10.307   2.624   4.581 -0.2624 -0.1652  0.2009
 3760W        W24040  18.448  15.509   3.423  0.0252  0.2971  0.0875
 3761W        W24041  18.557   7.045  10.851  0.2000  0.0196  0.0202
 3762W        W24042   1.443   6.629   2.473  0.0325  0.1058 -0.2273
 3763W        W24043  17.570  17.098   2.601  0.0689  0.0702  0.1343
 3764W        W24044  16.142  10.983   1.528  0.2569 -0.0374 -0.0989
 3765W        W24045  15.806   2.724   0.780 -0.1608 -0.0164  0.2600
 3766W        W24046   7.554   8.443  14.562 -0.1792  0.1845 -0.0209
 3767W        W24047   8.504   9.451   1.398  0.0651 -0.0747 -0.3100
 3768W        W24048  15.329  16.876   4.247  0.3243  0.2563 -0.0756
 3769W        W24049  11.374  11.095  12.669 -0.1886  0.2451  0.1685
 3770W        W24050   6.587   2.748   0.724 -0.1890  0.1813  0.1476
 3771W        W24051   4.546   0.826  15.332 -0.1173  0.1066  0.0223
 3772W        W24052   1.516  14.416   0.846  0.1298 -0.0777  0.1198
 3773W        W24053   0.945   2.598  15.192 -0.1809  0.0701  0.0073
 3774W        W24054  12.372  13.087   3.587  0.0045  0.0372  0.2114
 3775W        W24055  14.179  15.964   4.310  0.1054  0.2872 -0.1545
 3776W        W24056   5.521  10.069   2.213 -0.2705  0.0778 -0.3705
 3777W        W24057  15.392   8.695   3.682 -0.0826  0.2136 -0.1615
 3778W        W24058   7.766  16.881   0.477  0.0647  0.1200  0.1039
 3779W        W24059   5.443   1.908  12.848 -0.0963 -0.1672  0.0461
 3780W        W24060   7.746   2.510   2.499 -0.2403  0.3565 -0.1847
 3781W        W24061  18.088  12.772   3.767  0.0990  0.1170  0.1534
 3782W        W24062  17.348  15.210   4.196 -0.1744 -0.0510  0.1734
 3783W        W24063   8.691   8.739  13.517 -0.0168 -0.0734 -0.0723
 3784W        W24064   1.518   9.118  12.049  0.3353 -0.0410 -0.0126
 3785W        W24065  14.090  15.154   1.025 -0.1276 -0.0476  0.3351
 3786W        W24066   8.718  16.941  14.446 -0.0994  0.0506 -0.2082
 3787W        W24067   3.065  11.604  13.670  0.0319  0.0877  0.1463
 3788W        W24068   8.972   4.703   3.457 -0.0282 -0.1022 -0.1548
 3789W        W24069   1.476  10.286   2.897 -0.0412 -0.3427 -0.1084
 3790W        W24070  10.686  13.411   1.581 -0.2206 -0.1867 -0.2716
 3791W        W24071   9.116   9.726   4.601  0.1248  0.2741 -0.0758
 3792W        W24072  15.142   9.313   3.075  0.0550  0.0528 -0.0363
 3793W        W24073  15.263   9.470   3.627  0.0738 -0.0243  0.0894
 3794W        W24074  16.874  18.403  14.606  0.0501  0.3529 -0.0165
 3795W        W24075  13.559  12.119   0.523  0.3801  0.0947  0.3962
 3796W        W24076  12.439   1.896  14.050 -0.1653 -0.0006 -0.1383
 3797W        W24077  10.366  18.722  12.339 -0.2002 -0.0363  0.1645
 3798W        W24078  10.737   4.490   0.662  0.2468  0.2643  0.0089
 3799W        W24079   2.767  14.997  11.878 -0.0345  0.1064 -0.0006
 3800W        W24080   4.474   0.423  14.931 -0.0299  0.0218 -0.1952
 3801W        W24081   7.755   6.047  11.551 -0.3096 -0.0667  0.2692
 3802W        W24082  11.830   7.272  14.997  0.0361  0.1931  0.1914
 3803W        W24083  12.739  16.230  10.126 -0.1115  0.1822  0.3714
 3804W        W24084   3.110   5.943   0.924 -0.1055 -0.0097 -0.0469
 3805W        W24085   0.149   8.271   1.752 -0.1154  0.0156 -0.1223
 3806W        W24086  11.548   2.434   0.908 -0.3363  0.1807 -0.0549
 3807W        W24087  16.267   6.058   2.964  0.1005  0.0456  0.1679
 3808W        W24088  18.336  17.400  15.289  0.1614 -0.2604 -0.2433
 3809W        W24089  10.721  13.484   2.068 -0.0437 -0.1043 -0.2138
 3810W        W24090  13.189  15.288  11.807  0.0473  0.2775  0.1330
 3811W        W24091   3.526   3.495  15.364 -0.3445  0.1240 -0.0203
 3812W        W24092  15.853   2.451   0.292  0.1536 -0.1369 -0.1292
 3813W        W24093   2.940   5.203  13.034  0.1008  0.2766 -0.3442
 3814W        W24094  12.269  12.370  13.038 -0.1550  0.2173  0.1140
 3815W        W24095  10.587   4.211  14.176  0.0650 -0.0686  0.1788
 3816W        W24096  11.522   8.078   1.020 -0.0719 -0.2966 -0.0784
 3817W        W24097   4.555  11.829  15.190 -0.0347 -0.2729 -0.1570
 3818W        W24098   9.088  11.257   1.286 -0.3267 -0.0359  0.1441
 3819W        W24099  18.598  16.064  13.908 -0.1247 -0.0911  0.0053
 3820W        W24100   2.508   4.015   0.603 -0.1048 -0.1556 -0.1029
 3821W        W24101   2.361  12.082  14.397 -0.1432  0.1772 -0.2951
 3822W        W24102  10.166   7.559  13.771 -0.1155  0.3248 -0.0434
 3823W        W24103   1.470   9.159  13.576 -0.3054  0.1004 -0.0168
 3824W        W24104   4.231  15.692  13.991  0.2959 -0.0834 -0.1288
 3825W        W24105  15.285  11.730   3.597 -0.1683 -0.0252 -0.0608
 3826W        W24106  15.842  14.984  13.561 -0.0239  0.0568 -0.1489
 3827W        W24107   8.598  15.486  12.880  0.0164  0.1540 -0.1514
 3828W        W24108  18.279   0.490   1.055 -0.0549  0.0012 -0.0226
 3829W        W24109  18.507   5.003   4.369  0.1057  0.0618 -0.0127
 3830W        W24110  12.440   2.150  11.773 -0.4250 -0.3256  0.1167
 3831W        W24111   5.233  15.292  14.530  0.3720 -0.2514  0.2924
 3832W        W24112   9.026  17.427  11.299  0.4255 -0.4310  0.0254
 3833W        W24113  14.875  16.385  11.976 -0.0194 -0.2019  0.0966
 3834W        W24114   5.400  17.402  14.859 -0.2586 -0.2120 -0.2971
 3835W        W24115   5.234  10.452   3.826 -0.0275 -0.2130  0.0732
 3836W        W24116  13.649   8.372   1.115 -0.5790 -0.3034  0.0427
 3837W        W24117  10.785   9.571   0.103 -0.0428  0.1630  0.3479
 3838W        W24118   7.003  15.732  10.743 -0.0957  0.2865  0.1841
 3839W        W24119   0.963   3.059   1.766 -0.0428 -0.1445 -0.0079
 3840W        W24120   6.503   9.524  11.070 -0.2341  0.0465 -0.4780
 3841W        W24121   2.229   0.747   0.757 -0.1745 -0.0459  0.0294
 3842W        W24122   4.587   3.853  13.759 -0.0784 -0.0981 -0.1028
 3843W        W24123  13.475   0.070  14.843  0.0587 -0.0544  0.3028
 3844W        W24124  10.631  18.558  10.117 -0.1186  0.4319  0.1741
 3845W        W24125   6.283   0.882   2.311  0.2390 -0.0035  0.1084
 3846W        W24126  11.168  13.859   3.437 -0.4804 -0.1335  0.2213
 3847W        W24127  12.936  11.747  13.399 -0.1926 -0.1645 -0.4697
 3848W        W24128   0.965  14.425   3.946  0.2455  0.1080  0.4868
 3849W        W24129   4.320  11.517   2.771 -0.0019 -0.1137 -0.4502
 3850W        W24130   9.826  18.661   0.806 -0.2092  0.1159 -0.0576
 3851W        W24131   8.683  18.741   0.947 -0.3047  0.1692 -0.1252
 3852W        W24132  16.503  11.095   0.084 -0.3565  0.1384  0.0971
 3853W        W24133   1.377  11.973  13.185  0.1782 -0.2643  0.1588
 3854W        W24134   1.674  16.037  12.442  0.2188 -0.0400 -0.0667
 3855W        W24135  13.184  10.354   1.861  0.1403  0.1578 -0.3605
 3856W        W24136   9.013  10.758  10.287  0.1631 -0.1512  0.0683
 3857W        W24137  11.097   7.037  12.299  0.0343  0.0338  0.3530
 3858W        W24138   8.131   1.286  13.821 -0.1370  0.1448  0.2051
 3859W        W24139  15.840  14.579  12.015 -0.0348  0.2053  0.6391
 3860W        W24140  12.886   1.224   2.231  0.0844  0.0491 -0.0272
 3861W        W24141   3.561  13.380  15.081 -0.0149 -0.1355 -0.3708
 3862W        W24142   4.211  15.765   4.324 -0.1689  0.0352 -0.0007
 3863W        W24143   1.280  16.690  12.378  0.1988  0.0967  0.1972
 3864W        W24144   2.709  16.409   4.130 -0.2172 -0.1897 -0.0139
 3865W        W24145  12.885   3.734  12.932  0.2233  0.1574 -0.2954
 3866W        W24146   5.056  17.576  15.166 -0.1244 -0.1209 -0.1977
 3867W        W24147   0.383  16.239  11.266 -0.3372 -0.0270 -0.1003
 3868W        W24148  16.605  10.789   2.593 -0.0012  0.0562  0.0548
 3869W        W24149  17.342  15.870   2.684  0.0999 -0.6021 -0.1384
 3870W        W24150  13.029   2.748  15.201 -0.2189  0.2378 -0.1761
 3871W        W24151  15.833   3.474   0.140 -0.0835 -0.1735 -0.1399
 3872W        W24152  16.558   5.644   2.891 -0.0424 -0.0391 -0.0952
 3873W        W24153  15.644  13.938  12.918  0.1679  0.1581  0.0231
 3874W        W24154  18.381   8.214  13.085  0.0128  0.3502  0.1207
 3875W        W24155   9.827  13.842   0.573  0.0554  0.1558 -0.0646
 3876W        W24156   9.241  15.195   0.594 -0.0766 -0.0042 -0.0197
 3877W        W24157  14.916   2.504   1.980  0.2013 -0.0389 -0.0853
 3878W        W24158  13.979  17.893  13.050 -0.0287  0.0028  0.0612
 3879W        W24159  13.791  17.977  15.268  0.2069 -0.1176  0.1751
 3880W        W24160  14.874  15.672   3.849  0.0333  0.0759 -0.0770
 3881W        W24161   0.080  15.795   2.170 -0.1442 -0.1935 -0.2491
 3882W        W24162   5.668   1.671   2.555  0.1316 -0.1337 -0.0062
 3883W        W24163   4.170   6.648  13.034 -0.3457 -0.1710 -0.2925
 3884W        W24164   8.081  14.124   0.520  0.1194 -0.1955  0.0867
 3885W        W24165  16.153  11.837   1.107  0.0186 -0.0534 -0.1330
 3886W        W24166   7.774  17.754   4.363 -0.0485 -0.1495 -0.1693
 3887W        W24167   0.059  14.940   2.939  0.4770 -0.2393  0.1997
 3888W        W24168  16.315   3.656  10.741  0.4020 -0.0682  0.3913
 3889W        W24169   1.781   7.197  14.414  0.0593 -0.1622 -0.3673
 3890W        W24170  13.717  11.339   0.763  0.3691 -0.0388  0.1863
 3891W        W24171   8.986  12.165  11.382  0.0220  0.1080 -0.0792
 3892W        W24172  14.829   7.228  14.554  0.0225 -0.0856 -0.0193
 3893W        W24173   3.809   0.749  13.187  0.3390 -0.1104  0.2244
 3894W        W24174   5.755   7.029  14.620 -0.1984  0.0866  0.0398
 3895W        W24175   2.986   0.719  12.913  0.1923  0.3721 -0.2975
 3896W        W24176   5.630  10.445   4.990 -0.1168 -0.1343 -0.1815
 3897W        W24177  13.763   9.043  14.395 -0.0344 -0.0816  0.0266
 3898W        W24178  10.344   8.891   4.179  0.0038 -0.0564  0.3794
 3899W        W24179   1.711  14.340   3.429  0.0886 -0.0742  0.0072
 3900W        W24180   5.103  14.053  13.462 -0.4335 -0.0271  0.0592
 3901W        W24181   0.255   5.196  13.508  0.4468 -0.0133  0.0843
 3902W        W24182   6.694   4.908  11.375 -0.2710 -0.3726 -0.1549
 3903W        W24183  10.054   3.452   3.303  0.0381 -0.0022  0.0764
 3904W        W24184   5.571  15.977   3.529  0.1608 -0.2257 -0.1846
 3905W        W24185  14.697   8.238   1.385  0.2291 -0.2210  0.0724
 3906W        W24186  10.796   7.269  11.962  0.1191 -0.3930  0.0382
 3907W        W24187   5.013   9.047   3.490  0.0245 -0.3141  0.2369
 3908W        W24188  10.708   3.072   2.032 -0.1291  0.0300 -0.0892
 3909W        W24189  14.495  14.139  12.330 -0.1615 -0.0992  0.1292
 3910W        W24190   8.433  10.167   1.939  0.2588  0.1508 -0.2674
 3911W        W24191  13.181   8.001  11.692 -0.2952  0.0056 -0.3349
 3912W        W24192   6.062  10.853   1.007  0.1691  0.0433 -0.0696
 3913W        W24193  11.362   9.157   1.973  0.2635  0.0025 -0.0375
 3914W        W24194   8.760  13.069   1.206  0.4474  0.0630 -0.0661
 3915W        W24195   2.643  13.996  13.910 -0.2318  0.0081 -0.1044
 3916W        W24196  13.118   9.404   2.428  0.2635 -0.0018  0.2533
 3917W        W24197  13.577  13.031   1.217  0.1665  0.1645  0.0930
 3918W        W24198   4.903  13.468  13.674 -0.0936 -0.1362  0.2569
 3919W        W24199   6.085   3.811  13.050  0.0531 -0.0341  0.1347
 3920W        W24200  12.826  11.155   4.133 -0.2104  0.0589 -0.3487
 3921W        W24201  11.344   6.124  12.187 -0.1421 -0.3735 -0.1743
 3922W        W24202   9.379   1.004   3.607 -0.0009  0.1119 -0.2938
 3923W        W24203   8.195   5.770   1.314 -0.0582  0.0758 -0.3543
 3924W        W24204  11.467  13.951   0.316 -0.0598  0.0431  0.1642
 3925W        W24205   4.736  17.209   2.389  0.0493 -0.3754 -0.1913
 3926W        W24206  14.544   8.932   4.660  0.0437 -0.0950  0.1720
 3927W        W24207   0.076   9.236   0.101 -0.3969 -0.1769 -0.2026
 3928W        W24208  13.070  16.279   4.738 -0.0125 -0.0761  0.2416
 3929W        W24209   9.625  18.398   1.596 -0.0797  0.1060  0.3992
 3930W        W24210  12.326   2.577  14.374  0.0323  0.1119  0.0536
 3931W        W24211  12.943   5.471   0.248 -0.2325  0.1062  0.1940
 3932W        W24212   8.608  11.041   1.318 -0.1464 -0.0015 -0.0377
 3933W        W24213  16.574   1.449   2.411 -0.2410  0.0416  0.1250
 3934W        W24214  14.264   6.315   2.702  0.4236  0.1373 -0.4864
 3935W        W24215   9.730  12.102  13.948  0.3616  0.1099 -0.3265
 3936W        W24216  16.921  12.819  13.475 -0.1662 -0.2669 -0.0145
 3937W        W24217  15.120   5.931  11.868  0.0091 -0.0689 -0.1425
 3938W        W24218  12.406   3.315   4.097  0.3819 -0.2031  0.0830
 3939W        W24219   6.967   3.095   3.877  0.2503  0.1978 -0.0397
 3940W        W24220  11.545  17.447   3.987  0.2477  0.1480 -0.1723
 3941W        W24221   5.968  16.778   1.686  0.2730 -0.1283 -0.0314
 3942W        W24222   8.457   9.065   4.288 -0.0089 -0.0129 -0.1774
 3943W        W24223   4.808  11.268   2.764 -0.0820 -0.2278  0.1541
 3944W        W24224   5.774  13.387  11.160 -0.2824 -0.0904 -0.2983
 3945W        W24225   2.593  18.175  15.372 -0.0995 -0.2913 -0.0272
 3946W        W24226   0.880   1.039  15.204  0.0476 -0.1271  0.0708
 3947W        W24227   2.582  11.301   0.143 -0.0982 -0.1143  0.3206
 3948W        W24228   1.015   4.953   1.136 -0.0403 -0.0845  0.1532
 3949W        W24229   2.519  12.634   4.100  0.0075  0.0735  0.1255
 3950W        W24230  14.879   8.379  11.752 -0.2884 -0.0502  0.0680
 3951W        W24231   3.949  14.588  12.257  0.0139  0.0200  0.2163
 3952W        W24232   4.897  11.265   3.381 -0.0976  0.0712 -0.2282
 3953W        W24233   9.546   5.325   1.982  0.1434  0.1739  0.1747
 3954W        W24234  14.153  14.252  14.954 -0.1814  0.2830 -0.0702
 3955W        W24235   1.478   4.947   3.494  0.2997 -0.1414 -0.0521
 3956W        W24236   1.687  12.375  13.849  0.1638  0.1106 -0.0031
 3957W        W24237  12.533  11.659  12.010 -0.0142  0.1317  0.0972
 3958W        W24238   7.118   5.937  12.861 -0.2967 -0.2451  0.0958
 3959W        W24239  13.853   9.617   2.928  0.1525  0.2088 -0.0154
 3960W        W24240  10.144  17.203   0.232 -0.0364  0.4676  0.1635
 3961W        W24241  14.100  18.439   3.455  0.1805  0.0507  0.1439
 3962W        W24242  16.424   8.446   1.970 -0.1435 -0.1086  0.1948
 3963W        W24243   4.886   2.656   3.681 -0.0765  0.0680 -0.0320
 3964W        W24244  12.170  12.821  13.172  0.1750  0.0121  0.1989
 3965W        W24245   3.427  13.749  14.821  0.2381  0.1136 -0.0335
 3966W        W24246  12.016   4.185   0.781 -0.1515  0.2605  0.1257
 3967W        W24247  14.713  15.542  13.212 -0.0294  0.0399 -0.1193
 3968W        W24248   4.146   2.279  11.540  0.2055  0.1512  0.2400
 3969W        W24249   4.429   5.220   2.605  0.4173 -0.1051 -0.1660
 3970W        W24250  17.838  12.329   3.038  0.1302  0.1263  0.4464
 3971W        W24251   8.747   9.848   3.868  0.2048  0.1393  0.0661
 3972W        W24252   0.071   4.049   2.523 -0.2950  0.0390 -0.0910
 3973W        W24253   8.741   8.667  15.044 -0.2059  0.1344 -0.0762
 3974W        W24254   7.829  18.254  13.777 -0.0404 -0.0550 -0.1036
 3975W        W24255   8.408  10.851   3.793  0.0664  0.3306 -0.1769
 3976W        W24256   7.648  15.244  10.423  0.2204 -0.3192  0.1877
 3977W        W24257   9.454  10.722  14.337 -0.1760  0.2452  0.0860
 3978W        W24258   3.654   7.479  14.143  0.1116  0.1718  0.0295
 3979W        W24259   3.930   9.765   3.234 -0.0864  0.1540  0.2252
 3980W        W24260  11.441   7.703   3.630  0.2526 -0.0339 -0.2014
 3981W        W24261   4.449   1.194   4.133  0.2776 -0.1267  0.4073
 3982W        W24262   5.610  12.237  12.426  0.0251 -0.0986 -0.0432
 3983W        W24263  17.182   8.162   4.789 -0.2180 -0.2644 -0.0538
 3984W        W24264   4.921   6.381  13.233 -0.0372  0.4130  0.1613
 3985W        W24265  11.329  15.011  11.158  0.1942 -0.0668 -0.1505
 3986W        W24266  12.171  12.575  11.744  0.0682 -0.0847  0.0782
 3987W        W24267   6.082  18.697   0.835  0.1098  0.1174  0.0126
 3988W        W24268   5.696   5.543   2.527  0.0030  0.3328 -0.3945
 3989W        W24269  15.616  11.078  13.710  0.0632  0.0892 -0.0454
 3990W        W24270   7.026  15.858   2.568 -0.0300 -0.2812  0.1693
 3991W        W24271   4.684  15.384  11.241 -0.3292  0.1039  0.3369
 3992W        W24272  10.346  10.347  12.059  0.1558  0.0618  0.2863
 3993W        W24273  14.172   1.717  13.040  0.1185  0.2771 -0.0534
 3994W        W24274  16.070   4.021   2.233  0.2666 -0.0195 -0.1711
 3995W        W24275  15.773   2.503   1.244  0.0457 -0.0240  0.0526
 3996W        W24276   5.292  15.939   3.096 -0.0655 -0.1012 -0.0781
 3997W        W24277   8.910   4.456  14.717 -0.1660 -0.0594  0.1878
 3998W        W24278   9.133  14.352  13.646 -0.0414  0.0210  0.4352
 3999W        W24279  18.119  10.144   0.305  0.0893  0.0701  0.3639
 4000W        W24280   8.225   2.823   4.059  0.0303 -0.1748  0.1429
 4001W        W24281  12.675  13.326  14.170  0.0455 -0.2154 -0.0334
 4002W        W24282  14.320   8.483   1.716  0.0226  0.0052  0.1588
 4003W        W24283   3.815  11.699   2.633  0.0266  0.2544  0.0316
 4004W        W24284  10.123   5.244  13.477  0.1522  0.0185  0.1713
 4005W        W24285  14.835  12.871  13.902  0.3580 -0.0851 -0.1287
 4006W        W24286   1.346  13.021  11.400 -0.2193  0.2595 -0.0205
 4007W        W24287   0.807   3.912   4.711 -0.2881  0.1047 -0.1619
 4008W        W24288   7.457   0.342   3.128  0.1181  0.0885  0.1547
 4009W        W24289  12.330  13.297  15.149  0.0479  0.0701  0.0738
 4010W        W24290   3.761   3.066  11.312  0.1948  0.3163 -0.0268
 4011W        W24291  17.013   9.834  12.214  0.0113 -0.1617  0.3067
 4012W        W24292   4.160   0.434  12.485 -0.0390 -0.0283  0.0451
 4013W        W24293   9.362  17.493  13.958 -0.0152 -0.0766 -0.2031
 4014W        W24294   1.596  18.312  11.461  0.4048 -0.2349 -0.3022
 4015W        W24295   2.785   7.303   3.122 -0.0734 -0.0886 -0.1409
 4016W        W24296  14.583   4.581  13.401  0.0438 -0.2163 -0.1360
 4017W        W24297   1.491  13.923   0.990  0.2137 -0.0602 -0.2510
 4018W        W24298   6.336   6.970   0.307  0.0469 -0.0772 -0.3307
 4019W        W24299   5.396  11.747  11.306  0.1740  0.3144  0.0403
 4020W        W24300  16.934  12.521   0.264  0.2376  0.0631 -0.1316
 4021W        W24301   3.756  10.702   2.770  0.0701  0.1043 -0.2797
 4022W        W24302  16.531  16.320   0.577 -0.1754 -0.1700  0.0933
 4023W        W24303  16.329  14.509   0.294  0.2301  0.4143 -0.1476
 4024W        W24304   5.775  12.576   2.885 -0.0369  0.2626 -0.2833
 4025W        W24305  13.694  15.845  13.208  0.2559  0.0961 -0.1619
 4026W        W24306  16.044  17.974  13.078 -0.0522  0.1378 -0.0178
 4027W        W24307  18.491  18.289   1.735 -0.0254  0.0675 -0.1471
 4028W        W24308  11.406   4.728  13.757 -0.0951 -0.5917 -0.2491
 4029W        W24309   7.558  15.528   0.254  0.1680  0.1123  0.1226
 4030W        W24310   6.265  14.091   2.176  0.0174  0.1288  0.1635
 4031W        W24311   0.481  17.196   1.035  0.0225  0.0208 -0.1060
 4032W        W24312   7.847   4.411  13.700  0.0962 -0.0989  0.0218
 4033W        W24313  17.843   5.723  13.005  0.0435 -0.2427 -0.1147
 4034W        W24314  11.027   1.722   0.598  0.1524 -0.1125 -0.0558
 4035W        W24315  17.292  16.445   0.747 -0.0773 -0.0588  0.0421
 4036W        W24316   3.969  16.689   0.082  0.1396  0.1290  0.2453
 4037W        W24317   9.980   5.397   3.239  0.2070  0.4793 -0.1717
 4038W        W24318  18.102  10.619   3.798  0.1996 -0.2199 -0.3747
 4039W        W24319   6.530  17.204  13.914  0.0284  0.1271 -0.1280
 4040W        W24320   5.927  12.835  13.745  0.3358 -0.1382 -0.0833
 4041W        W24321   5.134  17.445  10.982  0.1831  0.2689  0.0666
 4042W        W24322  17.328   8.165   4.294 -0.0197 -0.1727 -0.2164
 4043W        W24323  14.555   2.457  12.324 -0.3196 -0.0029  0.2404
 4044W        W24324  16.312   8.287   0.622  0.1443  0.1725 -0.1584
 4045W        W24325   4.234  14.391   3.195  0.0987 -0.0213  0.3113
 4046W        W24326   2.652  10.237   2.650  0.3793  0.0258  0.0988
 4047W        W24327   7.148   8.844  12.126 -0.1773 -0.1487 -0.1370
 4048W        W24328   3.395  17.910  12.585 -0.0396  0.0254 -0.1393
 4049W        W24329   1.645   7.345  12.582  0.1016 -0.0670  0.1805
 4050W        W24330  13.093   7.237   0.133 -0.0250 -0.0253  0.0032
 4051W        W24331   7.284  17.836  11.944  0.2644 -0.2495  0.0737
 4052W        W24332   7.743   5.141  12.023  0.2535 -0.1038 -0.1540
 4053W        W24333   2.107   8.921  14.358 -0.1851  0.0144 -0.2123
 4054W        W24334   0.716  10.760  12.508  0.1329  0.0123  0.2220
 4055W        W24335   3.133  10.698  14.644 -0.3871 -0.3154 -0.2526
 4056W        W24336  10.609   3.262   1.527  0.0798 -0.0148 -0.0063
 4057W        W24337  10.842   7.840  12.773 -0.0850 -0.0317  0.0636
 4058W        W24338   0.792  16.467  12.854 -0.1001 -0.2050  0.0150
 4059W        W24339  16.430   6.702   4.939 -0.1128 -0.1297 -0.4847
 4060W        W24340  14.817   4.471   4.971  0.0321 -0.1079  0.1586
 4061W        W24341   5.941   9.279   0.124  0.2812  0.0277  0.1009
 4062W        W24342  11.733  17.617  14.154 -0.0271  0.0592 -0.0979
 4063W        W24343  10.357  13.183  13.794 -0.1054  0.0821  0.0652
 4064W        W24344  12.243  17.974   1.428 -0.1428 -0.1692 -0.0981
 4065W        W24345  17.229  12.058  11.776  0.1692 -0.1087 -0.1295
 4066W        W24346  10.836   1.883   3.876  0.1825  0.1979  0.1297
 4067W        W24347  14.770   9.856   1.652  0.2197 -0.1323  0.0132
 4068W        W24348   0.624  10.555   2.737  0.0381  0.0466  0.0625
 4069W        W24349   4.060   0.041  12.143  0.4107 -0.0283  0.0801
 4070W        W24350  11.018  12.628  12.714 -0.0732 -0.1336  0.0889
 4071W        W24351   3.148   1.026   0.178  0.2153 -0.0743  0.1280
 4072W        W24352   2.454   0.243  14.874 -0.1241  0.0936  0.0859
 4073W        W24353   0.255   0.301  11.258  0.0572 -0.1015 -0.1369
 4074W        W24354   7.006   6.508   3.635 -0.1124 -0.1042 -0.3797
 4075W        W24355   1.570  10.176   3.871  0.4189 -0.0137  0.2455
 4076W        W24356  17.718   8.979   3.724  0.0101  0.0035  0.1047
 4077W        W24357   1.560   9.821  15.337  0.0011  0.0621 -0.0062
 4078W        W24358   3.001   3.224  11.181  0.0047 -0.2722 -0.1508
 4079W        W24359  13.878   5.424  12.534 -0.2305 -0.0157 -0.0272
 4080W        W24360   0.022   1.733   4.150 -0.0803 -0.2906  0.2102
 4081W        W24361  16.333  16.041   0.997  0.4186 -0.0310 -0.1313
 4082W        W24362  17.721   3.632   1.678  0.0192  0.0260 -0.0976
 4083W        W24363   8.845  11.797   0.637 -0.1521  0.2027  0.2722
 4084W        W24364  18.689  16.564   1.235  0.0410 -0.0523 -0.1461
 4085W        W24365  17.433  14.118  13.322  0.4437  0.1277 -0.0890
 4086W        W24366   1.093  16.107  14.419 -0.0265  0.1211  0.2791
 4087W        W24367   6.535   7.143  11.043 -0.3900 -0.1050  0.2975
 4088W        W24368   5.921   9.544  11.935 -0.2156 -0.0674 -0.2464
 4089W        W24369   7.848   7.002  12.282 -0.0717  0.0278 -0.0823
 4090W        W24370  17.366  13.583  13.117  0.2069  0.1799 -0.1440
 4091W        W24371  12.999  11.248  14.970 -0.1608  0.0411 -0.4691
 4092W        W24372  16.976   5.322  13.089  0.3456 -0.0961 -0.1276
 4093W        W24373   0.920   7.635   0.695  0.0966 -0.1992  0.1291
 4094W        W24374  13.389   9.635   3.722 -0.1852  0.3352 -0.1372
 4095W        W24375   6.096  15.647  14.625 -0.0183  0.3263  0.0759
 4096W        W24376  16.182  12.811  10.907  0.0505  0.2311  0.0226
 4097W        W24377  11.572  14.962  11.610  0.2669 -0.0772 -0.0226
 4098W        W24378   1.828  15.867   0.690 -0.1773 -0.1393 -0.0954
 4099W        W24379  10.310   1.970  11.545  0.0675 -0.4142 -0.2635
 4100W        W24380  17.415  14.551   3.774 -0.1556 -0.0935  0.0312
 4101W        W24381  17.107   2.028   1.822 -0.0476 -0.3698  0.0724
 4102W        W24382   0.790   3.901  13.394 -0.0860 -0.3017 -0.0889
 4103W        W24383  11.645  14.968   0.951 -0.0310 -0.0197 -0.0588
 4104W        W24384  16.181   6.973   2.624  0.4931  0.2140  0.0889
 4105W        W24385   9.224  11.199  14.432  0.0688 -0.1217 -0.0683
 4106W        W24386   3.416  14.423  12.054  0.1160 -0.1597  0.0996
 4107W        W24387   3.314  16.251   3.952 -0.0839  0.0892  0.1608
 4108W        W24388   6.500  18.036  15.296 -0.0828 -0.0653 -0.1657
 4109W        W24389  16.394   2.101   3.569 -0.1122  0.1436 -0.0721
 4110W        W24390   8.613  11.344   1.729  0.1932  0.0121 -0.0326
 4111W        W24391  18.572   8.923  11.673 -0.2139  0.1882 -0.0481
 4112W        W24392   7.412  18.359   3.712 -0.2265  0.1024 -0.1181
 4113W        W24393  17.846  16.142   4.356  0.1410 -0.2452 -0.2064
 4114W        W24394  16.851   7.315   0.631 -0.1298  0.0870  0.0031
 4115W        W24395   3.020  12.057  11.275  0.3776  0.1558  0.0599
 4116W        W24396   8.001   9.679  12.810 -0.3176 -0.0226  0.0733
 4117W        W24397   5.885   5.332  10.003 -0.0524 -0.1195  0.1089
 4118W        W24398  12.764   1.004   0.364 -0.2143 -0.1870  0.0942
 4119W        W24399   0.184   1.073  11.267 -0.2945  0.0331 -0.2686
 4120W        W24400   0.183   7.213  13.809  0.0290  0.0257 -0.2103
 4121W        W24401  16.107  14.352  15.228 -0.0715  0.0790 -0.0028
 4122W        W24402  13.391   5.237   0.074  0.0648  0.2813 -0.1605
 4123W        W24403   3.007   7.709   2.454 -0.0154  0.0000 -0.0165
 4124W        W24404   9.437   0.749  12.034 -0.0084  0.0144 -0.3552
 4125W        W24405   0.091  13.972   0.998 -0.1782  0.0211 -0.0616
 4126W        W24406  15.463   6.251  12.100 -0.2337 -0.2129  0.3211
 4127W        W24407  11.205  14.784   1.378  0.0527 -0.1584 -0.0488
 4128W        W24408   2.496  13.606  13.602 -0.0219 -0.3090 -0.0764
 4129W        W24409  12.359  13.963  13.029 -0.2093 -0.1193  0.0899
 4130W        W24410   0.560  15.529   3.838 -0.1423  0.2173  0.1701
 4131W        W24411  10.005  12.852   1.675 -0.4310  0.1473 -0.1453
 4132W        W24412  12.344  17.148  12.893  0.0141 -0.2043  0.2113
 4133W        W24413  14.678   9.128  15.182  0.0951  0.1805 -0.1006
 4134W        W24414   9.101   2.333   1.442 -0.0336  0.3133  0.0058
 4135W        W24415  16.129  18.439  13.258  0.1347 -0.0239 -0.1877
 4136W        W24416  16.921  15.387   2.795 -0.0407  0.0759 -0.3344
 4137W        W24417  16.367  10.941  13.149 -0.1932 -0.0927  0.0170
 4138W        W24418   9.590   3.162   1.998 -0.0348 -0.0595 -0.0660
 4139W        W24419  15.306  17.338   4.080 -0.0013  0.2067  0.0859
 4140W        W24420   9.579  13.249   0.833  0.3565 -0.0414  0.1971
 4141W        W24421  15.252   7.263  14.264  0.0998  0.0039  0.0806
 4142W        W24422  12.765  18.428  14.470  0.1197  0.0319  0.1204
 4143W        W24423   5.799  15.953  14.088 -0.3405 -0.0848 -0.0398
 4144W        W24424  15.507  10.108   1.039  0.1031  0.0142  0.1349
 4145W        W24425   2.236  12.147  13.418 -0.5318  0.0053 -0.1032
 4146W        W24426   3.654   3.724  14.411  0.1474  0.2004  0.1908
 4147W        W24427   9.662  13.458  12.459  0.1988 -0.0159 -0.5558
 4148W        W24428   5.962  11.634  11.219 -0.3585  0.0596 -0.2363
 4149W        W24429  17.815   6.614  14.072  0.2992 -0.1140 -0.2219
 4150W        W24430   3.917   3.518  11.305 -0.1448  0.2275 -0.1931
 4151W        W24431   9.727  11.460  13.679  0.0528 -0.2286  0.2393
 4152W        W24432  10.109   7.249   2.972 -0.1855  0.1191  0.1167
 4153W        W24433  14.763   5.788   1.882  0.0043  0.0165  0.4079
 4154W        W24434   3.756  14.139  12.365 -0.0617 -0.1639 -0.0717
 4155W        W24435   8.167  18.593   2.620  0.0062  0.2590  0.0799
 4156W        W24436  14.765  10.602  14.950  0.2284  0.0042 -0.1660
 4157W        W24437   6.544  15.302   4.025 -0.0211  0.0489 -0.0766
 4158W        W24438   8.720   2.322  15.104 -0.1091 -0.0354  0.0480
 4159W        W24439  11.626  10.254   4.045 -0.1676  0.1851 -0.1097
 4160W        W24440   5.502  18.052   3.760  0.1828  0.1456  0.3806
 4161W        W24441   1.107   8.200  11.792 -0.2889  0.0805  0.1307
 4162W        W24442  11.690  15.512  12.453  0.0632 -0.0182  0.0286
 4163W        W24443   9.774   6.760   3.759 -0.0149  0.2339 -0.0061
 4164W        W24444   2.196   0.245  11.319 -0.0575 -0.0543  0.0037
 4165W        W24445  17.711  18.600  13.342  0.2649  0.2280 -0.0026
 4166W        W24446  13.298  11.823  10.166 -0.0873  0.1268  0.2322
 4167W        W24447  11.963  12.959   3.981 -0.1954  0.0261 -0.3249
 4168W        W24448  17.322   4.885  13.432  0.1434  0.1849  0.1892
 4169W        W24449  10.758  16.505   2.764 -0.0690  0.2078 -0.1170
 4170W        W24450  14.992  15.036  15.018  0.2532  0.0436  0.0337
 4171W        W24451  15.292   4.342   4.868  0.1840  0.0703 -0.2520
 4172W        W24452   6.671   9.556   1.255  0.0158  0.1754 -0.2111
 4173W        W24453   9.636  14.460   1.141  0.2203 -0.0414  0.3833
 4174W        W24454   0.429  16.861  12.007 -0.1943 -0.0495 -0.2752
 4175W        W24455  18.452   8.740   0.423  0.0174 -0.1751 -0.1048
 4176W        W24456   0.486  16.601  15.248 -0.0184 -0.1831  0.0019
 4177W        W24457  17.174   6.710   3.878 -0.0997  0.0448 -0.1364
 4178W        W24458   2.953   2.288   3.173 -0.1871  0.0715  0.0983
 4179W        W24459  11.222   7.339  14.239  0.2340 -0.0633  0.2675
 4180W        W24460  12.432   1.490  14.298  0.1943  0.0873 -0.1163
 4181W        W24461  16.675   1.408  11.963 -0.1436 -0.0733  0.3845
 4182W        W24462   4.925  13.049   0.963 -0.0008  0.2809  0.1067
 4183W        W24463   0.056   3.469  13.773  0.1790 -0.1429 -0.1426
 4184W        W24464  17.371  11.621   1.997  0.1951 -0.0903  0.1392
 4185W        W24465  14.939  17.682  13.997 -0.2045 -0.2715  0.0580
 4186W        W24466  11.601  11.426   1.884  0.1256  0.0598 -0.3476
 4187W        W24467   5.329   2.676   9.782  0.0571 -0.3812  0.2964
 4188W        W24468   2.585  13.452  14.065 -0.2094  0.1576  0.0079
 4189W        W24469  15.984  14.305  10.302 -0.3184 -0.2549 -0.0358
 4190W        W24470   0.091  11.250   2.757 -0.0011 -0.2437  0.2327
 4191W        W24471   1.637   4.646  14.898 -0.3712 -0.0324  0.0256
 4192W        W24472   8.161  15.903  11.067  0.1810 -0.0739 -0.1224
 4193W        W24473   4.146   5.450  13.474  0.3103  0.1969 -0.1143
 4194W        W24474   4.353   8.430  13.193  0.0443 -0.0483  0.1194
 4195W        W24475  16.906   4.584  11.957 -0.1612  0.0545  0.1317
 4196W        W24476   1.385   4.548   1.125  0.0408 -0.4967 -0.2191
 4197W        W24477  16.497  16.311   2.950  0.3298  0.2568  0.3210
 4198W        W24478   1.111   4.546  15.009 -0.1058 -0.1036 -0.1129
 4199W        W24479  11.644  11.807  11.710 -0.2958 -0.0965 -0.1144
 4200W        W24480   4.254  13.032  11.968 -0.0669 -0.2068  0.1364
 4201W        W24481   4.314   9.319  14.278 -0.2880  0.2191  0.0433
 4202W        W24482  16.256  14.845   1.122  0.0863 -0.0396  0.1987
 4203W        W24483  13.176  12.339  11.139 -0.2200  0.2203 -0.3798
 4204W        W24484   9.456   2.310   1.864 -0.0324  0.2417 -0.1131
 4205W        W24485  13.635  11.366  12.276 -0.0846  0.1741  0.0182
 4206W        W24486  16.388  10.589   0.322 -0.1741  0.2343  0.1104
 4207W        W24487   2.761  14.543  12.618 -0.1722 -0.1712 -0.1274
 4208W        W24488   8.333  17.702   0.951  0.0724 -0.0899  0.0097
 4209W        W24489   0.371  11.046  15.041 -0.0974 -0.1289 -0.0524
 4210W        W24490  18.258   4.579   4.281  0.0694  0.0561  0.0483
 4211W        W24491  11.024   5.743  12.404  0.0533  0.2832  0.0068
 4212W        W24492   1.135  13.212  14.144  0.1166  0.2093  0.1531
 4213W        W24493  13.210   1.070  11.272  0.2821  0.0632 -0.1024
 4214W        W24494   9.192  12.461  11.020  0.0061 -0.2159  0.0110
 4215W        W24495  18.249  13.917  12.882  0.1078 -0.0368 -0.1821
 4216W        W24496  10.469   5.931   3.975 -0.1271  0.0673 -0.2301
 4217W        W24497  10.462  10.132   3.450  0.2042 -0.1513  0.1127
 4218W        W24498   2.428   4.493   0.818 -0.0426 -0.2905 -0.0712
 4219W        W24499   1.573  12.659   3.641  0.1308  0.1420 -0.0723
 4220W        W24500  18.601  12.028  14.080 -0.1971 -0.3596 -0.1948
 4221W        W24501  16.110   6.530  13.026 -0.0392 -0.1597 -0.1690
 4222W        W24502   3.447  13.839   1.609 -0.1542  0.0659  0.0838
 4223W        W24503   0.993  11.569  12.386  0.1448 -0.1755 -0.0932
 4224W        W24504  11.253   7.594  13.664 -0.1283 -0.2285 -0.3108
 4225W        W24505  16.158  17.086   2.945 -0.0413  0.1162 -0.0184
 4226W        W24506  18.668   9.213  13.435 -0.2375 -0.0024 -0.2157
 4227W        W24507   2.001   6.608   2.756  0.0050  0.1888 -0.1563
 4228W        W24508   7.083   3.632  12.838 -0.2157 -0.2099 -0.0736
 4229W        W24509  16.156   3.311   9.876  0.0158 -0.3013  0.1011
 4230W        W24510  10.279  12.077   1.639 -0.1403  0.2500  0.1302
 4231W        W24511  16.206  11.021   4.496 -0.2890  0.0223  0.0811
 4232W        W24512  12.857  15.582  13.538  0.1581 -0.0904  0.2862
 4233W        W24513  13.016  11.757  15.153  0.4010  0.0290  0.1107
 4234W        W24514  10.048  16.826   3.085  0.0883  0.0645  0.2167
 4235W        W24515  18.709  14.810   3.841 -0.0856 -0.0488  0.3544
 4236W        W24516   4.142  11.984   1.225  0.0046 -0.2448  0.0242
 4237W        W24517   8.918  11.032  13.090 -0.0121  0.3883  0.5026
 4238W        W24518  12.932  12.671  11.680  0.0794 -0.0355 -0.1063
 4239W        W24519  16.985  10.914  14.626 -0.5328  0.2074  0.0195
 4240W        W24520   9.918   8.373  13.667 -0.1232  0.3228 -0.0713
 4241W        W24521   4.844  15.565  12.258  0.2728  0.0228 -0.0294
 4242W        W24522  10.459  14.731   0.579 -0.1969 -0.0712 -0.2696
 4243W        W24523   8.783  17.449  14.722  0.0056  0.1030 -0.0201
 4244W        W24524   4.862  10.398   4.167 -0.2140 -0.0033  0.2195
 4245W        W24525   6.434  18.144   2.820  0.0918  0.0288 -0.0323
 4246W        W24526   2.541   8.711   3.284 -0.3303 -0.0088  0.2680
 4247W        W24527  16.580   1.342   4.297 -0.1709  0.1801 -0.0625
 4248W        W24528   4.239  17.368   3.445  0.0377  0.1224 -0.0960
 4249W        W24529  11.190  18.600   0.539  0.0438 -0.1648 -0.0631
 4250W        W24530   7.695  17.484  11.758 -0.0352 -0.0642  0.0771
 4251W        W24531   3.803   3.265   1.584 -0.2810 -0.0582 -0.3519
 4252W        W24532  17.223   3.393  14.188  0.0265 -0.0114 -0.0534
 4253W        W24533  14.618  15.941   0.849  0.2111  0.2001 -0.0478
 4254W        W24534   6.398   8.421   2.422  0.1087 -0.3704 -0.0905
 4255W        W24535  16.508   2.325   2.459  0.1812 -0.2086  0.0998
 4256W        W24536   2.158  11.529  15.174 -0.1384  0.5372 -0.1576
 4257W        W24537  14.909   3.037   0.418  0.1516 -0.3062 -0.0467
 4258W        W24538   6.770  18.187   0.379 -0.2781  0.0222 -0.0072
 4259W        W24539   8.557   8.900   3.625 -0.0636  0.3225  0.1439
 4260W        W24540  11.203   4.173   4.019  0.1909  0.1446 -0.0626
 4261W        W24541  13.032   4.783  14.501  0.0103  0.2002 -0.3591
 4262W        W24542   0.494  18.042  12.626 -0.2967  0.1444 -0.0887
 4263W        W24543  14.125   1.222   1.968 -0.1608  0.3772 -0.0963
 4264W        W24544   6.011   4.153   2.165 -0.0444 -0.0716 -0.1246
 4265W        W24545   1.712  11.483  13.493  0.1484 -0.1761 -0.0792
 4266W        W24546  12.157  18.545  11.341 -0.1929  0.1145  0.2727
 4267W        W24547  15.669   2.158   1.664  0.0433 -0.1288 -0.1474
 4268W        W24548   7.369   1.271  12.714  0.2715  0.0518  0.0624
 4269W        W24549  18.074   7.542  13.971  0.0950  0.1234 -0.0719
 4270W        W24550  13.399  12.737  12.987 -0.4575  0.0504  0.1087
 4271W        W24551  14.799  16.087   0.318 -0.0165 -0.3726  0.0964
 4272W        W24552  17.499   5.186   0.560  0.0836  0.1890 -0.1960
 4273W        W24553  12.665   4.581  14.201  0.2621  0.0324 -0.1469
 4274W        W24554  17.251  10.703   3.463 -0.0199 -0.0338  0.0074
 4275W        W24555   8.418  15.843   2.839 -0.0150 -0.2498 -0.1305
 4276W        W24556  14.031   6.873   2.052 -0.4144 -0.0648  0.1401
 4277W        W24557  18.159  13.670  14.537  0.1540 -0.1424  0.1681
 4278W        W24558   4.685   7.468  14.452 -0.0614 -0.1266  0.0512
 4279W        W24559  12.527   5.049  14.528 -0.0774 -0.1083 -0.1762
 4280W        W24560   9.141  10.258  14.371  0.1023  0.0643  0.4111
 4281W        W24561   5.711   4.432  13.829 -0.0091  0.2163 -0.2016
 4282W        W24562   1.306  14.917   4.793 -0.1447  0.2070  0.2751
 4283W        W24563   4.051   8.744   4.463 -0.2125  0.3049 -0.0857
 4284W        W24564  10.938  12.146  12.512  0.0781 -0.1685 -0.1048
 4285W        W24565  10.126   4.481   0.603 -0.2217 -0.0743 -0.1505
 4286W        W24566   0.403   9.356   2.741  0.0063 -0.2900 -0.0675
 4287W        W24567  11.915  15.145  13.553  0.1774 -0.0718  0.3688
 4288W        W24568   2.465   9.950  13.493  0.4561 -0.1270 -0.0003
 4289W        W24569   9.813   8.611  14.307  0.0260 -0.0910 -0.2030
 4290W        W24570   3.644  10.771  12.161  0.2334 -0.3399  0.3318
 4291W        W24571  13.497   5.275  12.164 -0.1311  0.1306  0.0717
 4292W        W24572   3.841   5.219  12.540 -0.1674 -0.2613  0.3671
 4293W        W24573  15.791   0.038   4.393 -0.0691 -0.0634  0.0835
 4294W        W24574  10.592   7.778   0.985 -0.1554 -0.0173  0.0830
 4295W        W24575   2.835  18.285  13.826 -0.2636  0.0020  0.1096
 4296W        W24576  16.762   7.644   3.789 -0.1843  0.2425 -0.2411
 4297W        W24577  15.768   6.023  12.813 -0.2432  0.0247  0.0405
 4298W        W24578   3.936  13.834  14.856  0.3786 -0.0683 -0.1708
 4299W        W24579   7.477   8.483   4.170 -0.0096 -0.0216 -0.0113
 4300W        W24580  17.050  14.174   2.514 -0.4408  0.1586  0.0705
 4301W        W24581  12.870  13.556   3.337  0.0727 -0.4122  0.1287
 4302W        W24582  16.932  14.550   3.712  0.0002  0.1561  0.1598
 4303W        W24583  17.666   9.210   1.009  0.3663  0.1184 -0.1525
 4304W        W24584  16.683  10.802  11.927 -0.2838  0.0503 -0.1550
 4305W        W24585  10.176  11.536   1.419 -0.0946  0.0640  0.1050
 4306W        W24586   2.138  13.645  13.946 -0.1750 -0.0764 -0.0330
 4307W        W24587   2.679   0.714   2.139 -0.0017 -0.2713 -0.1716
 4308W        W24588  10.835  17.614  13.625  0.1071 -0.1931  0.0573
 4309W        W24589   4.561   8.133  11.094 -0.0799  0.0430 -0.0707
 4310W        W24590  10.668  15.170   3.960  0.0493 -0.3518 -0.0556
 4311W        W24591   8.030   7.408   3.438  0.1577 -0.1822  0.1479
 4312W        W24592   0.684   4.371   2.032 -0.1497  0.1652  0.1705
 4313W        W24593  13.379   4.409  11.327  0.2902 -0.0884  0.1493
 4314W        W24594   1.566  10.734  12.323  0.1799  0.1638 -0.3492
 4315W        W24595  14.337   4.135   1.007 -0.3282 -0.1538 -0.1634
 4316W        W24596   7.749  15.478  12.448  0.1158  0.0330  0.2052
 4317W        W24597   1.183   4.065   1.115 -0.0562  0.1658 -0.0246
 4318W        W24598   0.802  12.182  12.871  0.1183  0.0455 -0.1890
 4319W        W24599   6.423  13.073   0.533  0.0588 -0.0946  0.1929
 4320W        W24600  15.816  15.688   3.619  0.1200 -0.0702  0.0840
 4321W        W24601   6.653   8.815   2.295 -0.3340  0.2940 -0.1959
 4322W        W24602   8.448   8.334  13.359 -0.1609  0.4833  0.3057
 4323W        W24603  18.482  15.672  13.527  0.1763  0.0067 -0.1753
 4324W        W24604   3.023   4.057  12.223 -0.1250 -0.1512  0.0424
 4325W        W24605  16.889   2.588   2.982 -0.0553  0.0010 -0.2148
 4326W        W24606  18.478   1.286  13.887 -0.0082  0.0911 -0.0129
 4327W        W24607  12.308  11.852   3.702  0.2109 -0.2049  0.0520
 4328W        W24608   2.145   1.443  12.358 -0.1623  0.1159  0.2525
 4329W        W24609  10.517  14.345   3.212  0.1447 -0.2023 -0.1057
 4330W        W24610   1.628   0.205   0.827 -0.1470  0.1752 -0.1776
 4331W        W24611  11.804  13.306   2.801  0.2737 -0.0886  0.0216
 4332W        W24612   5.209   6.191  11.787  0.0068  0.2342 -0.5763
 4333W        W24613   2.492   0.624  12.876 -0.2520  0.0956  0.2340
 4334W        W24614   8.030   7.345   2.905 -0.2330  0.0251  0.2165
 4335W        W24615  17.912  13.555   1.064  0.1435 -0.1200  0.0527
 4336W        W24616  17.672  17.660   1.960 -0.2536 -0.0359  0.0094
 4337W        W24617   3.220   0.579  15.394 -0.2046 -0.3642  0.1802
 4338W        W24618  12.038   1.587  14.016 -0.4331  0.0465 -0.1729
 4339W        W24619   3.504  10.605   4.475 -0.1114  0.1317  0.0211
 4340W        W24620  12.881   0.159   3.776 -0.0126 -0.3267  0.1379
 4341W        W24621   5.716  11.116   3.298 -0.0481 -0.2068  0.0452
 4342W        W24622   5.360   9.251  12.540  0.1635  0.1483  0.0887
 4343W        W24623  15.174   2.947   1.501  0.1972  0.0794 -0.4672
 4344W        W24624   2.084   9.334  14.016  0.1540  0.1490 -0.0538
 4345W        W24625  13.403  15.626   4.428 -0.1531  0.1589  0.0111
 4346W        W24626  13.810  16.223   4.504 -0.2178  0.3085 -0.1617
 4347W        W24627   2.835  18.334   0.814 -0.2388 -0.0405 -0.1792
 4348W        W24628  16.023   5.066  14.649  0.0655  0.1258 -0.2941
 4349W        W24629  10.064   4.645   3.737  0.1254  0.0065  0.1632
 4350W        W24630  16.121  14.661  13.998  0.0112  0.0363 -0.3406
 4351W        W24631  14.415   3.109  11.004  0.2433  0.0255  0.1061
 4352W        W24632  14.258   6.693  15.081 -0.0302  0.0075  0.1539
 4353W        W24633   6.207   5.835   3.358  0.1331 -0.2346  0.0583
 4354W        W24634  13.125  13.782  12.451 -0.3441 -0.1902 -0.0273
 4355W        W24635   2.230   9.892   1.591 -0.4903  0.1473 -0.1817
 4356W        W24636  16.319  18.048  11.857 -0.1184 -0.0186  0.0031
 4357W        W24637   8.872  17.382   3.440  0.0476  0.0127 -0.1887
 4358W        W24638   0.232   5.259   2.258 -0.1359 -0.0011 -0.1203
 4359W        W24639   6.335  16.432  14.536  0.0616 -0.0869  0.0353
 4360W        W24640  14.852   4.485   0.098  0.1602 -0.0138 -0.0444
 4361W        W24641  17.220   4.138   0.902  0.0615  0.1101  0.0128
 4362W        W24642  15.263  12.587  12.296 -0.0430 -0.0547 -0.4862
 4363W        W24643  10.565   4.058  11.463 -0.1058  0.3203 -0.0791
 4364W        W24644   3.732   4.567  13.149  0.2223 -0.1047 -0.3138
 4365W        W24645  15.455   3.036  10.826  0.2698  0.1085 -0.0465
 4366W        W24646   3.128   3.624  14.529 -0.0499 -0.1417 -0.0810
 4367W        W24647  12.204  13.981  12.229  0.2117  0.1452 -0.0203
 4368W        W24648  17.714   5.274  13.134 -0.1549  0.1573 -0.0707
 4369W        W24649   9.332   6.687   0.322  0.1389  0.1454 -0.0688
 4370W        W24650   8.344   1.281   0.912 -0.0530 -0.2477  0.2035
 4371W        W24651   9.048  13.955   4.332  0.2115 -0.1206  0.2135
 4372W        W24652   3.882   5.783  14.206  0.3399  0.1427 -0.0333
 4373W        W24653  13.006  14.120   5.532 -0.0320 -0.3859 -0.0999
 4374W        W24654   1.661   9.833   2.588 -0.0935  0.2664  0.0129
 4375W        W24655   1.271   5.778  15.173 -0.0228  0.2070 -0.1654
 4376W        W24656   7.069   0.612  13.781  0.0432  0.0886 -0.1657
 4377W        W24657   2.544  15.460  12.605  0.1755  0.1714  0.1071
 4378W        W24658  12.941   0.816  14.282 -0.0643 -0.1346 -0.0638
 4379W        W24659  13.343  10.140   5.016 -0.2389 -0.0640  0.0187
 4380W        W24660   2.565  18.253   1.217  0.0560  0.2017 -0.0217
 4381W        W24661  16.887  16.244   4.414 -0.0753 -0.0901 -0.1615
 4382W        W24662  14.390  11.252   0.055 -0.2515  0.1546  0.0984
 4383W        W24663  16.196  13.443  12.671 -0.0796 -0.0077 -0.2530
 4384W        W24664  15.720  14.487   4.001 -0.2099 -0.2059 -0.1747
 4385W        W24665   3.898  12.189  13.148  0.1235 -0.1745  0.1229
 4386W        W24666   6.465   8.262  10.892 -0.1268  0.2565 -0.0468
 4387W        W24667   5.965   9.410   3.419  0.2101 -0.1285 -0.1740
 4388W        W24668   2.800   5.368   2.372 -0.0285  0.3592  0.1558
 4389W        W24669   4.947  10.375  13.534 -0.1327 -0.2572  0.3569
 4390W        W24670  16.106  13.140  13.474  0.0359  0.0523  0.1057
 4391W        W24671   0.148  18.182   0.099 -0.2633 -0.0588 -0.1668
 4392W        W24672  18.004   7.217   5.410  0.1000 -0.0375 -0.0236
 4393W        W24673   0.819   5.162   2.180  0.0496  0.3405  0.3905
 4394W        W24674   7.226  14.927  11.159  0.1571  0.1304 -0.1361
 4395W        W24675   9.393  16.785   2.394 -0.0396  0.4252  0.3091
 4396W        W24676   0.946  17.170  14.278  0.2234  0.0758  0.0665
 4397W        W24677  13.363   9.594  11.862 -0.2607  0.0783  0.0209
 4398W        W24678   3.706   7.092  12.046 -0.1872  0.2280  0.2744
 4399W        W24679   7.649   7.835   0.961  0.2291 -0.0981  0.1297
 4400W        W24680   6.230   2.410  14.945 -0.0361  0.1021  0.0163
 4401W        W24681  12.053   3.366   3.379  0.2561  0.0574 -0.3085
 4402W        W24682   5.029  17.249  13.777 -0.1206 -0.1530  0.1731
 4403W        W24683   2.803  13.786   1.878  0.0475 -0.1403 -0.0037
 4404W        W24684   9.521   4.124   1.129 -0.1748 -0.0869 -0.0226
 4405W        W24685   4.752  14.568   1.746  0.2252  0.1418 -0.0191
 4406W        W24686  17.187   8.167  11.254 -0.0971  0.3602  0.3276
 4407W        W24687  17.308   2.438   4.218  0.2338 -0.1036 -0.1080
 4408W        W24688  13.355  14.254  11.653 -0.1129 -0.0125 -0.1295
 4409W        W24689  14.301   4.306  12.469 -0.0690 -0.0837 -0.1527
 4410W        W24690  15.324   1.392   4.031  0.1533  0.2802 -0.2341
 4411W        W24691   6.625  18.426  12.087 -0.0979  0.1294  0.1145
 4412W        W24692   6.579   0.378  10.691 -0.0582  0.0954 -0.0978
 4413W        W24693   4.095  13.758  12.507  0.0031 -0.0191 -0.0875
 4414W        W24694  10.166  18.350  11.788 -0.0514 -0.1552  0.2151
 4415W        W24695   3.615   2.137   2.286 -0.0261  0.1070 -0.0140
 4416W        W24696   7.539  13.684   2.979  0.2472 -0.3577 -0.0446
 4417W        W24697   9.926  12.971   0.354  0.2730 -0.0145 -0.1751
 4418W        W24698   0.822  15.178  10.065  0.1343  0.0555  0.0059
 4419W        W24699  12.906   6.941   4.461  0.1446 -0.2232 -0.0186
 4420W        W24700   6.276   7.065   2.648 -0.1107  0.1400 -0.0627
 4421W        W24701  11.303  16.907  10.843  0.0025  0.0617  0.1148
 4422W        W24702   8.084  14.766  12.380  0.0114  0.1050 -0.1110
 4423W        W24703  18.405  13.878   2.226 -0.1091  0.0237  0.3812
 4424W        W24704   4.457  17.633  10.328 -0.1638 -0.0070  0.3291
 4425W        W24705   6.916   9.533  12.528  0.2513 -0.0128 -0.1478
 4426W        W24706  18.673  15.343   3.898  0.0924  0.0091 -0.1518
 4427W        W24707  16.790   8.934   4.742  0.2574  0.0845 -0.4431
 4428W        W24708  18.105  12.325   0.700  0.1654 -0.0087  0.0173
 4429W        W24709   8.540  18.035   3.860  0.1178 -0.2756 -0.1138
 4430W        W24710  16.062   6.565   3.332 -0.1969 -0.0199  0.0899
 4431W        W24711  11.059   8.017   1.008  0.1607  0.1935 -0.0098
 4432W        W24712   7.669  16.284  13.378  0.3019  0.0679 -0.1305
 4433W        W24713   0.498   1.121   1.165 -0.4641  0.1113 -0.2617
 4434W        W24714  15.441  11.401  12.057 -0.1974  0.4193 -0.2635
 4435W        W24715   4.518   6.075   1.100  0.1572 -0.0468  0.0631
 4436W        W24716   0.775   7.004   4.658 -0.4615  0.1602 -0.0083
 4437W        W24717  12.074  16.266  12.177  0.1067 -0.1931 -0.0212
 4438W        W24718   9.777  15.095  12.651 -0.2069  0.1128 -0.0407
 4439W        W24719  17.339  14.567   3.319 -0.2910  0.0574 -0.1738
 4440W        W24720   3.980   1.270  11.443 -0.0567 -0.1134  0.0366
 4441W        W24721   9.904   3.267   0.857  0.0336  0.0940  0.1090
 4442W        W24722   8.782   3.726  11.538 -0.1751 -0.1776 -0.1416
 4443W        W24723  15.305   5.713   0.782  0.3977 -0.2553  0.2005
 4444W        W24724  11.159   3.827   1.670  0.2615  0.0355 -0.3363
 4445W        W24725  13.806  10.612   2.746 -0.0506  0.2069  0.0129
 4446W        W24726  16.590  15.327   1.488 -0.2558  0.0267 -0.1742
 4447W        W24727  14.761  11.767  12.806 -0.0830  0.0196 -0.0885
 4448W        W24728  10.710   2.009  14.213  0.1762 -0.1960 -0.1019
 4449W        W24729   1.448  15.647  12.181  0.2209  0.0903  0.2667
 4450W        W24730  14.082  13.683   0.692  0.0540  0.0435 -0.0895
 4451W        W24731  17.681   1.405   1.533 -0.1394  0.0254  0.2893
 4452W        W24732  14.313  13.789  13.192 -0.0615 -0.1167  0.0082
 4453W        W24733   3.017  18.599   2.532  0.1795  0.1726  0.0015
 4454W        W24734  16.018  15.550  13.163  0.2206 -0.0071 -0.1066
 4455W        W24735  11.640  18.485   1.803  0.0102 -0.3801  0.0360
 4456W        W24736  11.453  18.399   2.844 -0.2669 -0.2333  0.0898
 4457W        W24737  17.566   3.578   2.270 -0.0363 -0.3192 -0.0611
 4458W        W24738  12.511  17.668   1.010 -0.1299 -0.1283  0.2418
 4459W        W24739   3.838  10.206   2.995 -0.0440 -0.2868  0.1356
 4460W        W24740   4.727  10.264   2.777  0.0454 -0.0134 -0.1327
 4461W        W24741   6.156   7.421  11.710  0.2372  0.1462 -0.3535
 4462W        W24742  16.883  18.200  10.361 -0.0165 -0.4131 -0.1552
 4463W        W24743   7.431   4.822  12.190  0.0334 -0.0372 -0.2620
 4464W        W24744  13.785  13.705  11.383 -0.1622 -0.1451 -0.2586
 4465W        W24745  11.116   2.814  13.619  0.2343  0.1379  0.0087
 4466W        W24746   9.132  12.635  12.505  0.1535 -0.0257 -0.0003
 4467W        W24747  15.519  17.551   3.678 -0.0455 -0.2429 -0.0458
 4468W        W24748   1.043  11.395   3.563  0.2699 -0.0760  0.2609
 4469W        W24749   3.438   6.325  10.929 -0.0142  0.2968 -0.2022
 4470W        W24750  14.151  11.244   4.657 -0.1129  0.2605 -0.3846
 4471W        W24751   1.839  11.261   1.050 -0.0286  0.1038 -0.0438
 4472W        W24752   0.788  11.385  15.237  0.1862 -0.0363 -0.1954
 4473W        W24753   8.482   1.114   2.028 -0.0009 -0.4032 -0.1452
 4474W        W24754   6.742   7.234  14.321  0.0414 -0.2920 -0.0619
 4475W        W24755   7.997  13.830  10.502 -0.0706 -0.0891 -0.1174
 4476W        W24756   3.543   6.279  15.331  0.1852  0.2470 -0.0173
 4477W        W24757  15.561  16.363   3.407 -0.0844  0.1505 -0.2235
 4478W        W24758  17.911   7.333   3.949 -0.1057 -0.0197 -0.1383
 4479W        W24759   3.523  15.151   1.722  0.1991  0.2622  0.0222
 4480W        W24760  10.614  16.169   0.058  0.0721 -0.1839  0.0030
 4481W        W24761   5.987   3.315   3.817  0.0613  0.0985 -0.1541
 4482W        W24762   5.154   3.558   2.210  0.2848  0.1261  0.0421
 4483W        W24763  10.896   8.167  13.564  0.1668  0.1227 -0.1812
 4484W        W24764   9.092  18.094  12.540  0.3431 -0.2074 -0.0555
 4485W        W24765   4.237   9.480   2.387  0.0392  0.2182 -0.0289
 4486W        W24766   6.473  18.343  11.478  0.0387 -0.1022 -0.2042
 4487W        W24767  10.262  16.314  11.199 -0.0485  0.0479  0.0546
 4488W        W24768   1.893   9.198  13.013 -0.0152 -0.1378  0.2349
 4489W        W24769  15.147  15.545  12.911  0.2484 -0.2737 -0.2940
 4490W        W24770   1.711  11.297   1.718  0.0020  0.1397 -0.4017
 4491W        W24771  11.450   0.789  15.059 -0.1499  0.4389 -0.1169
 4492W        W24772  15.903   9.025  13.033  0.2576 -0.0637  0.2188
 4493W        W24773  10.688   2.215   0.528  0.0160  0.1207 -0.0312
 4494W        W24774   1.230   6.046   3.916 -0.4081 -0.2725  0.2310
 4495W        W24775  14.498  18.590   2.308  0.2116 -0.0372  0.0682
 4496W        W24776   1.788   3.591   3.936  0.1440  0.0608  0.0838
 4497W        W24777  14.634   2.205   0.669  0.0420  0.0467  0.2628
 4498W        W24778  10.611   6.511  12.862 -0.0303  0.1102 -0.0670
 4499W        W24779   3.687   9.109   1.234  0.3392  0.2197  0.1945
 4500W        W24780  12.374   1.085  14.590 -0.2374  0.1496 -0.1527
 4501W        W24781   1.635   5.366  11.233 -0.3140 -0.0710  0.0308
 4502W        W24782  14.228  18.124  15.031  0.2337 -0.0299  0.1698
 4503W        W24783  18.077  10.713  11.941 -0.2267  0.0886  0.0500
 4504W        W24784  17.323   4.119   3.830  0.0474  0.1268  0.0956
 4505W        W24785  15.397   4.823   2.430  0.0400  0.2324 -0.0997
 4506W        W24786  15.151  12.917  14.293  0.1145 -0.1121  0.2894
 4507W        W24787   1.206   0.762  13.419 -0.1960 -0.0392  0.0565
 4508W        W24788  15.494  18.020   1.634 -0.3446  0.0057 -0.0080
 4509W        W24789  12.570  16.775   1.532  0.0519 -0.1247 -0.0940
 4510W        W24790   8.101   6.791  12.638  0.1793 -0.2319  0.2983
 4511W        W24791  16.091  15.201  13.931  0.1395 -0.1049  0.5785
 4512W        W24792  12.842   8.436   0.442 -0.2301  0.0633 -0.1105
 4513W        W24793   0.397  18.571   1.005  0.1734 -0.2940 -0.3682
 4514W        W24794  15.154  12.075   0.973 -0.4639  0.0985  0.2281
 4515W        W24795   2.447   6.850  13.677 -0.2044 -0.0406 -0.0736
 4516W        W24796  13.597  18.371  13.544 -0.2785  0.0170 -0.0851
 4517W        W24797  14.431   2.347   4.118 -0.1283 -0.3007  0.1043
 4518W        W24798  11.403   8.887   3.933  0.0872  0.3201 -0.0385
 4519W        W24799   5.652  15.186   0.440  0.0228 -0.2743  0.2216
 4520W        W24800  16.411  18.295  12.936 -0.0190 -0.1915  0.0624
 4521W        W24801   1.828  13.500   0.266 -0.0043 -0.1020  0.0592
 4522W        W24802   9.271  13.292  10.769  0.0283  0.3755  0.0891
 4523W        W24803  13.985   7.377  12.658  0.0873 -0.2362  0.1181
 4524W        W24804   6.032  17.411  11.631  0.0186 -0.4232 -0.1006
 4525W        W24805  17.364   5.357   2.855  0.2887 -0.0027  0.0401
 4526W        W24806   8.653   3.923  12.656 -0.0185 -0.1319  0.0200
 4527W        W24807  16.744   6.078  14.557  0.2446 -0.0252  0.0746
 4528W        W24808   3.683   1.485   1.839 -0.2755  0.1307 -0.0723
 4529W        W24809  10.538  16.193   3.139 -0.0627  0.1378  0.1515
 4530W        W24810   6.031   9.732  13.141 -0.3905  0.0873  0.1700
 4531W        W24811   5.762  16.439  12.876  0.2000  0.0559 -0.3089
 4532W        W24812   4.712  16.402   2.444 -0.0834 -0.1445  0.2912
 4533W        W24813   5.578  13.425   0.252 -0.1545  0.0079 -0.0907
 4534W        W24814   4.240   4.431   2.760 -0.2699 -0.0888 -0.3373
 4535W        W24815   4.026  18.604   2.520 -0.1236  0.3010  0.1305
 4536W        W24816  11.349   0.065  12.084  0.1397  0.1526 -0.0712
 4537W        W24817  13.729  16.690   0.809  0.2199  0.1035  0.0860
 4538W        W24818   2.586   7.447  11.095  0.2024  0.0176  0.2877
 4539W        W24819   6.910   6.582  15.331  0.1765 -0.1407 -0.1519
 4540W        W24820  16.405  12.047   2.770  0.2974  0.0182 -0.1030
 4541W        W24821  11.690   1.803  12.065 -0.0631 -0.0607 -0.0509
 4542W        W24822   2.159  12.399  11.161  0.1210 -0.0715  0.0031
 4543W        W24823  18.345  17.371  13.641 -0.0529 -0.1247  0.1563
 4544W        W24824   2.898   6.394   2.741  0.1400  0.1008 -0.2127
 4545W        W24825  16.327  16.690   4.649  0.2662  0.0490 -0.1521
 4546W        W24826   0.625   0.505  14.716  0.0108 -0.1042 -0.0989
 4547W        W24827  11.436   9.138   0.894  0.0494 -0.0111 -0.1101
 4548W        W24828  16.438   8.227  12.780 -0.0569  0.1153 -0.0086
 4549W        W24829  12.730  11.110  14.218 -0.0517 -0.1633 -0.0982
 4550W        W24830   5.326   9.785  10.558  0.1516 -0.1229  0.0387
 4551W        W24831  14.545   8.817  14.079 -0.4166  0.2426 -0.2051
 4552W        W24832   6.911   8.719   0.325 -0.0882 -0.0717  0.2483
 4553W        W24833  17.149   0.981   2.675 -0.0668 -0.0180  0.2168
 4554W        W24834   2.659   5.932  12.498  0.0671 -0.1900 -0.2037
 4555W        W24835   4.056   5.281   0.224  0.0907  0.0885  0.1664
 4556W        W24836   4.344   0.439   2.343  0.1161 -0.0941  0.0633
 4557W        W24837   9.138  15.222  14.340 -0.0098  0.2091 -0.0540
 4558W        W24838  10.601  13.015  11.917  0.0388  0.2031  0.0611
 4559W        W24839   4.194  12.490  11.280  0.0195 -0.2206 -0.1007
 4560W        W24840   0.763  15.321   3.385  0.1809  0.2940  0.2254
 4561W        W24841  12.525  16.522   2.441 -0.3443  0.0983 -0.3425
 4562W        W24842  18.161   3.866  11.246 -0.0541 -0.0825 -0.1962
 4563W        W24843  15.310   6.115   4.423  0.0628  0.0808  0.0283
 4564W        W24844   1.893  13.577  12.965 -0.1251  0.1236 -0.1858
 4565W        W24845  12.008   3.988   2.094  0.0313 -0.0675 -0.2131
 4566W        W24846   6.169  11.019   4.412 -0.0366 -0.3540 -0.3507
 4567W        W24847   7.676  15.994  11.148  0.0212 -0.1485 -0.1713
 4568W        W24848   0.589  11.866  12.573  0.4744 -0.2108 -0.0607
 4569W        W24849   9.800  18.621   3.008 -0.3763 -0.2141  0.2477
 4570W        W24850   0.177  13.096  14.359  0.1446  0.1321  0.3873
 4571W        W24851   4.862   8.958  11.401  0.0556 -0.3596  0.1805
 4572W        W24852   6.101  11.538   4.452  0.4247  0.4316  0.0180
 4573W        W24853  11.292  10.046  12.409 -0.2577  0.0817  0.0860
 4574W        W24854   0.608  17.691  11.685  0.0035 -0.2367 -0.1204
 4575W        W24855  11.811   9.219  10.660 -0.4997 -0.1491  0.0965
 4576W        W24856   6.399   9.931  14.497  0.1682 -0.2005  0.0558
 4577W        W24857  10.244   7.893  14.885 -0.0868 -0.1149  0.1074
 4578W        W24858  14.927  13.802  13.426  0.2792 -0.2313  0.2102
 4579W        W24859   8.292  10.193   2.602 -0.1364 -0.0119 -0.1896
 4580W        W24860  16.752  11.735  11.629  0.0169 -0.0715  0.1149
 4581W        W24861   0.005  10.745   0.977  0.2146  0.1027  0.0493
 4582W        W24862  13.798  15.628  14.920  0.0538 -0.3240  0.4210
 4583W        W24863  12.259  10.245   1.718 -0.0649 -0.2215 -0.3695
 4584W        W24864   1.981  18.512  13.436  0.3093  0.0751  0.0850
 4585W        W24865   5.602   3.317   3.503  0.0275  0.1833  0.1784
 4586W        W24866   1.699  15.014  14.223 -0.2072  0.0317 -0.0828
 4587W        W24867  10.410  13.310  11.524  0.2429  0.2088  0.2017
 4588W        W24868   3.015   6.777   3.466 -0.0819  0.0392  0.0138
 4589W        W24869  16.124   4.091   2.985 -0.2876  0.0261  0.1476
 4590W        W24870  10.115   6.800   1.168  0.0656 -0.1202 -0.1647
 4591W        W24871  12.526   4.247  13.360  0.0791  0.0729 -0.1818
 4592W        W24872   2.219   2.565   2.223 -0.2515  0.1471  0.1408
 4593W        W24873   6.696  10.963   0.137 -0.2581  0.1134 -0.0379
 4594W        W24874   7.719  17.602  12.309 -0.2247 -0.2450 -0.3491
 4595W        W24875  13.364  17.496   0.572  0.2304 -0.0339  0.1423
 4596W        W24876  14.819  10.318  15.365  0.3719 -0.2054  0.2073
 4597W        W24877   0.853  11.853  11.565  0.0336 -0.1992 -0.6427
 4598W        W24878   7.924  11.174   4.646  0.0412  0.2587 -0.1156
 4599W        W24879  17.069  16.325   3.534 -0.2317  0.2422  0.1230
 4600W        W24880   9.996   8.147   2.674 -0.2616  0.0919 -0.2384
 4601W        W24881   7.272  11.048  14.678 -0.0737  0.0655  0.1267
 4602W        W24882  13.914  11.717   0.488  0.3230  0.1828 -0.0314
 4603W        W24883   3.947   0.103   3.474  0.0542  0.2029 -0.3144
 4604W        W24884   8.190   4.943   0.909  0.0340  0.1406 -0.0100
 4605W        W24885  11.028   5.410   4.977  0.2705 -0.4333 -0.2814
 4606W        W24886   0.616   8.946  12.346  0.1750 -0.0114  0.1337
 4607W        W24887  14.754  16.214  13.035 -0.4257  0.2060  0.0227
 4608W        W24888  11.113  15.036   4.051 -0.3539 -0.0216  0.0881
 4609W        W24889  18.557  10.861  11.998 -0.1460  0.1493  0.2529
 4610W        W24890  14.470  16.020  12.232  0.2231  0.0538 -0.0133
 4611W        W24891   0.381   2.795   5.291  0.1768  0.2893  0.0709
 4612W        W24892   2.969   9.335  13.328 -0.0186  0.2253  0.0698
 4613W        W24893   4.456  10.540  14.325 -0.2310  0.4011 -0.1986
 4614W        W24894   1.332   1.919   0.770 -0.3347  0.3127 -0.1291
 4615W        W24895   9.795  16.783   4.426 -0.2035 -0.0537  0.1317
 4616W        W24896  11.756  17.270  14.517 -0.1077  0.0526 -0.0116
 4617W        W24897  15.300   4.508   0.317 -0.0048 -0.1134 -0.0532
 4618W        W24898  11.392   6.816   1.544 -0.0058  0.0038 -0.0890
 4619W        W24899   7.208   4.057  13.834 -0.0182  0.0631 -0.0117
 4620W        W24900  16.729  12.845   3.153 -0.0539 -0.0185 -0.0311
 4621W        W24901   6.194   7.673  13.779 -0.0246 -0.1645 -0.0661
 4622W        W24902  15.744  17.604  14.554  0.0858  0.2772  0.2557
 4623W        W24903   4.921   7.444  11.761 -0.3096 -0.0374  0.1452
 4624W        W24904  17.490   8.234  13.184 -0.1871 -0.2489 -0.0837
 4625W        W24905  11.711   6.144   1.057 -0.0638  0.0872  0.0533
 4626W        W24906   0.702   3.462   2.196 -0.0956  0.2740  0.1095
 4627W        W24907   1.027   6.712   1.626 -0.0394 -0.0475 -0.1024
 4628W        W24908   4.116   1.591   3.005  0.3157 -0.0330 -0.0221
 4629W        W24909   4.821   4.896   1.909 -0.3220 -0.0990 -0.1607
 4630W        W24910  16.880   4.606   0.207  0.1673 -0.0625  0.1075
 4631W        W24911  17.985   5.324   4.239 -0.0303 -0.1728  0.1111
 4632W        W24912   6.540  10.998  14.583  0.0109 -0.0186  0.2364
 4633W        W24913   0.464   2.162  12.711  0.1050 -0.1575  0.3645
 4634W        W24914   5.886   6.385  15.040 -0.3889 -0.2381  0.2792
 4635W        W24915  18.646   0.504   0.695 -0.3515 -0.0042 -0.0658
 4636W        W24916  13.837   3.790   3.822  0.1483  0.0411 -0.1885
 4637W        W24917   2.383   1.317  12.798 -0.1348 -0.0899 -0.0957
 4638W        W24918   6.963   0.970  14.808  0.0088  0.6596  0.1983
 4639W        W24919   4.398  15.430  12.570  0.0043 -0.0515 -0.1086
 4640W        W24920  12.233  17.701   0.440 -0.0014 -0.2217  0.0160
 4641W        W24921   8.143   7.356  12.607 -0.1619  0.2376  0.2503
 4642W        W24922  14.982   7.307  12.647 -0.0864 -0.0519  0.2143
 4643W        W24923   0.338  11.378  12.828 -0.0050 -0.0834  0.2185
 4644W        W24924  16.903  11.006  11.304  0.1144 -0.1305  0.1044
 4645W        W24925   8.507  11.537  12.340 -0.1021 -0.0259  0.0801
 4646W        W24926   6.499   1.182   2.562  0.1862 -0.1888 -0.1863
 4647W        W24927  11.998  15.007  15.166  0.0163 -0.0705 -0.1351
 4648W        W24928  16.469   6.539   1.664  0.0677  0.0848  0.1715
 4649W        W24929   8.831   4.110  15.045  0.0394  0.3777 -0.1390
 4650W        W24930   2.959   3.918   0.418  0.1351 -0.3546  0.0327
 4651W        W24931  13.707   9.356  14.865 -0.2035 -0.3461  0.1606
 4652W        W24932   9.668   3.897   2.065  0.0246  0.0912 -0.0978
 4653W        W24933   8.464   8.299   3.542 -0.1563 -0.1578  0.0079
 4654W        W24934   2.302   3.784   2.923 -0.2100  0.2670  0.4619
 4655W        W24935   2.915   4.559  11.063  0.0653 -0.3342  0.0514
 4656W        W24936   7.838  15.516  11.827  0.2636  0.0861  0.3424
 4657W        W24937  12.488   0.124  14.461  0.0347 -0.2304 -0.2845
 4658W        W24938  12.548   4.733   3.075  0.1642 -0.2044 -0.0335
 4659W        W24939  13.591  17.214   3.597  0.0577 -0.1680 -0.1307
 4660W        W24940   7.689  14.990   1.560 -0.0941 -0.2780 -0.1925
 4661W        W24941   3.933   4.944   2.899 -0.2662 -0.1238  0.0429
 4662W        W24942   7.770  14.137  11.859  0.0303 -0.1046 -0.0095
 4663W        W24943  11.282   7.148   1.148  0.1392  0.0914 -0.1652
 4664W        W24944  14.259   5.886  13.716 -0.2282 -0.1496  0.2110
 4665W        W24945   5.073   0.245  12.433 -0.2416  0.3565  0.1335
 4666W        W24946  13.261   2.644   3.421  0.2272  0.3089 -0.1141
 4667W        W24947   7.814   8.704   2.979  0.1674  0.2231 -0.0758
 4668W        W24948   1.842  17.926   3.771  0.0801 -0.0324 -0.0996
 4669W        W24949  10.909  17.718   0.284  0.0246  0.0528 -0.0373
 4670W        W24950   4.708   0.666  13.091 -0.2594  0.3281  0.0184
 4671W        W24951   0.579   3.327  13.784  0.0668 -0.2146  0.1213
 4672W        W24952  17.056   6.847  14.762  0.0185 -0.0089  0.5212
 4673W        W24953  16.546  18.503  12.426 -0.3057  0.1436  0.2484
 4674W        W24954  12.695   5.827  14.740  0.0680  0.2502  0.0357
 4675W        W24955  10.546  14.273   1.514 -0.1083  0.2730  0.0460
 4676W        W24956   0.350  14.967   4.574  0.1783  0.1176 -0.0774
 4677W        W24957  17.443  10.933   2.889 -0.0335  0.0478  0.0081
 4678W        W24958   5.054  14.363   0.497  0.2094  0.0826  0.2406
 4679W        W24959   8.130   2.657   4.513 -0.0957  0.1590  0.1228
 4680W        W24960   8.126  13.092   0.616 -0.2052 -0.0474 -0.1089
 4681W        W24961  11.187  11.445  10.960  0.3022 -0.0790 -0.2727
 4682W        W24962  14.232  11.407  13.694 -0.1025 -0.2944 -0.0764
 4683W        W24963  12.265   5.921  11.549 -0.0840 -0.1838  0.0103
 4684W        W24964   0.722   2.929  14.797 -0.1549 -0.1080 -0.1494
 4685W        W24965   0.376   0.978   0.625 -0.3338 -0.0329 -0.0773
 4686W        W24966   5.509  18.616  10.446 -0.1007  0.0157  0.4181
 4687W        W24967  16.052  16.147  11.851 -0.1194  0.1935  0.1954
 4688W        W24968   4.642   2.490  12.795 -0.0642  0.0510 -0.0660
 4689W        W24969   7.809   5.024  12.935 -0.0985 -0.1460  0.3780
 4690W        W24970   3.609   8.540   0.938 -0.0302  0.2017 -0.1498
 4691W        W24971  18.000   3.799  13.495 -0.0335 -0.1069  0.1379
 4692W        W24972   4.196  16.751   0.838  0.1537 -0.1020 -0.2569
 4693W        W24973   0.958   2.729  12.553  0.0355 -0.1326 -0.0475
 4694W        W24974  10.020  11.273   0.982 -0.1397 -0.3494 -0.0700
 4695W        W24975  13.688  18.573   1.824  0.3773 -0.2929 -0.0014
 4696W        W24976  18.473  13.252   3.820  0.1103 -0.2039 -0.0973
 4697W        W24977   4.956  18.602   1.335 -0.1917 -0.3341  0.1059
 4698W        W24978   0.999  18.166   0.386 -0.1721 -0.1058 -0.2647
 4699W        W24979  13.299  16.484   1.172  0.3145  0.0262 -0.1005
 4700W        W24980  13.204  16.684   0.740  0.0082 -0.0572 -0.0348
 4701W        W24981   5.024   9.233  11.811  0.5538  0.2727 -0.2217
 4702W        W24982  13.221  16.236  12.004 -0.0987 -0.0151  0.0560
 4703W        W24983  15.645  14.506  15.071 -0.3819  0.3755  0.1703
 4704W        W24984  17.725  15.693   0.403  0.0795  0.0461 -0.3531
 4705W        W24985   9.643   9.606   1.176 -0.1953 -0.1566  0.0348
 4706W        W24986  16.976  13.926  11.409  0.2366  0.3496 -0.2276
 4707W        W24987   3.230   9.175   2.913  0.0570 -0.0028  0.0540
 4708W        W24988   3.055  11.207  11.089 -0.1122 -0.3386 -0.1515
 4709W        W24989   8.797   4.824  12.370 -0.2635 -0.0446  0.0137
 4710W        W24990   8.365  12.218   3.677  0.1510 -0.1270 -0.1896
 4711W        W24991   6.842   0.825   1.029 -0.0608  0.2943  0.0275
 4712W        W24992   6.952   2.875  13.233  0.0821 -0.0855 -0.0618
 4713W        W24993  10.597  15.174   2.230 -0.2715 -0.2128 -0.0400
 4714W        W24994  18.350  15.505  13.020 -0.2469 -0.0944  0.1279
 4715W        W24995   7.460   9.632   1.410 -0.0150  0.0316  0.0543
 4716W        W24996  15.900   3.482   3.475 -0.2000 -0.2534 -0.2039
 4717W        W24997  12.379  12.540  13.634  0.0529  0.1771 -0.0510
 4718W        W24998   7.436  14.293  11.551  0.0641 -0.2583 -0.1885
 4719W        W24999  12.215   8.228   2.450 -0.0132 -0.2103 -0.0838
 4720W        W25000  14.127  14.674   1.733 -0.2468 -0.1956 -0.0579
 4721W        W25001  15.942  17.928  13.591 -0.0584  0.1448  0.0148
 4722W        W25002   5.452  18.430   2.435 -0.0356  0.2430 -0.1387
 4723W        W25003   0.517   3.082   3.131 -0.1581 -0.0642  0.0194
 4724W        W25004  13.072   6.835  14.019  0.0969 -0.0454 -0.3240
 4725W        W25005   9.396   0.502   0.470  0.2810  0.0747  0.0263
 4726W        W25006   4.783   7.591  15.278  0.1171  0.1939  0.0775
 4727W        W25007  12.592  11.759  14.906  0.0007  0.0546  0.1224
 4728W        W25008  14.308  12.613  15.201  0.2020  0.1104 -0.1949
 4729W        W25009  14.650   9.272  13.805 -0.2800  0.2335  0.2621
 4730W        W25010   6.828   7.696   0.424  0.0321  0.1846 -0.1206
 4731W        W25011  18.035  17.794  13.623  0.1713 -0.0888  0.2155
 4732W        W25012  16.707  15.439  12.429 -0.0421  0.1080  0.2331
 4733W        W25013  12.782   0.055   4.350  0.0709  0.2767  0.1755
 4734W        W25014   9.680  11.980   3.304 -0.2267  0.0077 -0.1330
 4735W        W25015  16.006  18.067  12.340 -0.3384  0.1178 -0.0016
 4736W        W25016   4.236   0.286  15.346 -0.2807 -0.1663  0.0896
 4737W        W25017  15.332  14.232   4.094  0.2893  0.1660  0.0240
 4738W        W25018   9.698   9.235  12.859 -0.0455  0.0775  0.3269
 4739W        W25019  16.373  15.367  12.830  0.0257  0.0019 -0.2791
 4740W        W25020   0.929   3.710   0.313  0.0973  0.0598  0.1291
 4741W        W25021   3.182  16.272  11.805  0.0899  0.1392 -0.1015
 4742W        W25022  12.924  17.231  13.810  0.3118 -0.0044  0.1992
 4743W        W25023  10.405  14.420  15.188  0.0257 -0.2209  0.1915
 4744W        W25024   9.330   9.257   2.504 -0.0064  0.0050  0.3666
 4745W        W25025  16.249   7.503   0.920 -0.0947  0.2110  0.1620
 4746W        W25026   8.813   4.057   2.819 -0.1071 -0.0082 -0.0837
 4747W        W25027  11.534  16.458  14.651 -0.0977  0.0187 -0.0129
 4748W        W25028  13.510  17.413  13.760 -0.0402  0.3298  0.2441
 4749W        W25029  11.596   0.994   3.428  0.0278 -0.3261 -0.0732
 4750W        W25030   0.822   5.484  13.326  0.0732  0.0477  0.0029
 4751W        W25031   1.754   7.012   1.176 -0.0300 -0.0298  0.3803
 4752W        W25032   7.470   5.453   0.737 -0.1632  0.0093  0.1028
 4753W        W25033   9.801  18.397   3.483 -0.0520 -0.0810  0.0902
 4754W        W25034   5.953   2.824  12.743 -0.1153  0.0996  0.1480
 4755W        W25035   5.742  10.837  14.176 -0.2366  0.2249 -0.0836
 4756W        W25036  10.993  10.814   1.093  0.2161  0.1965 -0.2540
 4757W        W25037   1.572   6.778   0.765 -0.2602  0.2804  0.0952
 4758W        W25038   3.322  11.783  12.736 -0.2473 -0.0828 -0.2080
 4759W        W25039   0.373   9.802  12.417  0.1439 -0.2066 -0.2917
 4760W        W25040  14.518   0.316  14.872  0.5319 -0.0343 -0.5555
 4761W        W25041   2.259   8.830  13.155 -0.0564  0.2653  0.1404
 4762W        W25042  14.585  13.769   4.439  0.1166  0.0534  0.1792
 4763W        W25043   9.331  13.152  11.804 -0.2110 -0.0055 -0.0972
 4764W        W25044  13.508   9.539  13.470  0.0057  0.0778  0.1872
 4765W        W25045  15.042   4.457  12.282  0.1333  0.3230 -0.0101
 4766W        W25046  13.291   2.285  12.945 -0.2141 -0.1583 -0.1003
 4767W        W25047   8.200  12.013   3.083  0.0996  0.0389  0.2110
 4768W        W25048   6.057  11.974  13.234 -0.1156  0.2341  0.1805
 4769W        W25049   3.377  11.798  14.037  0.2613  0.1433  0.2154
 4770W        W25050  17.417  18.280   1.118  0.2950  0.1853  0.2793
 4771W        W25051   9.444   6.737   4.468 -0.0899  0.0301  0.2010
 4772W        W25052   6.511   6.051   0.125  0.0319  0.0243 -0.2245
 4773W        W25053   2.528  12.609   4.675 -0.1480 -0.1008 -0.0887
 4774W        W25054   8.605   3.787  14.709 -0.2754  0.1602 -0.1316
 4775W        W25055  13.218  10.941  14.533  0.1444 -0.2659  0.0255
 4776W        W25056   3.067  13.541  12.449 -0.0475  0.0315  0.2881
 4777W        W25057   1.746  14.437  12.046 -0.0851  0.3110 -0.1916
 4778W        W25058   9.848  14.922  11.453  0.1025 -0.0408  0.1547
 4779W        W25059  12.368  15.322  13.972 -0.0643  0.0850  0.1154
 4780W        W25060   5.738  11.197  10.976 -0.0678 -0.1432  0.3057
 4781W        W25061   2.646  10.369  13.358  0.0232  0.1622 -0.0886
 4782W        W25062  15.971  12.137   2.948  0.2520 -0.0369  0.1058
 4783W        W25063  18.304   1.803   2.289  0.1960  0.0637  0.2299
 4784W        W25064  13.682   7.600   4.183  0.2495 -0.4453 -0.4822
 4785W        W25065  14.753  17.627   0.261  0.2383 -0.3941 -0.0792
 4786W        W25066   0.464  12.739   3.562  0.1488 -0.0459  0.1206
 4787W        W25067   3.189  10.119  11.403 -0.2474  0.0050  0.1708
 4788W        W25068  10.983   2.714   2.706 -0.1120 -0.0828 -0.1369
 4789W        W25069  13.338   3.268   4.323 -0.0588 -0.0420 -0.0874
 4790W        W25070  15.207   9.819   1.308  0.3767  0.2718 -0.1582
 4791W        W25071   8.609  16.106  12.937 -0.2218 -0.1407 -0.1079
 4792W        W25072  11.807  16.428  13.112  0.1052 -0.1112 -0.2193
 4793W        W25073  15.094   7.536   3.180  0.0741  0.2441 -0.0531
 4794W        W25074   5.210   5.710  11.606 -0.4029  0.0744 -0.0820
 4795W        W25075  13.725   2.611   3.108  0.0122 -0.0237  0.3268
 4796W        W25076   3.955   7.435   0.790 -0.1311  0.0617  0.1326
 4797W        W25077  14.771  11.872   1.755  0.2074 -0.0745  0.1533
 4798W        W25078  13.582  18.642   5.126  0.0134 -0.0681 -0.1342
 4799W        W25079   5.291   3.004   0.099 -0.1890 -0.3629  0.1881
 4800W        W25080   5.627   9.648   0.081 -0.0215 -0.2059 -0.2004
 4801W        W25081   6.561   9.230   1.665  0.2783  0.4460  0.0883
 4802W        W25082  11.555   6.298  13.358 -0.1382 -0.0291  0.1905
 4803W        W25083  11.615   2.230  14.234  0.1307 -0.0333  0.1077
 4804W        W25084   0.124   4.322   1.769  0.1467  0.1034 -0.1179
 4805W        W25085   5.820   3.960  13.648  0.1099  0.4084 -0.0539
 4806W        W25086  15.409  14.106   3.204  0.0961  0.0687  0.0345
 4807W        W25087   1.707  18.388  12.498  0.1089 -0.2332  0.1965
 4808W        W25088  14.765   7.721  12.976 -0.0581  0.0980 -0.2526
 4809W        W25089   0.392  13.349  12.467 -0.2239  0.1383  0.0861
 4810W        W25090  10.097  15.463  12.573 -0.0579  0.0685 -0.1221
 4811W        W25091  16.258   5.564  14.285 -0.0800 -0.1330 -0.1536
 4812W        W25092  13.218   1.814   0.168 -0.1072  0.0542 -0.0934
 4813W        W25093  18.697   3.797   4.167 -0.1564 -0.0219  0.1468
 4814W        W25094   5.640  18.536   2.930  0.2263  0.1043 -0.1946
 4815W        W25095   8.569  11.969  11.519 -0.1943  0.3016 -0.2265
 4816W        W25096  11.010  14.264   1.168  0.3472  0.0821  0.1623
 4817W        W25097  16.679   6.599   4.569  0.1536  0.0973  0.0320
 4818W        W25098  12.298   4.319   4.010  0.3597  0.1875 -0.1535
 4819W        W25099   4.019   2.594   3.160 -0.2176 -0.0288 -0.0643
 4820W        W25100  12.431  12.783  14.892  0.2310 -0.0560 -0.1206
 4821W        W25101  17.276   4.802   3.511 -0.1984  0.1372 -0.2410
 4822W        W25102   8.507   3.915   0.058  0.1509 -0.0220 -0.0565
 4823W        W25103   2.502  16.444   2.848  0.2275 -0.1790  0.1218
 4824W        W25104  12.909  12.441  14.523  0.1587 -0.1249 -0.2001
 4825W        W25105  15.500   0.739   1.101  0.1516 -0.4274  0.1729
 4826W        W25106   3.932  18.137  11.100  0.1860 -0.0765  0.2417
 4827W        W25107   7.002  18.580  10.135 -0.0841  0.1267 -0.0381
 4828W        W25108   5.343   7.647   3.547 -0.0151  0.0374 -0.0621
 4829W        W25109   3.292  13.798   4.100  0.0150  0.1846  0.1918
 4830W        W25110   9.088   2.480   3.806  0.0015 -0.0861 -0.0930
 4831W        W25111  10.621  16.126  10.095 -0.0746  0.0847 -0.2045
 4832W        W25112   5.330   7.514   0.607  0.1300 -0.0409  0.0810
 4833W        W25113  17.139  17.869   0.318 -0.1358 -0.0333  0.1246
 4834W        W25114   7.990   8.867   1.779 -0.1537 -0.1173 -0.1585
 4835W        W25115  13.239   3.861  14.555  0.2825  0.1476  0.0807
 4836W        W25116   7.886  15.665  15.324  0.2036  0.0407 -0.3674
 4837W        W25117   6.685   2.508  12.597  0.0324 -0.0195 -0.0674
 4838W        W25118   0.432   3.011   0.684 -0.0082  0.0544  0.1244
 4839W        W25119   2.562  14.430   3.378 -0.2872 -0.2620  0.1710
 4840W        W25120   2.965   1.038   1.832  0.3486 -0.0354  0.1730
 4841W        W25121   6.527   3.416  11.128  0.0383 -0.0081  0.0379
 4842W        W25122  13.860  13.240   3.485 -0.2243  0.0470  0.1181
 4843W        W25123   3.531   4.678   3.125 -0.0296 -0.0569  0.0536
 4844W        W25124  17.635   9.184   0.124 -0.1271  0.0131 -0.0793
 4845W        W25125  16.295   6.185  11.653  0.3168 -0.0709  0.1209
 4846W        W25126  17.242  13.758   2.275  0.0305 -0.1253  0.0578
 4847W        W25127   9.089   2.396   0.418 -0.1601 -0.1200  0.0284
 4848W        W25128   0.671  13.167   3.587 -0.1186 -0.0404 -0.1008
 4849W        W25129   7.622   7.200   4.200 -0.0326 -0.0179 -0.2012
 4850W        W25130   3.367   6.824   1.011 -0.0433  0.0682 -0.0632
 4851W        W25131  13.456   0.493   2.510 -0.1762  0.2120 -0.2692
 4852W        W25132   5.034   0.979  14.328 -0.2243  0.1825 -0.0516
 4853W        W25133  13.712  16.169   2.212  0.1149 -0.0405 -0.0540
 4854W        W25134  18.683   4.656  15.305 -0.0559 -0.3146  0.1002
 4855W        W25135  13.058   0.092   2.450  0.3159 -0.0856 -0.3610
 4856W        W25136   6.458  17.930  12.653  0.1131 -0.0903  0.0861
 4857W        W25137  13.741   8.260  14.004  0.1658 -0.3299 -0.2777
 4858W        W25138   2.499  11.360   2.068  0.0986  0.2097 -0.1830
 4859W        W25139  18.272   2.347  13.979 -0.1662  0.1978  0.0531
 4860W        W25140  10.905   7.780  14.323  0.2062 -0.0510 -0.1866
 4861W        W25141  11.490  14.041   3.088 -0.2045 -0.0589  0.0941
 4862W        W25142  10.869   3.654   3.660  0.2315  0.2054  0.1278
 4863W        W25143   4.544   1.528   1.245 -0.1061  0.0745  0.1121
 4864W        W25144   9.427  17.965  14.225  0.1729 -0.0570 -0.1058
 4865W        W25145  14.005  15.625  13.557  0.1846  0.3581 -0.0355
 4866W        W25146  15.044   5.566  13.246 -0.0333  0.2441 -0.1204
 4867W        W25147   3.732  14.137   0.255  0.0750 -0.1208 -0.2104
 4868W        W25148   6.367   0.644   1.920  0.1490  0.2180  0.1819
 4869W        W25149   7.974  13.776  14.510  0.1722 -0.1673 -0.1976
 4870W        W25150   1.524  10.974   4.040  0.0353 -0.1808  0.1989
 4871W        W25151   0.893  10.325  15.209 -0.0495 -0.1549  0.2161
 4872W        W25152   1.422  14.098  12.362 -0.1009  0.1697  0.2252
 4873W        W25153  11.900   8.596   5.654  0.0799 -0.1914  0.1076
 4874W        W25154  10.160   6.799  14.160 -0.1801 -0.0664  0.0228
 4875W        W25155   2.803  10.635   3.681 -0.0021  0.0374 -0.0490
 4876W        W25156   3.335  14.142   1.138  0.1358  0.2262  0.0261
 4877W        W25157   9.926  16.157   1.842  0.0317 -0.0149  0.0076
 4878W        W25158   4.974   4.519  15.383  0.1859 -0.0834 -0.3069
 4879W        W25159  14.233  10.918   2.086 -0.0146  0.2232 -0.0152
 4880W        W25160   7.168   3.570  11.194 -0.0692  0.0647 -0.3079
 4881W        W25161   2.815  11.937  13.306  0.0074  0.2528 -0.1663
 4882W        W25162  12.548   2.786   1.353 -0.0888 -0.0699  0.1111
 4883W        W25163   0.780  10.312  14.616  0.0303 -0.1066  0.2784
 4884W        W25164   5.657   6.469   1.859 -0.0634  0.2157 -0.3601
 4885W        W25165   1.256  13.348   1.763  0.1788 -0.1536 -0.0404
 4886W        W25166   7.772  10.674   3.668  0.1179 -0.0903  0.0051
 4887W        W25167   1.617  12.735   2.311 -0.0154  0.2315 -0.2076
 4888W        W25168  10.834  10.430  14.880 -0.3536  0.0113 -0.0164
 4889W        W25169  16.107  15.325   3.358 -0.0528 -0.1379  0.3761
 4890W        W25170   8.587   1.372  14.976 -0.0828  0.2188  0.0280
 4891W        W25171   5.761   7.842  11.675  0.3922  0.1327  0.2895
 4892W        W25172   2.137  15.789  12.617  0.1985  0.2216  0.3886
 4893W        W25173  10.347  18.408  11.066  0.0233 -0.0588 -0.3161
 4894W        W25174  11.917  13.527  12.356  0.0810  0.0571  0.1359
 4895W        W25175   4.695  15.528  14.376  0.0422 -0.0177  0.1809
 4896W        W25176   1.269   1.944   3.558  0.2206 -0.0539 -0.2014
 4897W        W25177   1.293   3.072  11.121  0.3339  0.3240  0.0914
 4898W        W25178  10.546  15.177   3.446 -0.0384 -0.0276  0.0957
 4899W        W25179  17.685  13.877   1.471 -0.6917  0.1709 -0.2141
 4900W        W25180   5.660   3.685  12.817 -0.0645 -0.4104  0.2779
 4901W        W25181  15.776  11.659   1.484  0.0883  0.0659  0.4518
 4902W        W25182   5.947  17.059  11.126 -0.1518  0.0812 -0.0463
 4903W        W25183   5.199   3.090  13.309  0.0095 -0.1239  0.1562
 4904W        W25184   0.685   8.888   3.744  0.1349 -0.1448 -0.2431
 4905W        W25185   1.427   3.917   4.180  0.0978  0.2345 -0.0184
 4906W        W25186  13.310   8.783   3.942  0.0454 -0.1732 -0.0622
 4907W        W25187  10.387   3.297  14.615  0.1713  0.2473 -0.2207
 4908W        W25188   4.258  15.956   1.464 -0.4591 -0.0301 -0.0496
 4909W        W25189  13.972  14.673  14.828 -0.4199  0.1310 -0.1172
 4910W        W25190   9.732   2.158  14.660 -0.0761  0.1748  0.1809
 4911W        W25191  13.801   7.194   2.747 -0.2280 -0.0692 -0.1009
 4912W        W25192  17.641  11.340   0.655 -0.2248 -0.2816  0.0264
 4913W        W25193   7.565  17.582   2.290  0.5706 -0.3681 -0.0105
 4914W        W25194   1.805   4.683   3.765  0.0789 -0.1358 -0.0159
 4915W        W25195   9.618   6.718  14.092 -0.0768  0.3371  0.2072
 4916W        W25196  16.747   7.785  13.517  0.3678 -0.1649  0.0825
 4917W        W25197   4.978  12.198   3.149  0.3140  0.0285 -0.0619
 4918W        W25198  12.429   1.607   1.804  0.0573 -0.0676  0.0761
 4919W        W25199  10.482   1.220  10.465 -0.0762  0.0878 -0.1142
 4920W        W25200   3.501   3.070   3.580  0.4280 -0.0953  0.2374
 4921W        W25201  17.757   0.004  10.358  0.0841 -0.0598 -0.4781
 4922W        W25202   1.081   3.242  12.399  0.0981  0.0178 -0.3973
 4923W        W25203   8.701  12.014  11.016 -0.0743  0.0876  0.1431
 4924W        W25204   0.454  12.137  11.289 -0.1934  0.1534 -0.1895
 4925W        W25205  17.419  13.453   0.549  0.0205 -0.0763 -0.3036
 4926W        W25206  15.868   3.563  12.600 -0.1357  0.2692  0.2355
 4927W        W25207   1.121   5.137  14.908  0.1835  0.1216  0.2041
 4928W        W25208   6.067   4.064  12.034  0.0786 -0.1550 -0.0906
 4929W        W25209  11.476  15.264   3.849  0.0757 -0.2875  0.2195
 4930W        W25210  12.407  11.459  13.345 -0.2027 -0.1820 -0.0267
 4931W        W25211   8.509  13.764  14.796  0.4102 -0.2888 -0.3692
 4932W        W25212  15.014   4.263   5.328 -0.3248  0.1520 -0.4644
 4933W        W25213  18.562  15.210   0.399  0.3532  0.0180 -0.0209
 4934W        W25214   0.935   0.629  13.809 -0.1995  0.0333 -0.1089
 4935W        W25215   7.425   6.315  12.808 -0.1244  0.0736 -0.2222
 4936W        W25216   1.673  12.214  14.418 -0.0472  0.0151  0.1264
 4937W        W25217  12.355  12.976  13.964  0.0318  0.0428 -0.1010
 4938W        W25218  15.145  12.804  15.234  0.4523  0.0056 -0.1226
 4939W        W25219   2.641   1.765  15.327 -0.0075 -0.0038 -0.0336
 4940W        W25220   5.986  15.032  12.180  0.1611  0.2278  0.1782
 4941W        W25221   6.850   1.077  13.922  0.2894  0.5450 -0.0940
 4942W        W25222  16.832   8.241   0.941 -0.0856  0.1438 -0.0605
 4943W        W25223   4.906   3.224  11.876 -0.0158  0.1986 -0.0730
 4944W        W25224   1.607   6.888  12.814 -0.0014 -0.2216  0.0895
 4945W        W25225   9.165   6.785  15.148 -0.3103 -0.1412 -0.3774
 4946W        W25226   3.615  10.622  10.462  0.0030  0.0726  0.2473
 4947W        W25227   2.924  17.278   4.115  0.0678 -0.2326  0.2939
 4948W        W25228  14.213   4.009  14.213 -0.0725  0.0141 -0.0140
 4949W        W25229   2.272  14.328  15.108  0.2032  0.3361  0.2681
 4950W        W25230   0.928  14.987  11.986 -0.1389 -0.1601 -0.4482
 4951W        W25231   1.500   3.312  14.929 -0.4452 -0.2756 -0.2210
 4952W        W25232  14.415   7.781   4.771  0.1419  0.0231  0.3491
 4953W        W25233   0.378  16.654   1.443  0.1386 -0.2634  0.4568
 4954W        W25234  17.828   8.545  14.251  0.1094  0.0352 -0.1445
 4955W        W25235   5.041   3.965   0.029  0.0183  0.1156 -0.1602
 4956W        W25236  13.210   8.130   0.208  0.1243  0.2240 -0.2337
 4957W        W25237   7.274   7.103  12.792  0.0129  0.1921 -0.0933
 4958W        W25238  15.211   0.539   1.551 -0.0327  0.0531  0.0847
 4959W        W25239  10.772   6.818   2.634  0.0383 -0.0416  0.0470
 4960W        W25240   2.680   0.774   0.059  0.0827 -0.0571 -0.1262
 4961W        W25241  10.031  16.307   0.639  0.1720  0.0610 -0.1201
 4962W        W25242   2.308   7.656  13.322 -0.2460 -0.0930  0.4053
 4963W        W25243   6.991   6.157   0.219  0.0606 -0.4416  0.2678
 4964W        W25244  18.480  17.769   1.702 -0.2392 -0.0952  0.2220
 4965W        W25245   7.509  12.559   4.096 -0.0755  0.0059 -0.0902
 4966W        W25246   1.794   2.691   2.004  0.1142 -0.1285  0.0879
 4967W        W25247   3.946  10.651   3.276 -0.1112 -0.2358 -0.2702
 4968W        W25248   5.939  14.163   2.570 -0.1889  0.2374  0.0800
 4969W        W25249   4.986   4.693   0.983  0.2242 -0.3254 -0.2012
 4970W        W25250   0.235   7.980  11.878 -0.0316 -0.2736 -0.0109
 4971W        W25251   1.861  14.627  15.381 -0.3505 -0.0612  0.1035
 4972W        W25252   6.747  18.240   2.193  0.0034 -0.1377  0.1788
 4973W        W25253  15.616  12.686  15.309  0.1245  0.0807  0.1511
 4974W        W25254   1.669   5.398   4.421  0.0500  0.2302  0.1412
 4975W        W25255   6.298  18.047   2.289 -0.0060 -0.3401  0.1044
 4976W        W25256   7.606  18.179  14.494 -0.3134  0.0592 -0.2089
 4977W        W25257  13.131  17.738  11.477  0.0825 -0.1434 -0.3251
 4978W        W25258  16.611   2.904   5.291  0.0352  0.1395  0.2327
 4979W        W25259   6.066   5.892  14.379  0.2165 -0.0401  0.2295
 4980W        W25260   7.943   8.042   3.601 -0.1041  0.0297  0.0442
 4981W        W25261  13.619   8.120   2.745  0.0675  0.1752  0.0234
 4982W        W25262  11.460  18.239  15.133 -0.0904  0.1421  0.0359
 4983W        W25263  14.859   0.673   2.749 -0.0446  0.1680 -0.0035
 4984W        W25264   5.798   7.875  14.194 -0.0162  0.1287 -0.0102
 4985W        W25265   7.487  18.126  11.079 -0.2788 -0.1507  0.0659
 4986W        W25266  15.764   8.815   2.025  0.0790 -0.0963  0.0819
 4987W        W25267  14.983  15.127   3.878 -0.0723 -0.0493  0.0720
 4988W        W25268  14.063   1.044   2.884 -0.1381  0.1389 -0.0374
 4989W        W25269   7.259  15.060  14.854  0.4837  0.3428 -0.0053
 4990W        W25270   9.907   6.163  11.736 -0.0917 -0.3967  0.1540
 4991W        W25271   8.614  16.486   0.407  0.1596  0.1686 -0.0840
 4992W        W25272  17.710  12.776   3.440  0.1742 -0.1674 -0.0879
 4993W        W25273  13.291  13.894   4.099 -0.1055  0.0215  0.1215
 4994W        W25274  13.999  10.311   0.567  0.4167 -0.0883  0.2351
 4995W        W25275  14.211   6.750   4.312  0.1263 -0.2681 -0.2195
 4996W        W25276  17.619   1.094   2.734 -0.1106 -0.0227  0.1778
 4997W        W25277   2.226   2.432  13.305  0.1337 -0.3791 -0.1639
 4998W        W25278  18.368   7.640   5.266 -0.1606  0.0547  0.0656
 4999W        W25279   8.882   5.779  11.728 -0.1251 -0.1224 -0.3163
 5000W        W25280  14.957   2.982   1.084  0.0491  0.2609  0.1943
 5001W        W25281  14.840  14.163   4.129 -0.1726  0.1914 -0.2667
 5002W        W25282   5.600  10.834   0.773 -0.2767 -0.0536 -0.0918
 5003W        W25283   6.617  13.196  14.069 -0.2529 -0.0119 -0.3255
 5004W        W25284   8.613   3.463  10.321  0.0623 -0.0984 -0.0376
 5005W        W25285   6.254   1.881  15.091  0.2554  0.0747  0.0801
 5006W        W25286   7.839  15.926  12.132 -0.0826  0.1439 -0.0735
 5007W        W25287  13.059   9.314   3.049  0.2299  0.2419 -0.3865
 5008W        W25288   0.116   6.387   2.187 -0.0225 -0.0619 -0.1652
 5009W        W25289  10.162   8.553   3.635  0.1084 -0.0749 -0.2614
 5010W        W25290   8.816   6.204   3.848 -0.2364 -0.0628 -0.0343
 5011W        W25291   5.642   4.409  11.147 -0.3670 -0.5102  0.1424
 5012W        W25292   5.019  17.689   3.113 -0.0700  0.1833  0.2008
 5013W        W25293   4.864   1.664   0.209  0.0188 -0.2381  0.0944
 5014W        W25294   7.243   3.914   3.629 -0.1577 -0.1666 -0.1441
 5015W        W25295   6.096   4.598  12.489  0.2867 -0.0962  0.2608
 5016W        W25296   9.317   9.824   0.799  0.2713 -0.3140  0.0893
 5017W        W25297   8.727  10.413   0.664 -0.0604  0.3182  0.2443
 5018W        W25298   7.992   0.269   2.848 -0.1339 -0.0992  0.0945
 5019W        W25299  18.181   0.438  11.717  0.4286 -0.3104 -0.1300
 5020W        W25300   6.721   1.734  14.934  0.0999 -0.0954  0.0091
 5021W        W25301   3.038  11.139   2.896 -0.1905 -0.1329 -0.1291
 5022W        W25302   2.178   9.921  12.107  0.0230 -0.2484 -0.1910
 5023W        W25303  13.666   4.844   1.142 -0.0712  0.1323 -0.0904
 5024W        W25304  10.822  14.548   4.104  0.0607  0.0318  0.1074
 5025W        W25305   8.254  12.933  12.089  0.0846  0.0558 -0.0418
 5026W        W25306   5.319   3.377  14.317  0.3101  0.2447 -0.1718
 5027W        W25307  15.187  16.282   3.060 -0.1822  0.1998  0.1185
 5028W        W25308   5.257  13.478  14.161 -0.1587  0.0835  0.1794
 5029W        W25309   4.380   0.215  14.452 -0.0408 -0.0251  0.2005
 5030W        W25310  15.129  15.743   0.063  0.0652 -0.1430  0.2948
 5031W        W25311   6.894  18.018   2.623  0.1822  0.0996  0.2254
 5032W        W25312   2.905  13.049   0.071 -0.2430  0.0704  0.0156
 5033W        W25313   9.304  15.548  13.481 -0.0746 -0.0835 -0.0493
 5034W        W25314   2.751   0.925  13.664  0.0263 -0.1249 -0.2880
 5035W        W25315   2.755  16.015  11.729  0.1003 -0.0392  0.2726
 5036W        W25316   8.165   8.984   2.266  0.0743  0.0931 -0.1155
 5037W        W25317  13.343   7.927   2.364 -0.0813 -0.0224 -0.0840
 5038W        W25318  17.764   7.992   4.140 -0.0184 -0.0154 -0.1339
 5039W        W25319   2.141  10.211  12.700 -0.0548  0.3148 -0.0829
 5040W        W25320   6.398   8.370  11.954 -0.2272  0.0406 -0.1214
 5041W        W25321  14.009  16.819  10.814  0.0746  0.1881 -0.0168
 5042W        W25322   9.048  12.282   2.620 -0.0554  0.0438  0.0474
 5043W        W25323   6.959  16.073   1.234 -0.0407  0.1492  0.1372
 5044W        W25324  14.079   1.958   1.676  0.1233  0.2659  0.2022
 5045W        W25325   4.249  10.773   0.578  0.3684 -0.1774  0.2415
 5046W        W25326   7.029   7.785   5.426  0.2274  0.1072 -0.1813
 5047W        W25327   4.615  18.161   2.006 -0.0813  0.0083 -0.0233
 5048W        W25328   2.935   0.288   1.195  0.1720  0.2522 -0.3467
 5049W        W25329   9.984   5.747  11.275 -0.2953 -0.0019 -0.1370
 5050W        W25330   3.381  14.063  14.191 -0.1180 -0.0252 -0.2003
 5051W        W25331   4.340   1.513   2.481 -0.2093 -0.3133 -0.0198
 5052W        W25332  15.412   7.407   4.441  0.2171  0.0673  0.0110
 5053W        W25333   8.337  12.705   2.246  0.0861  0.0795  0.0816
 5054W        W25334  11.595  16.416   4.130  0.1224  0.0645 -0.0695
 5055W        W25335  18.087   9.737  11.536  0.0417  0.0243  0.2029
 5056W        W25336  10.085   8.376   1.141 -0.2238 -0.0742  0.0596
 5057W        W25337  14.187   3.521   0.284  0.2177  0.1390 -0.3488
 5058W        W25338  12.407   3.540  12.821 -0.1897 -0.0980  0.0418
 5059W        W25339   3.101  10.731   5.208 -0.1060 -0.0992 -0.0063
 5060W        W25340   3.618   5.031  10.084  0.3673 -0.0296 -0.2297
 5061W        W25341   1.437   4.478   5.271 -0.1130  0.1016 -0.0822
 5062W        W25342   4.630   4.507  10.268 -0.0590 -0.3033  0.1322
 5063W        W25343  15.628  13.000   0.776 -0.0566 -0.1468  0.2276
 5064W        W25344   5.078  14.593   2.798 -0.3082  0.3626 -0.1364
 5065W        W25345   0.505  14.826  12.302  0.0989  0.2189  0.1573
 5066W        W25346   9.048   9.847   2.524 -0.1494 -0.1567  0.1316
 5067W        W25347   6.204   9.427   9.818  0.0166 -0.0817  0.0488
 5068W        W25348  18.339  11.418   0.414  0.1198  0.0650  0.0143
 5069W        W25349   6.029  14.245   0.621 -0.0784 -0.0131  0.0627
 5070W        W25350   3.119  13.111   3.383 -0.0899 -0.0237 -0.0372
 5071W        W25351   0.793  17.514  10.512  0.1182 -0.1856  0.0601
 5072W        W25352   1.624   2.673  11.082 -0.0894 -0.1034 -0.0973
 5073W        W25353   9.937   9.213  11.717 -0.1364  0.2125 -0.2387
 5074W        W25354  14.055   5.798   4.060 -0.1075 -0.0786 -0.1438
 5075W        W25355   4.883  17.120  13.254 -0.5004 -0.0487 -0.2914
 5076W        W25356   1.322  16.477   1.350 -0.3449 -0.0256  0.1195
 5077W        W25357  10.908  18.097   2.804 -0.1715 -0.0421  0.2276
 5078W        W25358  14.613  13.568  12.151 -0.1047  0.3283  0.0216
 5079W        W25359   5.654   7.399  13.783  0.0053 -0.1664  0.1611
 5080W        W25360  10.127   7.164   0.784  0.2317 -0.0918 -0.1434
 5081W        W25361  15.161   6.025  12.915  0.0035 -0.1480  0.1781
 5082W        W25362   7.043  18.168  11.269  0.1960 -0.2232  0.3593
 5083W        W25363   8.682   1.676   3.354  0.0431 -0.2898  0.0413
 5084W        W25364   9.080   7.707  11.664  0.1922 -0.2397 -0.0167
 5085W        W25365   5.038   0.832   5.033 -0.0818 -0.2142  0.4467
 5086W        W25366   7.627   7.387  12.597  0.1173  0.0153  0.1170
 5087W        W25367  18.278   6.253   1.591 -0.0743  0.2975 -0.0934
 5088W        W25368   1.309  17.357   3.005  0.1986  0.1234 -0.0411
 5089W        W25369  15.137   5.013   3.734  0.0204  0.2472  0.1744
 5090W        W25370   5.163  10.722   1.165  0.4632  0.1818 -0.2441
 5091W        W25371   5.815  14.739   2.504 -0.0436 -0.3668  0.4665
 5092W        W25372  10.034  11.713  14.078  0.0840  0.3381 -0.0076
 5093W        W25373  13.182   6.272   2.739 -0.0712 -0.2413  0.0974
 5094W        W25374  18.452  15.010   1.704 -0.3289  0.0587 -0.3461
 5095W        W25375   2.699   2.842   3.155 -0.2101 -0.4126  0.2416
 5096W        W25376   5.550   9.042  12.979  0.0827 -0.0965 -0.1125
 5097W        W25377  10.749  11.953   3.132 -0.0278 -0.3324 -0.1262
 5098W        W25378   9.257   9.611  12.579  0.1177 -0.0290 -0.0892
 5099W        W25379   2.330  16.805   1.470  0.1011 -0.1218 -0.1834
 5100W        W25380   3.394  15.226  12.927 -0.1768  0.1165  0.1900
 5101W        W25381   5.702  15.254   2.552  0.0617  0.0963 -0.3162
 5102W        W25382  13.919  14.962  14.125 -0.2645 -0.0652  0.1426
 5103W        W25383   6.591   5.252   1.879 -0.0657 -0.0490 -0.0338
 5104W        W25384  13.798  15.543   0.394  0.0469 -0.0338 -0.0368
 5105W        W25385   0.351   9.808   0.070  0.1522 -0.0080 -0.2827
 5106W        W25386  11.243  10.615   4.215  0.0675  0.1881  0.0654
 5107W        W25387   6.148   9.963  12.232 -0.0001 -0.1955  0.0201
 5108W        W25388   6.629  17.224  15.341  0.2136  0.1657  0.0317
 5109W        W25389   7.682   3.926  13.839 -0.0819  0.0437  0.1917
 5110W        W25390  16.272   4.853  13.378 -0.0406 -0.1788 -0.1584
 5111W        W25391   0.163   3.954  13.065  0.0790 -0.0769  0.1204
 5112W        W25392  16.265  17.850   3.028  0.1179  0.0257 -0.1171
 5113W        W25393   7.542   6.403   0.887  0.0855 -0.1819 -0.1499
 5114W        W25394   5.309  18.633  14.017 -0.1513 -0.1532 -0.3314
 5115W        W25395   6.319   8.706  10.677 -0.3173 -0.2084 -0.1679
 5116W        W25396   7.845   1.806  10.790 -0.0989  0.3870  0.0114
 5117W        W25397  11.280   4.983   1.854 -0.0761  0.2098  0.1992
 5118W        W25398   5.407   3.817   3.206 -0.0565 -0.0038  0.2593
 5119W        W25399   4.214  18.429  10.738 -0.0443  0.0416  0.0594
 5120W        W25400  15.316  11.974  11.565  0.1784 -0.2422  0.1710
 5121W        W25401   2.633   1.474   3.693 -0.0526  0.0923  0.0923
 5122W        W25402  11.998   6.634   3.102  0.2673 -0.2816  0.2719
 5123W        W25403  11.569   4.295  12.522  0.1705 -0.1452  0.0924
 5124W        W25404   8.235  11.875  13.266  0.0182  0.0598 -0.0785
 5125W        W25405  15.361  18.521   0.761  0.3708  0.0905  0.1323
 5126W        W25406  13.617   6.787   0.915  0.0001 -0.0616 -0.1587
 5127W        W25407   5.508  13.352  13.275  0.1588 -0.1048 -0.2001
 5128W        W25408   3.133   0.953  13.327 -0.0457 -0.3299  0.0097
 5129W        W25409  15.758   0.361   2.368 -0.2196  0.0485  0.0536
 5130W        W25410  13.135   8.102   1.980 -0.0142  0.0190 -0.1656
 5131W        W25411  17.953   5.546   3.117 -0.0463 -0.1538  0.1141
 5132W        W25412  12.862  14.127  14.888  0.2990  0.0212 -0.0126
 5133W        W25413   4.661   4.270   0.990 -0.1906  0.1541  0.0100
 5134W        W25414   7.341  18.047  13.488  0.0088 -0.0424 -0.0990
 5135W        W25415  18.036   4.692  12.083  0.0372 -0.0759 -0.0690
 5136W        W25416  16.299   0.620  12.161  0.2530  0.0891  0.0997
 5137W        W25417  14.115   2.301  14.812 -0.0244 -0.2316 -0.0262
 5138W        W25418   5.051  16.857   1.035  0.0719  0.1917 -0.5954
 5139W        W25419   0.074  16.065   5.637 -0.0859  0.3841 -0.0989
 5140W        W25420   4.387   5.185  14.681 -0.2362  0.1045 -0.4650
 5141W        W25421   5.251  11.171   4.845 -0.5914 -0.6291  0.0591
 5142W        W25422   2.423   5.276  14.754 -0.2607 -0.1672 -0.0532
 5143W        W25423  18.546  16.096   0.397 -0.1226  0.1844  0.1496
 5144W        W25424  17.851   1.595  11.312 -0.2011 -0.1618 -0.0848
 5145W        W25425  15.567   8.032  13.936  0.1140  0.0489  0.0304
 5146W        W25426  15.609   8.249   2.827 -0.2562 -0.0451  0.0509
 5147W        W25427   3.082  14.116  11.663  0.0772 -0.0578  0.1477
 5148W        W25428  18.224  17.693   0.379 -0.0346 -0.0157  0.3866
 5149W        W25429  17.865   8.030  13.963  0.2427  0.0589  0.1385
 5150W        W25430  11.833  16.500   3.506  0.2578  0.1440 -0.0307
 5151W        W25431  11.202   3.402   0.827  0.0307  0.1111  0.1146
 5152W        W25432  10.068  14.386   2.849  0.2950  0.1842  0.2258
 5153W        W25433   0.215  13.281   3.721 -0.2367 -0.1519 -0.0701
 5154W        W25434  11.901   7.605   3.357 -0.0073 -0.1595  0.2194
 5155W        W25435  12.615  17.088  14.778 -0.0101  0.0011 -0.0477
 5156W        W25436   5.083   2.066   3.574 -0.1065  0.1491  0.2278
 5157W        W25437   2.935   2.538   0.963 -0.0831 -0.1093 -0.0999
 5158W        W25438  10.260  16.307  14.085 -0.2008 -0.1176 -0.1966
 5159W        W25439  16.819  12.354  15.183  0.0215 -0.0920  0.0899
 5160W        W25440   2.471  17.581   3.282  0.0052  0.0276  0.0111
 5161W        W25441  11.358  16.276   2.612  0.2244  0.1728 -0.1586
 5162W        W25442   5.707  10.874  10.109  0.0223 -0.3119 -0.0844
 5163W        W25443  14.947   3.907  14.856 -0.0446 -0.0122 -0.2114
 5164W        W25444   5.613  18.456  12.707 -0.0130  0.1011 -0.0245
 5165W        W25445  10.867  14.838  13.065 -0.1663 -0.3096 -0.1982
 5166W        W25446  15.863  18.678   2.257  0.0510 -0.0654 -0.0231
 5167W        W25447  18.141  10.160   4.104  0.1800 -0.0880 -0.4591
 5168W        W25448  16.336   2.623   1.056  0.1779  0.0680  0.1229
 5169W        W25449   3.518   5.270  11.060 -0.0530 -0.4242  0.0014
 5170W        W25450   3.385   3.506  11.344  0.0140  0.1232 -0.1219
 5171W        W25451   1.909  16.841  11.894  0.1207  0.0619  0.0585
 5172W        W25452   8.240  13.943  11.750  0.2321  0.1443  0.1658
 5173W        W25453   0.111  13.162   4.192 -0.1238 -0.0563 -0.3670
 5174W        W25454   4.546   9.926   4.104  0.1223 -0.2615  0.0199
 5175W        W25455  16.561   4.423   4.306  0.0361  0.4100 -0.0457
 5176W        W25456   3.557   8.249  14.553 -0.1670  0.2491 -0.2206
 5177W        W25457  13.227  13.421   2.813 -0.3685 -0.0615  0.1437
 5178W        W25458   2.603  15.449  11.626 -0.1793 -0.3743 -0.3099
 5179W        W25459   4.865   8.266   0.401 -0.1333  0.0327 -0.4542
 5180W        W25460  10.739   5.606   2.799 -0.0514 -0.0272  0.0898
 5181W        W25461  16.827   0.554   1.537  0.0583 -0.1368  0.1508
 5182W        W25462   5.762   8.900   3.932  0.0725  0.0742 -0.0116
 5183W        W25463   4.771   7.297  12.706  0.0832  0.0881 -0.1891
 5184W        W25464  16.203  13.522   0.568  0.2759  0.0919  0.6398
 5185W        W25465   9.704   9.062   0.277  0.1528  0.0035  0.3174
 5186W        W25466  18.687  15.764  12.191 -0.2109 -0.1981  0.0375
 5187W        W25467   3.886  10.986   3.633  0.1898 -0.0777 -0.1268
 5188W        W25468   2.551   4.764   3.059  0.0062  0.3310  0.0995
 5189W        W25469   3.309   3.585   4.189  0.2230  0.1527  0.1402
 5190W        W25470   9.493   5.034   0.977 -0.0010  0.1212  0.0762
 5191W        W25471   5.675  17.748  11.857 -0.0825  0.0123  0.0199
 5192W        W25472  13.457  15.424  13.468 -0.4080 -0.1162  0.2971
 5193W        W25473   3.132   5.391   1.048 -0.0175  0.2457  0.2388
 5194W        W25474   5.232  17.550  14.162  0.2845 -0.0792 -0.0816
 5195W        W25475   7.940   3.188   1.582 -0.0516  0.0624  0.5012
 5196W        W25476  17.099   9.775   1.177 -0.0241 -0.3100  0.1666
 5197W        W25477   2.174  15.903   4.054  0.0639 -0.1440  0.0215
 5198W        W25478  14.671   0.738  12.925  0.1465  0.0998  0.2534
 5199W        W25479  18.029   1.056   3.028 -0.0297  0.0569  0.0563
 5200W        W25480   4.446  10.255  14.760 -0.2515  0.1951 -0.1954
 5201W        W25481   4.036  14.670  11.410 -0.2128  0.0847  0.1586
 5202W        W25482   5.400   2.503   3.731 -0.1444 -0.5151  0.1881
 5203W        W25483  18.349   2.189  11.747 -0.2941 -0.2843  0.1400
 5204W        W25484  14.429  13.688   2.033 -0.0066  0.1297  0.0716
 5205W        W25485   0.179  15.965   4.611 -0.0344 -0.0820  0.1529
 5206W        W25486  13.076   8.839   4.944  0.0530  0.1070 -0.1234
 5207W        W25487   1.898   6.359   0.797  0.0194  0.2035  0.0218
 5208W        W25488  11.834   4.382   1.747  0.2532 -0.2334  0.1569
 5209W        W25489   6.928   4.569  13.080 -0.0058 -0.1855 -0.0989
 5210W        W25490  16.401   0.066  13.025  0.2592  0.0318 -0.1243
 5211W        W25491   4.047  13.347  11.112  0.1562 -0.1800 -0.0405
 5212W        W25492   6.037  18.237   3.763 -0.0818  0.3205 -0.1075
 5213W        W25493  18.601  11.765   1.897  0.4522  0.0819  0.2667
 5214W        W25494  18.005   9.457   3.137  0.1844 -0.1135  0.2708
 5215W        W25495   3.563  13.991  11.673  0.2409  0.1099  0.0758
 5216W        W25496   8.688  18.444  11.718  0.2232 -0.0133  0.0903
 5217W        W25497  18.366  12.209   1.975 -0.1455 -0.0127  0.4163
 5218W        W25498   2.194  17.660   2.089 -0.2299 -0.1890  0.3550
 5219W        W25499  13.183  14.495  14.691 -0.1317 -0.0350 -0.0811
 5220W        W25500  13.872   8.710   3.968 -0.0390 -0.1678 -0.1275
 5221W        W25501   0.249  16.410   4.289  0.1439 -0.0395 -0.0580
 5222W        W25502   3.621   0.785  14.625 -0.0083 -0.6480 -0.0718
 5223W        W25503  14.380  15.710   3.928 -0.2855 -0.0919  0.2174
 5224W        W25504  12.350   1.289   2.426  0.0768 -0.1462  0.0013
 5225W        W25505  15.026   3.308   3.744 -0.1881 -0.2187  0.1237
 5226W        W25506   0.332   1.408   2.555  0.1557  0.0929 -0.1039
 5227W        W25507   4.947  17.352  14.513  0.0979 -0.1539 -0.1222
 5228W        W25508  11.360  17.624  13.834  0.1583 -0.1067 -0.1144
 5229W        W25509   9.098  12.800  13.573  0.2122  0.0197 -0.2433
 5230W        W25510  15.076  18.667   3.205 -0.1513  0.2586 -0.1264
 5231W        W25511  13.749   1.123   0.094 -0.1435  0.1621 -0.2078
 5232W        W25512   6.166   5.939  15.103  0.1302  0.0237  0.0201
 5233W        W25513   2.106   7.150   1.575 -0.1196  0.0761  0.0207
 5234W        W25514  14.140   2.549  12.609  0.3597  0.2795 -0.0721
 5235W        W25515  14.926   4.917   1.044  0.1362 -0.0308 -0.0235
 5236W        W25516  11.101  14.419   3.224 -0.0432  0.0589  0.4027
 5237W        W25517  15.256  17.059  12.732  0.1301 -0.0479  0.0353
 5238W        W25518  15.761  16.645   4.185  0.1769 -0.1543  0.1604
 5239W        W25519   4.687  10.499  12.203 -0.2072 -0.2974 -0.2490
 5240W        W25520  14.494  14.175   1.965  0.1093  0.5782 -0.0943
 5241W        W25521  16.247   9.096   2.801  0.0133 -0.2062  0.1475
 5242W        W25522   2.389   1.784   1.446 -0.1234  0.2273 -0.0916
 5243W        W25523   0.593  14.468   3.526 -0.1193  0.0419  0.0320
 5244W        W25524  11.261   3.297  13.872 -0.0281  0.1345  0.2123
 5245W        W25525  18.176   8.011   2.354  0.1836  0.1548  0.1665
 5246W        W25526   1.546   0.978  11.696  0.1390 -0.0543 -0.0804
 5247W        W25527  12.479   5.734  12.414  0.0495  0.2946  0.0120
 5248W        W25528  17.896   1.729   1.066  0.2168  0.2692  0.2132
 5249W        W25529  13.352   1.696   3.769 -0.1294 -0.0007 -0.0722
 5250W        W25530   6.480   5.730   2.046  0.0928 -0.0308 -0.3420
 5251W        W25531   2.084  15.066  15.043  0.0634  0.0845 -0.3050
 5252W        W25532   5.463  12.514   1.936  0.1694  0.1007  0.2974
 5253W        W25533   4.908   5.449  15.148 -0.1814 -0.1200  0.0344
 5254W        W25534   9.716  10.512  11.544  0.1107 -0.0022 -0.3526
 5255W        W25535   8.245   7.552   0.038 -0.1300 -0.0134  0.4041
 5256W        W25536  10.670   4.576  11.846 -0.1352  0.1299  0.1063
 5257W        W25537  10.700  11.234   1.892  0.0531  0.1924  0.0331
 5258W        W25538   9.405  10.052   1.355 -0.1028 -0.2082  0.0716
 5259W        W25539  17.228   5.399   3.739  0.1632 -0.0496 -0.0194
 5260W        W25540  11.282  15.403   5.334  0.1513  0.0458 -0.0115
 5261W        W25541   3.937  15.910  12.979  0.4224  0.0704  0.1326
 5262W        W25542  11.946  12.655   0.748 -0.3505 -0.0845  0.2732
 5263W        W25543  15.799  13.154   4.923  0.0427 -0.2204 -0.2852
 5264W        W25544   3.480   2.515   3.311  0.2117  0.0792 -0.1437
 5265W        W25545  16.343  13.592   1.034 -0.0997  0.0572  0.1286
 5266W        W25546   6.237   2.320  11.830 -0.1025  0.1435 -0.1642
 5267W        W25547   9.434  12.589   1.680 -0.3796  0.0306  0.1147
 5268W        W25548   7.015   3.029   3.159 -0.0570  0.1639 -0.1149
 5269W        W25549  12.942   4.304   0.991 -0.1755  0.0136 -0.0888
 5270W        W25550  15.983   6.602  10.843  0.0260 -0.0359 -0.1781
 5271W        W25551  10.510  15.447  11.263  0.0409 -0.5067  0.1432
 5272W        W25552   7.348   9.899  14.956 -0.0063 -0.0992  0.1666
 5273W        W25553   1.974  10.592   0.067  0.1747  0.4353 -0.1369
 5274W        W25554   3.415   4.117   1.337  0.0704  0.2188 -0.1380
 5275W        W25555  16.863   4.592   2.182  0.0469 -0.0053 -0.0954
 5276W        W25556  12.754   5.890  10.627 -0.1653  0.1344  0.0860
 5277W        W25557   1.188  10.565  14.933  0.0984 -0.1520 -0.0752
 5278W        W25558  11.159  13.403  13.033  0.0022 -0.3451 -0.0614
 5279W        W25559  11.504  13.437   2.288  0.1742  0.2886  0.1207
 5280W        W25560   8.691   8.279   0.016 -0.3282 -0.0570  0.0150
 5281W        W25561  15.366  12.330  15.030  0.0876  0.1140 -0.0192
 5282W        W25562  13.865  18.000   3.852  0.1342 -0.1126  0.1925
 5283W        W25563   0.258  15.086  11.348  0.1453 -0.0394 -0.1175
 5284W        W25564   0.008  14.257   1.935 -0.2193 -0.1023  0.1141
 5285W        W25565  11.626   4.940  14.704  0.1664  0.2286  0.4189
 5286W        W25566   8.952   5.198   2.743  0.0141  0.1515  0.1247
 5287W        W25567  13.184   9.229   0.588  0.2395 -0.1354 -0.4013
 5288W        W25568  16.671   2.525  14.196 -0.4965  0.1000 -0.1376
 5289W        W25569   3.938   5.797   2.100 -0.1619  0.4884 -0.2722
 5290W        W25570   1.188   5.853   3.452 -0.1109 -0.3576 -0.4242
 5291W        W25571   0.173   4.104   3.060 -0.0531  0.2851 -0.1626
 5292W        W25572  13.321   3.733   3.079 -0.1924  0.1808 -0.0153
 5293W        W25573  15.501   4.538   1.688  0.1776 -0.2077 -0.0520
 5294W        W25574   2.641  13.664  11.484  0.0987  0.1389 -0.1636
 5295W        W25575   2.993  18.128   2.678 -0.1828  0.1477 -0.0499
 5296W        W25576   7.194  15.751  15.381 -0.1144  0.1687 -0.0391
 5297W        W25577  18.378   6.555   2.067 -0.1101  0.1586 -0.0776
 5298W        W25578  15.579   3.960   1.422  0.0436  0.2575  0.2377
 5299W        W25579  13.042   2.919   4.320  0.1541  0.0688  0.2290
 5300W        W25580   3.502  10.093  10.972 -0.0598  0.0091 -0.0331
 5301W        W25581  14.334   7.955   5.654 -0.2432 -0.1954 -0.2421
 5302W        W25582  14.302   6.234   4.514 -0.0243  0.3221  0.2470
 5303W        W25583   7.492  13.157   1.413  0.2096  0.0957  0.0820
 5304W        W25584   0.284   0.679   2.308 -0.3504  0.1720 -0.1462
 5305W        W25585  17.464  17.082   0.453 -0.2549 -0.0901  0.0308
 5306W        W25586  16.703  12.109  12.127 -0.1293  0.2503 -0.0788
 5307W        W25587  10.406   9.452   0.428  0.0547 -0.1402 -0.3897
 5308W        W25588  10.751  13.694   3.708 -0.0590 -0.1714  0.3001
 5309W        W25589  14.275   2.322   2.943  0.1619 -0.0055  0.3636
 5310W        W25590  11.197  13.349   1.569 -0.0689  0.0858  0.0934
 5311W        W25591   3.292  10.450  12.409 -0.1296 -0.3850  0.0589
 5312W        W25592   1.080   6.185  14.865 -0.0077  0.3279 -0.1988
 5313W        W25593  17.316   5.666  12.972 -0.1897 -0.0634  0.0367
 5314W        W25594  10.107   4.413  14.095  0.0035 -0.1812 -0.0001
 5315W        W25595   1.313  12.582  11.164  0.1847 -0.2653 -0.1220
 5316W        W25596   4.955  10.303   4.634  0.0187 -0.2061 -0.1772
 5317W        W25597   1.156   9.998   3.209 -0.0645  0.1165 -0.2721
 5318W        W25598   0.866   6.752   3.184 -0.1518 -0.1234  0.1856
 5319W        W25599   9.170  14.658  14.087  0.0356 -0.0763 -0.0775
 5320W        W25600  17.168  15.254  12.612  0.1658  0.0885 -0.0440
 5321W        W25601   0.184  14.071   4.456  0.0863 -0.3575 -0.1001
 5322W        W25602   5.907   1.898  14.175 -0.4351 -0.0460  0.0082
 5323W        W25603  11.780   7.201  13.490  0.1116  0.0742  0.1631
 5324W        W25604  16.189  15.810   3.047  0.1396 -0.0646 -0.1611
 5325W        W25605   7.126   4.744   5.263  0.0176  0.0207 -0.2609
 5326W        W25606   6.688   5.898   3.013 -0.1462 -0.2231  0.0870
 5327W        W25607  11.561  15.392  14.735  0.0177 -0.0298  0.3063
 5328W        W25608  14.767   9.557   1.247  0.1239 -0.2389 -0.1835
 5329W        W25609   2.401  14.708  14.756 -0.1785 -0.1360 -0.0886
 5330W        W25610   0.676  16.703   0.347 -0.0156 -0.2665 -0.0621
 5331W        W25611   2.662   1.893   2.929  0.1892  0.0732  0.0341
 5332W        W25612  13.348  15.717   0.040  0.0637  0.1955 -0.1023
 5333W        W25613   5.163   6.931  12.812 -0.4050 -0.3569 -0.0442
 5334W        W25614  17.111  16.662   4.050 -0.0071  0.5134 -0.0878
 5335W        W25615  15.098  13.834  15.380  0.1148  0.1756  0.3942
 5336W        W25616  18.138  15.194   4.223 -0.1430  0.0418  0.0313
 5337W        W25617  13.139  17.197   0.865  0.2766  0.2040  0.0192
 5338W        W25618  10.468  10.005  13.461 -0.1486 -0.0903 -0.2194
 5339W        W25619   2.948  11.478  14.130  0.3988  0.2611 -0.0099
 5340W        W25620   8.932  14.589  15.162 -0.2630 -0.0035  0.0486
 5341W        W25621  12.599   3.840   1.426  0.2978 -0.0268 -0.0156
 5342W        W25622   2.683   3.068  15.372 -0.2643  0.1892  0.3148
 5343W        W25623  18.295  16.790   1.069  0.0419  0.0946 -0.4067
 5344W        W25624   5.861  18.586   2.089  0.0351 -0.0511  0.2144
 5345W        W25625   4.446  11.077  12.363 -0.2449 -0.0970  0.3294
 5346W        W25626   5.634   6.958   2.006 -0.0404  0.0738  0.1062
 5347W        W25627  10.354   7.238  12.665 -0.3338  0.0870 -0.1952
 5348W        W25628   5.931   7.290   1.671 -0.1166 -0.2982 -0.2153
 5349W        W25629  12.812   3.120   3.665 -0.2790 -0.0183 -0.0615
 5350W        W25630   9.672  18.547   2.067 -0.0315  0.0355  0.0017
 5351W        W25631  10.126   2.454   3.725 -0.0185 -0.0436 -0.1510
 5352W        W25632   6.024  14.435   1.654 -0.2017 -0.0602 -0.0243
 5353W        W25633  13.527  15.244   3.353 -0.1147 -0.1424 -0.0241
 5354W        W25634  10.931   8.803  13.567  0.0594  0.1973 -0.1549
 5355W        W25635   6.788  11.720   1.871  0.1830 -0.2979  0.2667
 5356W        W25636   6.560   1.115  12.097  0.2956 -0.0008 -0.1462
 5357W        W25637   4.598  16.763  12.335  0.0810  0.1148  0.1024
 5358W        W25638   9.198  13.776  14.887  0.0355 -0.4110 -0.1277
 5359W        W25639   1.164  13.696   0.144 -0.2716 -0.2013  0.0705
 5360W        W25640   1.603   4.795   2.647 -0.3729  0.0844 -0.0056
 5361W        W25641  16.352   9.229  15.363  0.0497  0.2164 -0.0785
 5362W        W25642   5.960   3.707   0.985  0.0856 -0.0732 -0.0411
 5363W        W25643  15.678   0.626  15.040 -0.2809 -0.1971  0.0184
 5364W        W25644  17.993  14.894   0.754 -0.1948  0.2080 -0.1744
 5365W        W25645  13.244   6.113  12.974 -0.0064 -0.1875 -0.1018
 5366W        W25646  11.490  13.903  13.655 -0.0730  0.0192  0.0408
 5367W        W25647  13.281   4.075  15.321  0.2033 -0.2889  0.0871
 5368W        W25648  13.052   5.576  13.152 -0.0792  0.1678 -0.0873
 5369W        W25649   7.126  11.115   0.262 -0.0855  0.0256  0.0513
 5370W        W25650  18.636   7.920   2.660 -0.0731 -0.2439 -0.2105
 5371W        W25651   6.352   3.772  10.840  0.5080 -0.1977  0.3011
 5372W        W25652  17.666   5.698   1.487 -0.0087 -0.2292 -0.2331
 5373W        W25653   4.402  16.809   2.504 -0.0736  0.6810  0.0615
 5374W        W25654  16.641  10.525  14.744 -0.1248 -0.2564 -0.1164
 5375W        W25655   8.119   9.807  14.869 -0.1557 -0.1154  0.2043
 5376W        W25656  15.423   9.136   0.350 -0.2062 -0.0962  0.0151
 5377W        W25657   2.676  16.669  12.623  0.0052  0.2006 -0.4458
 5378W        W25658  12.197   8.147   1.570 -0.2772  0.1069  0.0727
 5379W        W25659  10.516   8.768  14.597  0.0325  0.1608 -0.3561
 5380W        W25660   0.151  11.629  13.975 -0.1916  0.2790 -0.2225
 5381W        W25661  17.418  16.102  12.819 -0.1324 -0.0806 -0.0340
 5382W        W25662   6.533  17.664   2.677 -0.1720  0.0388  0.2003
 5383W        W25663  16.805   4.052   9.997  0.1818 -0.1612 -0.2954
 5384W        W25664  12.108   2.551   1.634  0.1459  0.4730  0.1098
 5385W        W25665   0.553   9.993  13.133 -0.1169  0.2007  0.1507
 5386W        W25666   7.027   0.146  10.659 -0.0119  0.1949  0.3192
 5387W        W25667  12.488  13.520  13.739 -0.2196 -0.0382  0.2111
 5388W        W25668  12.397  15.278   1.562 -0.2306 -0.0462 -0.1982
 5389W        W25669  11.994  17.771   3.064 -0.1488 -0.2133 -0.1031
 5390W        W25670   7.789  12.057   4.394  0.2058 -0.0603 -0.0623
 5391W        W25671  12.066   9.541  13.036  0.2218 -0.0929 -0.1922
 5392W        W25672   8.477   5.064  12.604 -0.0679 -0.0926  0.2138
 5393W        W25673   0.989  15.547  10.939  0.0245  0.2841  0.2435
 5394W        W25674  10.734  18.625   0.337  0.1147 -0.3188  0.1712
 5395W        W25675   5.678  16.454   1.379 -0.3486  0.2494 -0.1593
 5396W        W25676   8.151   5.759   2.653  0.1809  0.2619  0.2378
 5397W        W25677   8.188  17.790   4.107 -0.0580 -0.1186  0.0914
 5398W        W25678  16.866   6.201   1.101  0.3191 -0.1247  0.0788
 5399W        W25679   7.054   9.549   2.960  0.3833  0.0911  0.2377
 5400W        W25680  11.618   8.095   2.747  0.2328 -0.0185 -0.0843
 5401W        W25681  10.981   3.916   2.909  0.0060 -0.1308 -0.1317
 5402W        W25682   3.521   2.672  12.712  0.0905 -0.0686  0.1227
 5403W        W25683   6.286  12.356   0.187  0.0964  0.0108 -0.4378
 5404W        W25684   1.310  11.141   1.223 -0.2974  0.1050  0.1990
 5405W        W25685  16.464   9.728  13.062  0.0964 -0.2925  0.3728
 5406W        W25686   8.387   3.431  11.565 -0.3014  0.1713 -0.0973
 5407W        W25687   9.790   2.845   3.902 -0.1649  0.2459  0.2824
 5408W        W25688  13.094   3.702  11.587  0.0261  0.0932  0.1513
 5409W        W25689   8.155   8.847  15.002 -0.3248  0.0931  0.3749
 5410W        W25690  11.274  12.070  14.352  0.1141 -0.1689 -0.1884
 5411W        W25691   8.844  16.411   0.883 -0.0234  0.1168  0.0373
 5412W        W25692   7.227  18.548  14.551 -0.3649  0.0009  0.0966
 5413W        W25693  17.899   3.705  10.214  0.1952  0.3457 -0.1634
 5414W        W25694   2.583   1.392   3.070 -0.0923 -0.0583  0.1920
 5415W        W25695   5.254   4.427  12.356 -0.2358 -0.0897  0.2841
 5416W        W25696   6.043  14.607  13.654 -0.2003  0.2831  0.0612
 5417W        W25697  13.610   6.724   2.968  0.0479 -0.0982 -0.0293
 5418W        W25698   5.888   3.314   0.692  0.0489 -0.2273  0.0835
 5419W        W25699  15.913   7.522   4.350  0.1209  0.2267 -0.2961
 5420W        W25700   8.978  12.789   2.899 -0.1046 -0.1423  0.2173
 5421W        W25701  15.306  12.913   1.717  0.0523 -0.2596 -0.0834
 5422W        W25702   2.773   9.120  15.306 -0.2496  0.0403 -0.1152
 5423W        W25703   0.873   1.023   0.813 -0.1505  0.0931  0.0479
 5424W        W25704  11.808   9.388   1.096 -0.0976  0.0139 -0.0681
 5425W        W25705  10.673  13.330   0.688  0.2857 -0.0373  0.1851
 5426W        W25706   7.398  12.308   0.575 -0.0294 -0.0261  0.0898
 5427W        W25707  10.783  10.112  15.310  0.5248 -0.1619 -0.1963
 5428W        W25708   3.236  15.239   2.149  0.2522 -0.1193  0.1530
 5429W        W25709  15.991   4.149  11.940  0.1160 -0.0842  0.0338
 5430W        W25710   8.455  18.058   0.556  0.1094 -0.1498 -0.1744
 5431W        W25711  11.453  13.432  12.508  0.1061  0.1920 -0.1113
 5432W        W25712   6.465   3.960   0.764 -0.4198 -0.6380 -0.2396
 5433W        W25713   4.357   9.266   1.921 -0.1230 -0.1710 -0.1295
 5434W        W25714  13.191  14.346  13.581 -0.3578  0.0030 -0.1638
 5435W        W25715  11.377   7.127  15.139  0.0420  0.3461 -0.0223
 5436W        W25716  16.115   1.474  13.579 -0.0795 -0.3284 -0.2565
 5437W        W25717   5.648   4.555  13.191  0.1213 -0.1431 -0.0273
 5438W        W25718   4.758   3.893   3.437 -0.0392  0.0135  0.0471
 5439W        W25719   4.500   2.763   2.326  0.1414 -0.2490  0.3415
 5440W        W25720  15.123   8.744  12.717  0.1477 -0.0270  0.1475
 5441W        W25721  12.113   1.282  13.243 -0.0174 -0.0432  0.0676
 5442W        W25722  16.255  10.023  14.536  0.1589 -0.0278  0.2491
 5443W        W25723   5.418   4.225  15.232  0.0696 -0.2074 -0.0058
 5444W        W25724   7.198   2.160   0.937 -0.3398 -0.0781  0.0821
 5445W        W25725   5.220   6.567  11.483 -0.3710 -0.0585 -0.2639
 5446W        W25726  16.489   5.257  13.863  0.0469 -0.3662  0.4129
 5447W        W25727   0.438   7.942  14.509  0.0197 -0.0355 -0.2799
 5448W        W25728  12.724  13.614  15.161 -0.2524  0.1194  0.1077
 5449W        W25729   1.029   1.041  14.126 -0.1497 -0.2456  0.0407
 5450W        W25730  10.094   0.289  12.582 -0.0027  0.1931 -0.3605
 5451W        W25731   7.013  17.554  14.127  0.2204 -0.0030  0.2617
 5452W        W25732   7.617  10.477  12.103  0.1711 -0.0855 -0.3254
 5453W        W25733  12.866   6.361  12.608  0.0850 -0.0971  0.0377
 5454W        W25734  10.544  16.578  14.403 -0.0882  0.0519  0.0289
 5455W        W25735   5.184  15.074   3.727 -0.1377 -0.0058 -0.2408
 5456W        W25736  15.277   2.790   0.134  0.2390 -0.0427 -0.0915
 5457W        W25737  14.128   2.835   1.640 -0.2318  0.4013  0.0879
 5458W        W25738  11.783  12.113  12.952  0.2035  0.1751  0.1296
 5459W        W25739  11.438   8.024  14.567  0.2113 -0.4282 -0.0384
 5460W        W25740   8.319  12.478  11.627 -0.2540  0.0821 -0.1044
 5461W        W25741  18.061   7.042   0.967 -0.3171  0.0285  0.3048
 5462W        W25742  15.439  12.568   2.043  0.1865  0.1809  0.4366
 5463W        W25743  18.058  16.315   1.152  0.2091 -0.0705  0.1371
 5464W        W25744   2.995   3.952  14.874 -0.1239 -0.0422  0.2250
 5465W        W25745   8.343   2.198   3.995 -0.3518 -0.0869  0.1510
 5466W        W25746  18.103  14.448  13.100 -0.0728  0.3219 -0.0514
 5467W        W25747  11.128  17.205  13.696  0.0828 -0.0789 -0.0506
 5468W        W25748   2.803  16.462   1.454  0.0791 -0.0373 -0.0239
 5469W        W25749  15.069  16.298   3.581  0.2241 -0.2894 -0.0113
 5470W        W25750  13.682   1.565  15.203 -0.2725 -0.1734  0.0818
 5471W        W25751   6.918  14.988  11.547  0.2723 -0.1898  0.1669
 5472W        W25752  12.038  16.623   2.393 -0.3880 -0.0537 -0.0539
 5473W        W25753  13.758  10.185  14.436 -0.0238 -0.2865  0.1798
 5474W        W25754  16.606   7.003  14.607 -0.3199  0.0784 -0.0479
 5475W        W25755  12.234  15.946   0.019 -0.0288 -0.2558 -0.0284
 5476W        W25756   7.797   6.578   4.939  0.0022 -0.0770 -0.3352
 5477W        W25757  13.960   4.931  12.842 -0.1399 -0.1531 -0.0670
 5478W        W25758   9.541   6.935   3.118 -0.2026 -0.0613 -0.0370
 5479W        W25759   9.891  12.045  10.733  0.3532 -0.1216  0.2803
 5480W        W25760   2.070  12.550   2.478 -0.0254 -0.1931  0.0709
 5481W        W25761  11.686   7.314   5.550 -0.1597 -0.2830  0.0242
 5482W        W25762   4.350   7.704  13.474 -0.0840  0.2209  0.2057
 5483W        W25763   2.234   1.404   0.155  0.1050 -0.0109  0.2233
 5484W        W25764  12.792   3.195   1.675  0.0392  0.3702  0.0522
 5485W        W25765   1.349  15.550   1.609  0.1138 -0.2076  0.1524
 5486W        W25766  16.076  10.208   2.433  0.0800  0.2810 -0.3483
 5487W        W25767  10.996  12.419  14.684 -0.0785  0.0415 -0.0846
 5488W        W25768  11.782  16.615   0.518  0.1049  0.0550 -0.2534
 5489W        W25769   0.335   1.571  12.398 -0.0779  0.0066 -0.2507
 5490W        W25770   2.630  17.403  11.843 -0.4017 -0.1091 -0.2190
 5491W        W25771  12.612   2.513   0.135 -0.0144 -0.1474  0.0439
 5492W        W25772  13.072   1.133  13.088 -0.2162 -0.0026  0.0152
 5493W        W25773  11.488   2.616  13.343  0.0693  0.3544 -0.0133
 5494W        W25774   0.453   4.907  14.408  0.3395  0.0824 -0.3088
 5495W        W25775  11.346  15.975   4.275  0.0680  0.3201 -0.0960
 5496W        W25776   2.294   1.979   0.884  0.2401 -0.1884  0.1891
 5497W        W25777  10.251  10.184  15.154 -0.0419  0.1217  0.0784
 5498W        W25778   3.544   0.183   1.275 -0.1161  0.0526 -0.2160
 5499W        W25779  17.458  10.596   4.345 -0.3010 -0.1572 -0.0442
 5500W        W25780   0.728   4.165  11.976  0.1591 -0.0093 -0.1957
 5501W        W25781   7.880   8.203  14.951 -0.0439  0.3585  0.0085
 5502W        W25782  11.428   4.102  13.920 -0.2017  0.0120  0.0054
 5503W        W25783  10.393  18.137  13.208  0.2259 -0.0157  0.1761
 5504W        W25784  17.423   4.128  14.681  0.1872 -0.2474 -0.2059
 5505W        W25785  11.903  17.571   4.356 -0.0624 -0.1787 -0.0493
 5506W        W25786  16.229  18.527  11.085  0.2286 -0.2163 -0.0994
 5507W        W25787   5.367   1.048   1.649  0.0400 -0.0130  0.2015
 5508W        W25788   0.369   2.097  13.263  0.2287  0.3442  0.0980
 5509W        W25789   0.999  17.326   0.928  0.2534 -0.1368 -0.2426
 5510W        W25790   1.697   5.266   1.666 -0.1760  0.2588  0.2547
 5511W        W25791   1.731  18.054  13.492 -0.1126 -0.1255 -0.1217
 5512W        W25792  13.506   9.977  14.056  0.0780  0.0775 -0.3031
 5513W        W25793  16.648  13.877  12.843 -0.0147 -0.1345  0.2375
 5514W        W25794   0.443  12.036   3.136 -0.1337  0.0455 -0.2547
 5515W        W25795   1.387  10.003   1.734  0.0301  0.0905 -0.0548
 5516W        W25796   6.375   6.106  12.007 -0.0777  0.0204  0.0744
 5517W        W25797   5.638  10.803  14.975 -0.1443 -0.2846  0.0854
 5518W        W25798  17.418  17.970   1.574 -0.1543  0.1114  0.1104
 5519W        W25799  10.869   5.767   0.904 -0.0275  0.1147 -0.1448
 5520W        W25800   3.285   7.298  13.425 -0.0621 -0.1474 -0.1578
 5521W        W25801   8.127   0.706   1.750  0.0799 -0.0356 -0.1264
 5522W        W25802   3.111  11.937   1.557 -0.0483  0.0230  0.1034
 5523W        W25803   7.112   4.571  13.937  0.1573  0.1692  0.0593
 5524W        W25804   2.301  10.345  13.849  0.2963  0.1380 -0.1956
 5525W        W25805  11.140   5.291   0.891 -0.1007  0.0473 -0.2242
 5526W        W25806  16.167  17.379   2.112 -0.1185  0.2383 -0.1506
 5527W        W25807   9.295   9.224   1.164  0.2975  0.4520  0.1998
 5528W        W25808   7.460   2.407   3.619  0.3215  0.1219 -0.0668
 5529W        W25809  13.379   4.414  11.914  0.0605 -0.2618 -0.0084
 5530W        W25810   3.426   0.058  11.130 -0.0737 -0.2988 -0.1008
 5531W        W25811   4.248   3.347   1.815  0.0998 -0.2396 -0.2303
 5532W        W25812   1.679   6.018  15.047  0.0704  0.0890  0.0084
 5533W        W25813   3.268   1.385   1.554 -0.0412 -0.0511  0.0882
 5534W        W25814  11.640   5.762   2.649 -0.0766  0.0760  0.1566
 5535W        W25815   8.746   5.629   0.716 -0.2264  0.0984 -0.2442
 5536W        W25816  17.588   3.750   5.178  0.2656  0.1085 -0.2883
 5537W        W25817   5.817  16.301  12.304 -0.1808  0.3459  0.0524
 5538W        W25818   5.336  11.892   4.405  0.0931  0.2157 -0.2069
 5539W        W25819  10.904   7.276  13.510  0.0126 -0.0252 -0.1250
 5540W        W25820  15.216   5.642  11.298  0.1079  0.3655 -0.3937
 5541W        W25821   9.540  10.107   0.382 -0.1750  0.0504 -0.1520
 5542W        W25822   2.072   0.988  11.561  0.2143 -0.0107  0.3012
 5543W        W25823   9.470   2.886   0.153 -0.0631  0.2291 -0.0127
 5544W        W25824  14.020  13.236  11.530  0.0630  0.0262  0.1684
 5545W        W25825  17.618  10.161   4.195 -0.2309  0.0877 -0.0107
 5546W        W25826  14.089   6.098  15.095  0.1381  0.0005 -0.1908
 5547W        W25827   8.435  18.704  12.848 -0.1925  0.0947  0.1203
 5548W        W25828  16.365  12.284  14.186 -0.1981 -0.0228  0.0738
 5549W        W25829   5.032  10.537  11.191 -0.0080  0.4171 -0.0890
 5550W        W25830   9.069   5.027  13.656 -0.0076  0.1536 -0.3968
 5551W        W25831   0.461   5.918  12.575  0.0691  0.1533  0.0071
 5552W        W25832  17.875  14.837  15.279 -0.2215 -0.2083  0.0538
 5553W        W25833  16.722  12.808   3.732 -0.1544  0.1722  0.1527
 5554W        W25834  16.446   0.270  11.783 -0.4253 -0.1680 -0.0060
 5555W        W25835  14.811   2.915   3.311 -0.1741 -0.0784 -0.2319
 5556W        W25836  15.992   2.433  11.050 -0.4380 -0.0579  0.0544
 5557W        W25837  17.384   8.219   0.741 -0.1536  0.1488 -0.2190
 5558W        W25838  11.333   5.614  11.979 -0.0959  0.1432  0.1476
 5559W        W25839  12.235  13.841  11.527 -0.1004  0.0054 -0.0226
 5560W        W25840   5.587  12.283   1.394 -0.4898  0.1768  0.2180
 5561W        W25841  18.178  10.967   3.441  0.2168 -0.2043  0.0518
 5562W        W25842  18.182   1.828  10.985 -0.3091 -0.0321 -0.1676
 5563W        W25843   3.324   3.755   0.854  0.0499 -0.1848 -0.0843
 5564W        W25844  18.222  13.771  15.106 -0.0568 -0.1077 -0.1807
 5565W        W25845  10.299   2.293  14.686 -0.0710  0.1715  0.1742
 5566W        W25846   9.130  13.273   2.892  0.0336  0.0731  0.2438
 5567W        W25847  14.917   9.836   3.777  0.0526  0.2348  0.0104
 5568W        W25848  13.606   6.274   0.967  0.3506  0.1045  0.0816
 5569W        W25849  13.197  17.224  12.738  0.0392  0.1694 -0.4336
 5570W        W25850   6.502   0.474   0.131  0.0798 -0.0028  0.2039
 5571W        W25851   5.921   2.980   1.919  0.0627 -0.2007  0.2454
 5572W        W25852   8.005   2.050  15.034  0.0288 -0.3762 -0.0570
 5573W        W25853   5.993  16.416  14.011  0.1086 -0.0498 -0.1166
 5574W        W25854  12.176  11.069  12.095  0.0726 -0.0542 -0.4837
 5575W        W25855  13.203  11.363  14.144  0.0399  0.0581  0.1182
 5576W        W25856  12.386   6.884   2.721  0.0122  0.3348  0.2233
 5577W        W25857   6.784   2.449  11.575 -0.0244  0.3261  0.0891
 5578W        W25858  13.026  15.180   2.428  0.0855 -0.0788  0.1258
 5579W        W25859   7.203  14.058  13.912  0.0276 -0.1514 -0.1145
 5580W        W25860  16.035   2.197   2.680  0.2364 -0.1498  0.1123
 5581W        W25861   6.523   7.412   2.891 -0.1478 -0.2337 -0.2206
 5582W        W25862   5.897   6.541  14.487 -0.1011  0.0919  0.1288
 5583W        W25863   0.201  15.761   2.829  0.1195 -0.2109  0.2616
 5584W        W25864   1.534  14.638  12.603 -0.3227  0.1118  0.2150
 5585W        W25865   6.215   7.371   1.209 -0.0892 -0.1243  0.0025
 5586W        W25866  10.583  17.144  12.986 -0.1521 -0.1703  0.0766
 5587W        W25867  17.648   9.542   3.475  0.2493 -0.0822 -0.2377
 5588W        W25868   6.462  12.263  13.211 -0.1454 -0.1889  0.1529
 5589W        W25869   6.403  17.939  13.563 -0.3787  0.2209 -0.0105
 5590W        W25870   2.855   2.469   4.130  0.0187 -0.1871 -0.3347
 5591W        W25871   7.328   5.859  13.637  0.1172 -0.1715  0.1571
 5592W        W25872  16.759  15.954   3.197  0.1677  0.2292  0.1982
 5593W        W25873   0.103   2.724  12.128 -0.0265  0.3123 -0.3893
 5594W        W25874  11.821  10.278  13.375  0.0391 -0.1992  0.0142
 5595W        W25875   5.283   3.622  10.993  0.0545  0.0798  0.4351
 5596W        W25876   3.897  17.616   0.296  0.3269  0.1830  0.0704
 5597W        W25877   1.494   2.230  11.349  0.2378 -0.1100  0.0150
 5598W        W25878   3.219   7.445  14.433  0.4258 -0.1379 -0.0109
 5599W        W25879  16.638  12.014  13.144 -0.1984 -0.1158  0.0028
 5600W        W25880   5.967   1.545   3.220 -0.2184 -0.0064  0.1954
 5601W        W25881   3.684   7.155  13.731 -0.0121 -0.3210 -0.4787
 5602W        W25882   7.158  14.812   1.553  0.0327  0.0727  0.2039
 5603W        W25883   5.742   3.705   3.742  0.1773 -0.0143 -0.1129
 5604W        W25884  13.131   9.797  13.769 -0.0717 -0.0763  0.2298
 5605W        W25885   8.642   8.209  13.863  0.0527  0.0796  0.0659
 5606W        W25886   6.409  13.275  12.874 -0.0736  0.1839 -0.0768
 5607W        W25887  10.226  16.437   2.798 -0.2542 -0.0203 -0.1396
 5608W        W25888   2.685   5.859   2.227  0.0031 -0.4355 -0.0516
 5609W        W25889  13.344   5.740   0.187 -0.1967 -0.1267 -0.1018
 5610W        W25890  10.680  12.281  11.095  0.2763 -0.0625 -0.3426
 5611W        W25891   8.454   5.714  12.880  0.0594 -0.1317  0.0607
 5612W        W25892   2.478  10.105   4.331  0.0686  0.1203 -0.3367
 5613W        W25893  15.644   2.035   2.443  0.0714  0.2515 -0.2347
 5614W        W25894  13.331   4.034   1.136 -0.1522  0.0314 -0.1119
 5615W        W25895  16.968   8.546   4.997 -0.0440  0.0657 -0.1154
 5616W        W25896   4.328  15.216  14.241 -0.0299  0.2309 -0.2015
 5617W        W25897   3.962  10.698  14.323  0.2316 -0.1531  0.2049
 5618W        W25898  13.836  12.384   3.072 -0.2592  0.1240 -0.2779
 5619W        W25899  11.962  15.895   4.213  0.3034 -0.1164 -0.1723
 5620W        W25900   9.471  11.079  13.031 -0.0558 -0.1373  0.2227
 5621W        W25901  14.796   1.708   0.907 -0.1710  0.2424  0.1420
 5622W        W25902  18.579   0.819  11.819  0.2616  0.0228 -0.1379
 5623W        W25903   5.129  14.007  11.941 -0.0142  0.0169 -0.1524
 5624W        W25904   7.679  16.623  15.174 -0.0652 -0.1238  0.2388
 5625W        W25905   0.077  17.016  12.375 -0.0359 -0.1609 -0.1296
 5626W        W25906  10.933   6.847   0.713 -0.2102 -0.0995  0.1349
 5627W        W25907  17.579  16.547   2.667  0.0308 -0.1558 -0.0387
 5628W        W25908  16.429   9.828  14.124 -0.0735 -0.1334 -0.0281
 5629W        W25909  14.110   2.753  11.843 -0.0149 -0.0685  0.2240
 5630W        W25910   0.934  15.756  14.881 -0.0048 -0.0610 -0.0672
 5631W        W25911  16.940   1.923  14.916  0.2315  0.1506 -0.0820
 5632W        W25912   9.536  13.005  15.378  0.0121  0.0339 -0.3073
 5633W        W25913  12.668   9.260   2.137 -0.1657 -0.0463 -0.0556
 5634W        W25914   3.798  11.684  13.027  0.2560 -0.0663 -0.0310
 5635W        W25915  13.222   8.416   3.627  0.1388 -0.1449  0.0177
 5636W        W25916  15.581  15.047   0.316 -0.1943 -0.0309  0.2334
 5637W        W25917  17.659   1.718  14.403  0.1947 -0.0597  0.0358
 5638W        W25918  17.346   8.368   0.137  0.0772 -0.2080 -0.1710
 5639W        W25919  16.336  12.643   1.448 -0.2348  0.2992 -0.4386
 5640W        W25920  10.909   0.762  11.940  0.0931 -0.1597  0.2004
 5641W        W25921   6.012   2.852   4.901 -0.2033 -0.0963 -0.2917
 5642W        W25922   2.252   3.166  11.483  0.1608 -0.1057 -0.0478
 5643W        W25923  17.545   1.067  13.078 -0.0868  0.0509  0.0193
 5644W        W25924  13.727   0.288   4.235  0.1082 -0.2799 -0.1194
 5645W        W25925  10.940   5.578  13.304  0.0851 -0.0777 -0.0324
 5646W        W25926   1.289   9.521   1.763 -0.0703 -0.3864  0.0337
 5647W        W25927   0.633   0.211  14.266 -0.0472 -0.0269  0.0935
 5648W        W25928  11.920   7.507   0.531  0.0416  0.1620 -0.2104
 5649W        W25929   7.126   4.853  11.685  0.1641  0.1926  0.0644
 5650W        W25930   1.908  14.329   1.103  0.0817 -0.0901  0.1576
 5651W        W25931  13.849  16.935   3.225 -0.0857 -0.0431  0.0795
 5652W        W25932   2.671  15.844   0.326 -0.0232  0.0057  0.0472
 5653W        W25933   0.323  12.130  11.745 -0.2270 -0.0746 -0.0696
 5654W        W25934   8.892  11.382  14.972  0.0031  0.0966 -0.0274
 5655W        W25935   0.775   8.692   2.007 -0.1168  0.0998 -0.0341
 5656W        W25936   2.326  10.622  12.512  0.0093 -0.1066 -0.0420
 5657W        W25937   0.185   2.742  13.112  0.1246 -0.0119 -0.3803
 5658W        W25938   6.214  18.566  11.858  0.3677 -0.0717 -0.1599
 5659W        W25939  11.731   3.945  11.715 -0.0886 -0.0365 -0.0476
 5660W        W25940   6.063   2.899  13.389  0.1234  0.1806 -0.0993
 5661W        W25941  17.657   7.499   2.844  0.0412 -0.0595 -0.1546
 5662W        W25942  12.864   6.282   3.111 -0.0107 -0.0554  0.1159
 5663W        W25943   0.827  14.855  13.434 -0.2802 -0.0745 -0.1821
 5664W        W25944   4.833  10.714   3.679 -0.0122 -0.3423  0.1208
 5665W        W25945  15.642   4.034   2.631 -0.0579  0.1201 -0.3086
 5666W        W25946  10.856  12.735  13.158 -0.0750  0.1941 -0.1563
 5667W        W25947   1.214   3.674  15.260 -0.0669 -0.1079 -0.3244
 5668W        W25948  12.861  11.175   0.296  0.1139  0.0394  0.1286
 5669W        W25949  14.481  18.382  13.780  0.1574 -0.2257 -0.1477
 5670W        W25950   1.422  15.296  13.935 -0.1594  0.0727  0.1340
 5671W        W25951  13.461  15.219  14.759  0.1722 -0.1752  0.2044
 5672W        W25952   2.377   2.426   3.906 -0.0023  0.1876  0.2683
 5673W        W25953  10.457  10.902   0.341  0.1384  0.0380 -0.0644
 5674W        W25954  14.188   1.057   1.065  0.0980 -0.0451  0.1311
 5675W        W25955  10.072   9.752  13.253 -0.0061 -0.3568 -0.0316
 5676W        W25956   6.458   1.343  12.661 -0.0344 -0.1437  0.3549
 5677W        W25957   5.490  12.838  13.492 -0.2496 -0.3533  0.0373
 5678W        W25958   6.833   8.372   2.038  0.3374  0.0585  0.0568
 5679W        W25959  10.646   4.633  14.766  0.0228  0.4233  0.1626
 5680W        W25960   9.299   1.367   2.410  0.1089 -0.1495 -0.1653
 5681W        W25961   3.636  10.674  14.813  0.1068  0.0513 -0.0100
 5682W        W25962   1.129   4.752   1.968 -0.1249 -0.4421  0.1445
 5683W        W25963  14.722   7.119   2.952 -0.0017 -0.2669 -0.1375
 5684W        W25964   4.129   5.927  11.309 -0.1085  0.0608  0.0651
 5685W        W25965  18.497  15.658   1.825  0.0025 -0.0728  0.0518
 5686W        W25966   5.582  13.483   1.576  0.2759  0.0014 -0.0523
 5687W        W25967  16.019   5.712   1.785  0.2619 -0.1700 -0.0313
 5688W        W25968   4.519   2.458  14.162  0.1136 -0.1286  0.0084
 5689W        W25969  15.601   9.132   3.363 -0.1572 -0.0161 -0.2638
 5690W        W25970   3.533  10.866  12.651  0.0749  0.3388 -0.2225
 5691W        W25971   0.042   7.973   0.833 -0.2274 -0.2270 -0.0356
 5692W        W25972  17.563   6.547   0.129  0.2593 -0.4006  0.1435
 5693W        W25973   9.048   3.654  13.307  0.2076  0.1828 -0.1067
 5694W        W25974   9.805   7.487   0.291  0.0775 -0.0136  0.1323
 5695W        W25975   6.679   1.186   3.878  0.3439 -0.4403 -0.2513
 5696W        W25976  17.020   1.308  14.797  0.0740 -0.0123  0.1312
 5697W        W25977   9.293   8.492  11.253  0.1882  0.1065 -0.0441
 5698W        W25978  16.094  12.046  13.834  0.1847 -0.2192  0.4891
 5699W        W25979  14.513   7.210  12.801 -0.0458  0.1649 -0.0565
 5700W        W25980   8.137   8.227  15.392 -0.0328  0.0746  0.1187
 5701W        W25981   1.441   9.422   3.866 -0.2651 -0.1968 -0.0360
 5702W        W25982  15.343  10.861  14.075 -0.2298  0.0049 -0.3094
 5703W        W25983  10.632  13.806  13.420 -0.0417  0.0037  0.1425
 5704W        W25984  11.720   3.292  14.033 -0.1036 -0.0797 -0.2292
 5705W        W25985  18.645  16.318  11.501  0.2107  0.2411  0.0393
 5706W        W25986   8.869  12.335  13.804  0.2209 -0.0252  0.0637
 5707W        W25987   5.873   1.984  12.488  0.2987  0.1705  0.1392
 5708W        W25988   7.678   1.483  12.385  0.7013  0.3241  0.0112
 5709W        W25989   3.770  12.109   1.723 -0.1261 -0.1792 -0.0948
 5710W        W25990   3.932   9.117  10.468 -0.0344  0.0511 -0.1255
 5711W        W25991  16.181  14.264   4.521 -0.1522  0.2351  0.3816
 5712W        W25992  16.755  12.292  11.643 -0.0282  0.2320  0.1316
 5713W        W25993  16.398   4.727   3.937 -0.0945  0.1211  0.4087
 5714W        W25994  13.276   7.506  13.042 -0.0193  0.3380 -0.0989
 5715W        W25995  14.422  10.443   3.338 -0.0089  0.0336  0.0022
 5716W        W25996  10.834   2.321  13.828  0.1642 -0.0742  0.1397
 5717W        W25997   7.269   2.080   3.163 -0.1209 -0.0729  0.0454
 5718W        W25998   2.440  18.419  14.174 -0.0569 -0.0983 -0.3035
 5719W        W25999   9.523   9.480  15.176 -0.1338 -0.0852 -0.2130
 5720W        W26000  15.453  17.201  13.252 -0.0412 -0.0269  0.1544
 5721W        W26001   8.593   8.187   0.763 -0.0444 -0.3119 -0.0105
 5722W        W26002   9.368   8.643   3.952  0.1068 -0.1257  0.1135
 5723W        W26003  10.789   9.057   0.106 -0.0489 -0.2682 -0.1837
 5724W        W26004   5.908  14.283  12.347  0.1454 -0.0331  0.3985
 5725W        W26005   9.449  15.924   3.917  0.3200  0.1774  0.0708
 5726W        W26006   5.231  18.297   4.344 -0.0586  0.2075 -0.2650
 5727W        W26007   5.304   3.379  12.386 -0.2506 -0.2217 -0.0737
 5728W        W26008   2.110   0.126   0.007 -0.0114  0.1504 -0.0817
 5729W        W26009   5.166  17.286   1.799 -0.1872  0.0568  0.3886
 5730W        W26010  17.320  15.059   3.657  0.1415 -0.1306 -0.0279
 5731W        W26011  18.169  18.320  11.248  0.0688  0.1388  0.2197
 5732W        W26012   9.154  17.724  12.172  0.4688 -0.5531  0.2668
 5733W        W26013   9.928   6.762   2.686  0.1433  0.1082 -0.0880
 5734W        W26014   9.866  16.700  14.185  0.0213  0.2457 -0.0794
 5735W        W26015   4.389   3.621   0.552 -0.2261 -0.0858 -0.0800
 5736W        W26016   7.521  14.563   2.635  0.1769 -0.0714 -0.1821
 5737W        W26017  17.815  14.122  14.682  0.0688 -0.0781 -0.2458
 5738W        W26018   4.469   8.715   1.106  0.0262 -0.1498  0.1780
 5739W        W26019  11.392  10.975  14.132 -0.1401  0.0470  0.2661
 5740W        W26020   6.789  12.320  14.824  0.5143 -0.0434 -0.0355
 5741W        W26021  13.145   9.988  13.293  0.1158 -0.1506  0.1468
 5742W        W26022   6.094   6.828  14.906 -0.1796 -0.1972  0.1943
 5743W        W26023  14.423   7.721  12.621  0.0079 -0.1488 -0.1783
 5744W        W26024  11.393  15.672  14.272  0.1072 -0.0204 -0.2251
 5745W        W26025   4.307   0.348  11.279  0.0744 -0.3231  0.1369
 5746W        W26026  15.813  16.930   4.592 -0.1538  0.0699 -0.2447
 5747W        W26027   4.652   3.329  12.990  0.2337  0.1550 -0.0349
 5748W        W26028   7.971   8.660   0.229  0.0795 -0.1540 -0.0876
 5749W        W26029  13.764   2.590  14.544 -0.1626  0.2034  0.0203
 5750W        W26030   2.941   5.902   2.733 -0.0922  0.1322  0.1547
 5751W        W26031   3.315   2.586  11.931 -0.0269 -0.1991  0.0319
 5752W        W26032  15.359   5.984   3.299 -0.1904 -0.0675 -0.0069
 5753W        W26033  12.698   3.367  11.422 -0.0799 -0.1127  0.1126
 5754W        W26034   1.304   1.847  14.822  0.1595  0.1858  0.2958
 5755W        W26035  10.220  15.608   2.594 -0.0999 -0.1645 -0.1149
 5756W        W26036   1.650  11.203  12.472  0.1360  0.0651  0.0364
 5757W        W26037   4.790   6.423   0.824  0.1718  0.2860 -0.0466
 5758W        W26038   7.401  14.483  14.765 -0.3403 -0.0082  0.0287
 5759W        W26039   7.004  15.731  14.118  0.0612  0.0166 -0.1597
 5760W        W26040   7.400  14.776  11.632  0.1156  0.3318 -0.2019
 5761W        W26041   9.164  12.674   0.010 -0.3875 -0.2451  0.1320
 5762W        W26042   8.058  15.504   3.753 -0.0488 -0.3867  0.2627
 5763W        W26043   9.972  11.010   5.384 -0.0060 -0.2751  0.2350
 5764W        W26044   0.819  11.863   3.553  0.0003 -0.1443  0.0650
 5765W        W26045   8.367   4.334  12.461  0.1868  0.0372  0.0025
 5766W        W26046  11.176   0.959  10.898  0.0367 -0.3234 -0.1513
 5767W        W26047   3.842   1.306  10.922  0.1280  0.3082  0.0147
 5768W        W26048  17.241   6.634   4.359 -0.3221 -0.6356  0.3226
 5769W        W26049  11.135  12.855  11.803 -0.0475  0.0429 -0.3917
 5770W        W26050   3.822  17.882  14.305  0.2258  0.0004  0.2021
 5771W        W26051   9.397  14.621  14.609 -0.2678  0.1223  0.0259
 5772W        W26052   0.826   5.208   3.995  0.0568  0.2869 -0.0451
 5773W        W26053  15.719  17.774   4.328  0.1290 -0.2384  0.2300
 5774W        W26054   1.893  14.802   0.952 -0.1942 -0.0803 -0.2296
 5775W        W26055   8.659  14.535  14.264  0.1034 -0.1839  0.0410
 5776W        W26056   8.598  18.053  10.938 -0.2683 -0.1969  0.0300
 5777W        W26057   4.394  18.181   2.497  0.0005 -0.0615  0.2854
 5778W        W26058   0.294  10.575  13.761 -0.0736  0.0968 -0.3132
 5779W        W26059   0.371  10.367  12.342 -0.0200  0.2999 -0.0444
 5780W        W26060   8.043   6.225   1.697 -0.0365  0.0376  0.2830
 5781W        W26061  16.604   1.790  13.611 -0.1033 -0.3244  0.0318
 5782W        W26062  15.728  15.552  11.625  0.1398  0.2485  0.3039
 5783W        W26063   4.935  12.102   4.180 -0.0433 -0.2337 -0.1027
 5784W        W26064  14.236  11.868   4.030 -0.0603 -0.1230  0.0688
 5785W        W26065   2.557   2.528  14.561  0.3792  0.1520  0.2925
 5786W        W26066   0.769   7.892   2.750  0.1326  0.2874  0.1172
 5787W        W26067  17.940  16.587  14.074 -0.0135  0.1276 -0.0754
 5788W        W26068   9.208   8.857  13.768 -0.1493  0.1367  0.0255
 5789W        W26069   0.066  14.228  12.646 -0.2331 -0.6253 -0.1558
 5790W        W26070   3.735  13.037  11.850  0.0111  0.0789  0.1765
 5791W        W26071   4.181   1.985  11.941 -0.0255 -0.3315  0.0229
 5792W        W26072   1.774   8.342   4.288 -0.2135 -0.0221 -0.0869
 5793W        W26073  15.546  17.453   0.881 -0.0732  0.0402 -0.1168
 5794W        W26074   5.310  10.373   0.926 -0.0970 -0.1863 -0.2869
 5795W        W26075   2.259  16.253  12.491 -0.1227  0.3348 -0.1652
 5796W        W26076  11.043  16.615   0.346 -0.2012  0.1046 -0.1464
 5797W        W26077   9.551  12.916  13.586 -0.1210  0.0528 -0.1661
 5798W        W26078  14.634  16.380  14.824  0.0392 -0.0920  0.2673
 5799W        W26079  16.347   7.670  12.478 -0.0175 -0.5050  0.1283
 5800W        W26080   4.779   0.463   2.091 -0.2420  0.1754  0.0182
 5801W        W26081  18.467  13.498   1.121 -0.2534  0.1771  0.1039
 5802W        W26082  17.103  16.169  11.932 -0.1166 -0.0436 -0.1531
 5803W        W26083  14.153   6.823  12.689  0.0971  0.2011 -0.3683
 5804W        W26084   2.504  10.225   3.446  0.0751  0.1104  0.0402
 5805W        W26085  13.605  12.402  15.259 -0.2866 -0.2173 -0.1983
 5806W        W26086   1.512   1.591   0.394  0.2341 -0.2738 -0.2166
 5807W        W26087  16.194  15.324  12.332 -0.0299 -0.0573  0.3413
 5808W        W26088   9.013  15.287   4.706 -0.3353  0.2100  0.5342
 5809W        W26089  17.576  14.778  12.200 -0.1947  0.1262  0.1966
 5810W        W26090   4.072   7.536   4.738  0.1326 -0.1103 -0.3770
 5811W        W26091   1.608  14.840   0.574 -0.0502 -0.0945 -0.2085
 5812W        W26092   4.227   6.226   1.894  0.2046 -0.0272 -0.0529
 5813W        W26093   2.103  14.076   0.371 -0.0379 -0.0434 -0.0482
 5814W        W26094  15.698  17.277  14.193  0.1492  0.0847  0.1889
 5815W        W26095   6.175  16.468  10.415 -0.0082 -0.0777  0.1790
 5816W        W26096  13.052  13.922   1.942 -0.2094 -0.1765 -0.3422
 5817W        W26097  10.614  15.575  11.712  0.0715  0.0860 -0.2312
 5818W        W26098  13.369  17.933   3.914  0.1239 -0.1135 -0.1828
 5819W        W26099  13.885   4.048  12.765  0.2262 -0.1983  0.1746
 5820W        W26100  13.353  18.490  13.942 -0.2740  0.1218 -0.1183
 5821W        W26101  18.610  11.229   0.849  0.0026 -0.0993  0.1534
 5822W        W26102  18.047  15.324   3.108  0.1982 -0.2096 -0.1512
 5823W        W26103  17.423  18.238  14.501 -0.3061  0.0563  0.1806
 5824W        W26104  11.209   4.496  14.771  0.2601  0.0071 -0.0386
 5825W        W26105   8.488  10.016  13.704  0.1641  0.0294  0.0310
 5826W        W26106   4.245   7.487   0.312  0.1917  0.2844 -0.2253
 5827W        W26107  12.515  17.478  15.124 -0.0924  0.0062 -0.0142
 5828W        W26108   4.274   1.794   2.018 -0.2955  0.2170  0.0325
 5829W        W26109  16.401  14.944  13.666 -0.1576  0.0802  0.0550
 5830W        W26110  14.570   6.844   0.595  0.2894  0.2510 -0.0712
 5831W        W26111   9.566  12.075   1.272 -0.0181  0.1445 -0.0077
 5832W        W26112   4.024   1.267   0.543 -0.1028 -0.3950 -0.0401
 5833W        W26113   2.125  11.055  12.686 -0.0371  0.1024 -0.1862
 5834W        W26114  10.772  13.744  14.284  0.3490  0.0556 -0.0473
 5835W        W26115  11.823  15.726   4.809 -0.1827 -0.1270  0.1206
 5836W        W26116   4.996  10.560   2.263 -0.1089 -0.0778 -0.0973
 5837W        W26117  10.224  18.118   3.646 -0.0465 -0.4129 -0.2686
 5838W        W26118  14.647  18.337   4.241  0.0318 -0.0618  0.1434
 5839W        W26119  11.420  10.284   2.729  0.2645 -0.0981  0.1251
 5840W        W26120  18.073   0.993  13.972 -0.1238 -0.1002 -0.0600
 5841W        W26121   0.849  13.146   1.792  0.2203 -0.3377 -0.2567
 5842W        W26122  13.888  11.764  14.622 -0.2258  0.1875 -0.1223
 5843W        W26123   7.698  13.448  10.597  0.2525  0.0551  0.1042
 5844W        W26124   6.494  10.807  13.737 -0.1371  0.0256 -0.0176
 5845W        W26125   2.402   6.471  11.109  0.1157 -0.0420  0.0281
 5846W        W26126  12.829   6.788  13.139 -0.0432 -0.1203 -0.1237
 5847W        W26127   6.128   9.476  14.689 -0.2115  0.0352  0.0905
 5848W        W26128   8.213  16.553  11.688  0.2052  0.1608 -0.2588
 5849W        W26129  14.508  14.805  13.321 -0.2623 -0.1210 -0.1346
 5850W        W26130  14.220  15.381  14.033 -0.0785 -0.0642  0.0448
 5851W        W26131  15.868   7.861   3.419  0.0531  0.0429  0.2093
 5852W        W26132   0.632  10.410  13.401  0.2400  0.2240 -0.0590
 5853W        W26133   2.893  11.084  13.653 -0.0855  0.0943 -0.3749
 5854W        W26134   7.726  17.908   3.282  0.1020  0.0441 -0.0287
 5855W        W26135   5.752   1.729  13.343  0.0739  0.3050  0.0222
 5856W        W26136   0.698   9.895   4.973 -0.0499  0.2812  0.1029
 5857W        W26137  14.543   9.865  11.731  0.1339  0.0120 -0.0879
 5858W        W26138  10.743  14.751   1.262  0.0369  0.0962 -0.3270
 5859W        W26139  12.720  17.477   0.645  0.1126  0.1661  0.0306
 5860W        W26140  15.485  10.177  12.480  0.2970 -0.2199  0.0367
 5861W        W26141   3.208   8.202  12.194 -0.0230  0.1885  0.2036
 5862W        W26142  17.069   7.108  14.300  0.0285  0.2173 -0.0093
 5863W        W26143  13.795  17.542   3.889  0.2969  0.1028  0.1257
 5864W        W26144  11.465  10.020  13.941 -0.2388 -0.0296  0.1869
 5865W        W26145   7.273   8.086   1.960  0.0457  0.3416 -0.0769
 5866W        W26146   0.213  17.557   1.815  0.2064 -0.2976 -0.1037
 5867W        W26147  14.393   1.783   0.562  0.0489  0.1219 -0.0843
 5868W        W26148  10.892   5.100   2.783  0.2848 -0.2603 -0.0944
 5869W        W26149  14.125   2.634  13.112 -0.1206  0.4463  0.1547
 5870W        W26150   9.907  10.002   2.962 -0.1201  0.2487  0.2187
 5871W        W26151  12.217   1.844   2.695  0.1293  0.0752 -0.1676
 5872W        W26152   3.655   6.813  14.790 -0.0348 -0.1948 -0.0319
 5873W        W26153  12.322   7.927  11.731  0.1609  0.0620 -0.1129
 5874W        W26154  15.295  11.420   1.524  0.0003 -0.2783  0.0497
 5875W        W26155   9.859  18.699  15.192 -0.0975  0.0381  0.0412
 5876W        W26156  16.818  16.579   3.240 -0.0108 -0.0088  0.0746
 5877W        W26157   3.151  11.837   3.040 -0.0797 -0.3109  0.0870
 5878W        W26158   5.194   0.420  13.787 -0.0080  0.1310  0.0952
 5879W        W26159  12.293   5.122   2.762  0.2657 -0.1765 -0.0671
 5880W        W26160  17.764  12.007  11.645  0.3180  0.0794  0.1717
 5881W        W26161   2.101  11.830   3.201 -0.1926 -0.1945 -0.0643
 5882W        W26162  17.801   7.935  12.541 -0.0242  0.2858 -0.0726
 5883W        W26163  10.681   0.854   3.557  0.0887  0.1007 -0.0065
 5884W        W26164  10.235   4.613  15.194 -0.1395 -0.2160  0.0148
 5885W        W26165  12.586   8.570   1.049  0.3028 -0.0035  0.0269
 5886W        W26166  18.647   5.447  13.144  0.0279 -0.1149 -0.0310
 5887W        W26167  15.229   6.816  14.489  0.0737  0.1849  0.0242
 5888W        W26168  16.598  11.859  14.231 -0.0982  0.0866  0.4211
 5889W        W26169  18.077   9.284   3.579 -0.2582  0.1986  0.1647
 5890W        W26170  16.351  12.347   4.089 -0.0391 -0.1416 -0.0836
 5891W        W26171  16.642   3.479   0.847  0.2525  0.1585  0.3853
 5892W        W26172  11.032  13.942  11.248  0.0386 -0.0031  0.1587
 5893W        W26173   6.080   4.330   1.721  0.0528  0.1476 -0.0545
 5894W        W26174   8.654   8.459   1.361  0.0306 -0.1106 -0.0023
 5895W        W26175   4.330   6.283  13.531 -0.2210  0.2377  0.0759
 5896W        W26176   3.050  14.638  11.804 -0.3999  0.0822 -0.3268
 5897W        W26177  12.338   3.119  11.744  0.1856 -0.0074 -0.0623
 5898W        W26178  15.534  15.920  15.206  0.0938 -0.1733 -0.0392
 5899W        W26179   8.631  13.145   2.967 -0.0178 -0.1716  0.2371
 5900W        W26180  14.676   8.981  11.313  0.1532  0.1678 -0.0560
 5901W        W26181  10.429  18.635  14.050  0.2006 -0.0390 -0.0209
 5902W        W26182   9.291   7.077   2.248 -0.0356 -0.0373 -0.2032
 5903W        W26183   6.892  15.221  13.403 -0.0392 -0.0417 -0.1501
 5904W        W26184   9.602  12.806   3.599 -0.0001  0.0055  0.3875
 5905W        W26185  12.363  15.686   4.548  0.0069  0.1215 -0.1902
 5906W        W26186   4.059  16.286   1.018 -0.3083  0.0350 -0.0085
 5907W        W26187   5.078   3.163  13.841 -0.0524 -0.1358  0.2348
 5908W        W26188  11.446   2.957   3.477  0.1269 -0.0015 -0.1003
 5909W        W26189  15.365  12.910   3.037 -0.0578 -0.1089 -0.0927
 5910W        W26190  16.271  16.503   3.896 -0.0345  0.4060  0.3159
 5911W        W26191   5.540  12.168  14.224 -0.0684  0.2601  0.0379
 5912W        W26192   7.863  15.565  11.263  0.2175 -0.1665  0.0483
 5913W        W26193   8.482  13.090  14.406 -0.2555  0.0536 -0.0440
 5914W        W26194  15.747   2.899  14.253  0.1790 -0.0808  0.0711
 5915W        W26195   9.446   8.047   0.517  0.0736 -0.1006 -0.0092
 5916W        W26196   0.319   7.526   3.478  0.2123  0.1121  0.2762
 5917W        W26197  11.881   7.225   1.481  0.0405  0.1158 -0.0375
 5918W        W26198   5.367   5.692  14.844  0.0186 -0.3832  0.1014
 5919W        W26199  11.544  12.043   3.014 -0.0853  0.4329  0.0473
 5920W        W26200   4.056   5.873  12.546  0.3948 -0.4295  0.2763
 5921W        W26201  14.763  17.828  13.130  0.1645  0.0706 -0.4624
 5922W        W26202   3.857  11.497   1.140 -0.0522 -0.3106  0.2266
 5923W        W26203  12.987   6.964   2.188 -0.1022  0.2662  0.0996
 5924W        W26204   8.773   9.249   3.225 -0.0292 -0.0735  0.0314
 5925W        W26205  12.494   1.012  13.959 -0.1375 -0.0381 -0.2072
 5926W        W26206  12.444   0.638  14.263  0.0326  0.1136 -0.1926
 5927W        W26207   3.379  16.537   2.535 -0.1445 -0.2223  0.3794
 5928W        W26208   2.227  15.848  11.799  0.2112  0.0519 -0.1678
 5929W        W26209  10.181   5.310  14.413 -0.1068 -0.2536 -0.2430
 5930W        W26210   1.578  16.679   2.421 -0.1199 -0.2130  0.1137
 5931W        W26211   2.334  10.429   3.886  0.1017 -0.0366 -0.1297
 5932W        W26212   8.602  14.428   3.476 -0.0865  0.1248  0.0402
 5933W        W26213   1.145   6.462  14.047 -0.2912  0.0694 -0.2677
 5934W        W26214  11.735   7.822  13.732  0.1110  0.3056  0.2485
 5935W        W26215  10.735   2.578  14.597 -0.2763 -0.1814  0.0366
 5936W        W26216   5.729   1.338  13.000 -0.1650 -0.3476  0.3566
 5937W        W26217  17.092   0.238  13.321  0.0805 -0.0596 -0.1859
 5938W        W26218  16.018   3.136   2.663 -0.2260 -0.0706  0.4260
 5939W        W26219   5.356  14.795   4.094  0.3107 -0.0280  0.0227
 5940W        W26220   4.019  17.215  12.753 -0.0366  0.2030 -0.2636
 5941W        W26221   9.109   1.056   4.066 -0.2163 -0.1286 -0.0574
 5942W        W26222   3.829  18.580  13.924  0.0839 -0.2045  0.1259
 5943W        W26223   5.626   7.427   3.931 -0.2700  0.1531 -0.0986
 5944W        W26224   5.081  17.532   0.683  0.1283 -0.0513 -0.0109
 5945W        W26225   0.068   6.891  14.727 -0.3958 -0.2371 -0.1865
 5946W        W26226  15.706   3.614  13.556  0.3645  0.1109 -0.2378
 5947W        W26227  11.007   9.629   4.000  0.0815 -0.0840 -0.0076
 5948W        W26228   9.026  12.556   4.032 -0.1953 -0.0069  0.0457
 5949W        W26229   3.225   3.720   2.439  0.0910  0.0540 -0.2969
 5950W        W26230   2.633   5.226   4.027  0.1717 -0.1038  0.1232
 5951W        W26231  14.143  10.472  14.557  0.0786 -0.1262 -0.3324
 5952W        W26232  17.210   6.823  15.227 -0.2196 -0.1136 -0.1160
 5953W        W26233   7.337  17.546  13.741  0.1607 -0.2075  0.1673
 5954W        W26234  10.885  17.475  15.231 -0.1884 -0.3829 -0.0123
 5955W        W26235   3.764  12.374  12.226 -0.0096  0.0443  0.2108
 5956W        W26236  18.634  15.103   4.380  0.1891 -0.2042  0.0666
 5957W        W26237   3.118  11.515   4.106 -0.2420 -0.0204 -0.1704
 5958W        W26238   9.027   7.904   1.004  0.0894 -0.3376 -0.0627
 5959W        W26239   5.155  12.111   1.219  0.2140  0.1130 -0.3898
 5960W        W26240  10.097  12.892  13.494  0.2603 -0.0857  0.1173
 5961W        W26241   4.770   2.401   0.398 -0.0594 -0.1618  0.0139
 5962W        W26242  14.761   9.440   0.597 -0.0887  0.0415  0.2742
 5963W        W26243  12.992  13.063  13.157  0.1957  0.1343  0.3051
 5964W        W26244   1.922   2.302   1.750 -0.3863  0.3186 -0.2100
 5965W        W26245  12.385   4.042   3.593  0.0719 -0.0623 -0.0249
 5966W        W26246   9.821  11.168  11.050  0.0554 -0.0813 -0.1458
 5967W        W26247   2.416   4.135  12.896  0.3560  0.2847  0.3688
 5968W        W26248  11.475   1.904   2.049  0.0962 -0.1949  0.2504
 5969W        W26249   0.662   1.555  14.829  0.3451  0.1193 -0.0662
 5970W        W26250   1.768  10.704   0.497  0.1073  0.0729  0.0013
 5971W        W26251  13.715  12.324  12.014 -0.0295  0.0484 -0.1741
 5972W        W26252  16.511  10.325   5.634  0.0537 -0.3598  0.2414
 5973W        W26253  15.222   9.762   3.200  0.0411  0.0715  0.1886
 5974W        W26254   3.802  10.867  15.279 -0.1288 -0.0967 -0.1186
 5975W        W26255   5.833  10.028  14.508 -0.3212  0.0636 -0.0693
 5976W        W26256  12.353  14.745  12.648 -0.0188 -0.4224 -0.2953
 5977W        W26257   1.452  10.854  11.044  0.1431 -0.0327  0.0175
 5978W        W26258   1.176   3.049  10.556  0.4488 -0.2536  0.0711
 5979W        W26259   6.933  13.267   3.343 -0.0817 -0.0267  0.0327
 5980W        W26260   2.161   6.753   0.794 -0.1589 -0.1347  0.1495
 5981W        W26261   1.242   6.678   4.544  0.1108 -0.0115 -0.2439
 5982W        W26262   0.818   5.537  12.367  0.2413  0.1079  0.4014
 5983W        W26263  14.868  10.758  13.250 -0.1497  0.1738  0.0486
 5984W        W26264   3.311   2.886   0.881  0.2009  0.0914  0.0782
 5985W        W26265  11.079  11.128  11.403 -0.0225  0.2548 -0.0834
 5986W        W26266   7.338  17.046  11.686  0.0509 -0.2182  0.0255
 5987W        W26267   5.904  18.701  13.802  0.0431 -0.2012 -0.1212
 5988W        W26268   1.839   5.911  13.521  0.1322  0.0204  0.1537
 5989W        W26269  15.058   6.056   1.009  0.2877 -0.0612 -0.1953
 5990W        W26270   6.102   9.254   0.797  0.2047 -0.3645 -0.0842
 5991W        W26271   1.429  10.247  15.185 -0.0766  0.4213  0.3180
 5992W        W26272  16.578   7.719   0.611  0.0909  0.2738 -0.0421
 5993W        W26273  11.152   3.889   2.327  0.0550  0.0555 -0.2153
 5994W        W26274  13.963   2.392   1.323 -0.2574  0.1991 -0.4559
 5995W        W26275   5.553  10.562  13.370 -0.1179 -0.0050 -0.1005
 5996W        W26276  14.998   8.600  13.249  0.4048  0.1004 -0.0182
 5997W        W26277   1.068   1.255  13.156 -0.0339  0.1331  0.0558
 5998W        W26278   3.336  13.931  12.149  0.1098  0.3735 -0.1769
 5999W        W26279  16.877   2.893  14.981  0.0162  0.1690 -0.1275
 6000W        W26280  13.723  18.319  11.064 -0.0183 -0.0976  0.0388
 6001W        W26281   8.871  12.615  12.973 -0.3036  0.0637  0.2826
 6002W        W26282  18.317   7.533  11.467 -0.0466 -0.2445  0.1312
 6003W        W26283  13.494   9.428  14.254 -0.1058  0.3108  0.0105
 6004W        W26284  12.092  13.571  11.127  0.0911  0.2845  0.0865
 6005W        W26285  12.155  16.497  10.823  0.1243  0.1992  0.0453
 6006W        W26286  15.244  17.855   0.287 -0.2420 -0.0056  0.0963
 6007W        W26287  10.598   9.645  14.023 -0.1019  0.0884 -0.0527
 6008W        W26288  13.511   3.805   1.505 -0.2060 -0.0454 -0.1578
 6009W        W26289   9.889  16.615   1.558 -0.0835  0.2708 -0.0376
 6010W        W26290  12.848   9.582  13.391  0.1470 -0.0109 -0.0887
 6011W        W26291  10.755   4.829  15.191  0.0714  0.1073  0.1561
 6012W        W26292   6.027   8.753   3.107 -0.1484  0.0232 -0.0463
 6013W        W26293  13.935  16.450   1.832  0.1675  0.0380 -0.0762
 6014W        W26294   1.825  10.200   2.271 -0.0209 -0.1629 -0.0272
 6015W        W26295   3.796  17.674  12.638  0.0023  0.0482  0.0765
 6016W        W26296  15.534  10.492  10.185 -0.3534 -0.2243  0.1191
 6017W        W26297   5.194   1.218  14.766  0.0064  0.1193 -0.3236
 6018W        W26298  15.302   4.914   0.626  0.0796  0.0642  0.0596
 6019W        W26299  16.934  17.144   0.486 -0.4057 -0.2404  0.0635
 6020W        W26300  11.640   6.673  13.721 -0.0555 -0.0117  0.0559
 6021W        W26301   0.549   4.794   1.365  0.2268  0.1355 -0.1935
 6022W        W26302  17.861  12.129   1.135  0.0041 -0.0712 -0.0978
 6023W        W26303   3.809  13.238  12.339 -0.1623 -0.0414 -0.3851
 6024W        W26304  18.122   8.981  13.534 -0.2151 -0.1686 -0.0514
 6025W        W26305  11.243   0.595   2.334 -0.0913  0.1531 -0.0855
 6026W        W26306  14.349   9.594  15.047 -0.1216  0.1618  0.2338
 6027W        W26307  13.949  16.850   3.764 -0.0605 -0.0344 -0.1579
 6028W        W26308   1.957   2.595   4.362 -0.1207 -0.0993  0.1654
 6029W        W26309   0.543  10.363   4.749  0.0168 -0.0923  0.0349
 6030W        W26310  12.323   0.263   1.515 -0.2205 -0.0458 -0.1634
 6031W        W26311   5.254  12.289   0.388 -0.1563  0.1859  0.0950
 6032W        W26312   6.373  14.556  11.626 -0.2089 -0.0760 -0.1403
 6033W        W26313   1.175   8.488   2.223  0.1943  0.0269 -0.0508
 6034W        W26314   5.049   1.744  12.511 -0.0894 -0.0713 -0.0603
 6035W        W26315   8.856   1.825  11.710 -0.2140 -0.1610 -0.0410
 6036W        W26316  11.417  15.670  11.957  0.1564  0.0991  0.1707
 6037W        W26317  18.140   0.159   4.641 -0.2609  0.1272  0.0138
 6038W        W26318  16.552  17.107   1.824  0.0595 -0.1004  0.0108
 6039W        W26319  14.202   2.709   3.846  0.0319 -0.0330  0.1746
 6040W        W26320   4.696  16.472   0.165  0.2603 -0.1380  0.3915
 6041W        W26321  18.612   5.285   1.867 -0.2304 -0.0224  0.0364
 6042W        W26322  11.404   4.077  12.065  0.0457  0.0457 -0.1388
 6043W        W26323   8.042  16.591  13.277  0.0284  0.1244 -0.1685
 6044W        W26324  10.173  14.083  13.511  0.2633  0.1462 -0.2029
 6045W        W26325  13.909  11.041  11.939  0.0859 -0.2133 -0.3366
 6046W        W26326  11.878   0.329   4.109 -0.0998 -0.1728 -0.1941
 6047W        W26327   7.044  10.705   3.187 -0.0101  0.3391  0.1035
 6048W        W26328  16.629  16.730   0.159 -0.2893 -0.0027  0.0974
 6049W        W26329  11.982   6.977   4.030  0.0740  0.0149  0.1465
 6050W        W26330  12.499  16.183   1.026 -0.1574 -0.1823  0.1270
 6051W        W26331  12.941  10.413  12.378  0.2113  0.0406  0.1052
 6052W        W26332   3.349  11.961   0.374 -0.1235  0.0869  0.2126
 6053W        W26333   2.647   5.959  15.276  0.5492 -0.2457  0.0053
 6054W        W26334  13.637   7.555  13.324 -0.1372 -0.2088 -0.0652
 6055W        W26335  10.703   4.869   3.663  0.3977 -0.0075  0.1151
 6056W        W26336   2.892   9.239  11.807 -0.4813  0.0303  0.0465
 6057W        W26337  15.535   7.367   2.331 -0.1405 -0.1378 -0.0599
 6058W        W26338   0.066   7.066  13.252 -0.3699 -0.1390  0.0152
 6059W        W26339   5.975  16.064   2.812 -0.1344 -0.0626  0.0420
 6060W        W26340   1.651   9.073   1.037 -0.0061 -0.3468 -0.4978
 6061W        W26341   0.845  13.840  14.230  0.0511  0.0844  0.2071
 6062W        W26342   4.708  12.885   4.180  0.1007 -0.4232  0.2443
 6063W        W26343   1.363   9.949  14.330  0.2493 -0.0916  0.1386
 6064W        W26344  16.479   1.893  15.289 -0.0458 -0.2542 -0.1202
 6065W        W26345   6.778  17.773   2.198  0.2517  0.0084  0.0557
 6066W        W26346   9.332   5.339  14.999  0.3441  0.0870  0.0291
 6067W        W26347   8.505   7.078  12.489  0.1250  0.2511  0.0147
 6068W        W26348   7.011   4.442   3.639 -0.1065  0.3042  0.2948
 6069W        W26349  11.568  14.328   2.696  0.1983  0.1275  0.0838
 6070W        W26350  17.040  10.283  12.010 -0.1228  0.1810 -0.2276
 6071W        W26351  10.565   4.808   3.044  0.1165 -0.3296 -0.1076
 6072W        W26352  17.171   7.696   4.665 -0.0506 -0.0208  0.4017
 6073W        W26353  15.257   3.380  13.547  0.1622  0.2153 -0.1005
 6074W        W26354   6.777  17.519   0.941  0.2036  0.1003 -0.1224
 6075W        W26355   2.050   0.686   3.504 -0.0781 -0.0041 -0.3538
 6076W        W26356  11.452   3.501   2.154  0.0735  0.0400 -0.1782
 6077W        W26357   8.865   4.238  11.641 -0.1430 -0.1114 -0.0084
 6078W        W26358   2.469  14.893  12.835 -0.1251  0.0619 -0.0808
 6079W        W26359   7.412   2.587  15.050 -0.2936 -0.1118  0.2840
 6080W        W26360  16.099  11.610  12.131 -0.0389  0.0470 -0.0720
 6081W        W26361  11.127  10.513  13.483  0.0880 -0.1751  0.0120
 6082W        W26362  14.074  10.492   1.921  0.0020 -0.0856 -0.0514
 6083W        W26363   8.671  17.918  11.725 -0.2089 -0.0032  0.1500
 6084W        W26364   4.448   9.196  12.827  0.1617  0.1109 -0.2587
 6085W        W26365   6.018   1.431  14.291  0.2972 -0.0274  0.0712
 6086W        W26366  11.851   9.500  14.997  0.2314  0.1406  0.1497
 6087W        W26367   4.126  10.667  13.028 -0.1094 -0.1602  0.1178
 6088W        W26368  13.226   3.079   0.228 -0.0442 -0.0668 -0.3754
 6089W        W26369   7.333   8.068  13.515 -0.0055 -0.1381  0.0975
 6090W        W26370   3.321  17.008  12.267  0.3565 -0.1789  0.0024
 6091W        W26371   4.641   4.495  13.292 -0.0435 -0.1592  0.3135
 6092W        W26372   7.126   0.587  13.238 -0.0656  0.1391 -0.1198
 6093W        W26373   7.088   0.658  14.317 -0.0968  0.0079 -0.1105
 6094W        W26374  14.503   3.836   0.646 -0.1844 -0.0256  0.0864
 6095W        W26375  16.107   6.905  14.779  0.0255  0.0191 -0.1149
 6096W        W26376  14.096   5.854  10.661  0.0933  0.1012  0.0522
 6097W        W26377   3.756   5.443  13.844  0.1608 -0.0836  0.0639
 6098W        W26378   3.268  12.636   3.394 -0.1112 -0.0086  0.1716
 6099W        W26379   6.977  15.240   2.119  0.0945 -0.1038  0.1168
 6100W        W26380   1.115   9.484   3.335  0.1899 -0.2118 -0.1819
 6101W        W26381   9.297  17.402   1.454 -0.1280 -0.2008 -0.0864
 6102W        W26382  15.670   5.249  12.097 -0.0211  0.4063  0.0821
 6103W        W26383   3.627  18.056   0.377 -0.1938  0.1408  0.1447
 6104W        W26384   4.261  17.638  14.133  0.1258 -0.0511 -0.0541
 6105W        W26385  15.222  10.946  11.749 -0.0361 -0.1710  0.0157
 6106W        W26386  17.032   3.815  14.976 -0.0683  0.0489  0.0114
 6107W        W26387  16.382  10.633   2.104 -0.3500 -0.2603 -0.1183
 6108W        W26388  18.144   5.754  12.608 -0.1414  0.0309  0.0439
 6109W        W26389  12.955  15.327   1.536 -0.2191 -0.3408 -0.0196
 6110W        W26390   8.536  12.373  14.839 -0.2338 -0.3053  0.0581
 6111W        W26391   2.308  17.534  10.314 -0.0570  0.5388  0.0666
 6112W        W26392  12.940  13.896   3.760  0.1047  0.0206  0.1391
 6113W        W26393  11.396  12.031  12.091 -0.1453 -0.0331 -0.0935
 6114W        W26394  17.639  14.408  15.395  0.1043 -0.0657 -0.2082
 6115W        W26395   4.211  11.608   4.237  0.1724  0.3243 -0.1354
 6116W        W26396   9.642   6.388   1.964 -0.1705 -0.0182  0.3362
 6117W        W26397  14.196   8.508  12.654  0.0697 -0.3460 -0.5770
 6118W        W26398   7.434   7.731   2.235  0.0050 -0.1797  0.3024
 6119W        W26399   7.403  15.673  12.093 -0.1708  0.0144 -0.0252
 6120W        W26400  11.007   2.799   1.748 -0.2468 -0.1865 -0.0004
 6121W        W26401   3.213   9.296   1.336 -0.2674  0.1955 -0.0435
 6122W        W26402   6.048   8.891   0.467 -0.0958  0.1320  0.2805
 6123W        W26403  11.332  18.143   1.471 -0.1098 -0.0469  0.2658
 6124W        W26404  11.869  14.271  13.564  0.1850  0.2568  0.0389
 6125W        W26405  11.263   4.866   3.546 -0.0784 -0.1833  0.2632
 6126W        W26406  17.412   4.932   1.518 -0.0287  0.2821 -0.0912
 6127W        W26407   9.729   0.720   2.133  0.1333  0.1534 -0.0651
 6128W        W26408   8.262  17.185   0.983  0.1924  0.1587  0.2620
 6129W        W26409   7.275   7.166   2.656  0.0408 -0.0958  0.1996
 6130W        W26410  14.482   9.301   4.381 -0.0667  0.2462  0.0444
 6131W        W26411   5.495  12.946   2.195 -0.0010  0.0256  0.1517
 6132W        W26412  18.497  12.178  12.818  0.5192 -0.1002 -0.1265
 6133W        W26413  16.044   1.288  14.026  0.3188 -0.2508  0.4389
 6134W        W26414   1.334  17.378  12.311  0.2253 -0.0384  0.0957
 6135W        W26415   2.320  16.058  15.224  0.0535 -0.0158  0.2252
 6136W        W26416  16.557   6.572  11.617 -0.5474  0.0026 -0.2874
 6137W        W26417  13.375   6.355   3.304  0.2088  0.1443 -0.1538
 6138W        W26418   2.437   7.110   4.284 -0.2484 -0.1324 -0.4322
 6139W        W26419   5.947   4.861  12.927 -0.0819 -0.3717 -0.1265
 6140W        W26420   2.175   6.413  14.131  0.0990 -0.1830  0.2166
 6141W        W26421  15.856   3.702   1.823  0.0164  0.2538  0.0804
 6142W        W26422  17.556   4.878   1.019 -0.0191 -0.0979  0.1272
 6143W        W26423   0.395   3.795  12.042 -0.4713 -0.1416  0.0815
 6144W        W26424   3.262   4.944   3.616  0.0361 -0.0546 -0.0025
 6145W        W26425   7.292  14.642  12.515 -0.3482  0.1181 -0.1260
 6146W        W26426   8.840  11.110  13.644  0.2621 -0.1230 -0.0545
 6147W        W26427  16.526  16.690   1.552 -0.1937 -0.1769 -0.4230
 6148W        W26428   3.202   4.133  13.786  0.2079  0.0182  0.0686
 6149W        W26429  18.159   0.475  13.826 -0.2428 -0.0910  0.0530
 6150W        W26430  15.539   0.018  11.726  0.1374 -0.0152 -0.3268
 6151W        W26431   3.497  10.824  14.323 -0.3417 -0.1865  0.3012
 6152W        W26432  13.492  17.541  12.408 -0.2443  0.0562  0.0679
 6153W        W26433  16.720   0.360   2.832 -0.1672 -0.3273 -0.1678
 6154W        W26434   7.277   8.395   0.612 -0.0296  0.0634  0.0726
 6155W        W26435   3.051   3.419  11.739  0.1073 -0.2248 -0.2115
 6156W        W26436  15.888  10.295  14.269  0.0520 -0.1929 -0.0327
 6157W        W26437  14.751   8.545   0.475  0.0927  0.1207 -0.2347
 6158W        W26438  16.203  11.469   0.697  0.0427 -0.1527 -0.1927
 6159W        W26439  13.376  14.358   3.990 -0.0121  0.1838 -0.1749
 6160W        W26440  14.122   4.724   3.519  0.1497  0.0213 -0.4218
 6161W        W26441  16.571  16.637  12.401  0.4931 -0.0854 -0.0301
 6162W        W26442  10.643  16.651  12.611  0.0126  0.2992 -0.0328
 6163W        W26443  15.381   3.789  12.758 -0.0172 -0.0586 -0.5115
 6164W        W26444   3.987  18.199   0.636 -0.0828 -0.1121 -0.1895
 6165W        W26445   5.768   8.276  14.918  0.0431  0.0314  0.3228
 6166W        W26446   5.350  18.336  12.241  0.3563  0.1632  0.3201
 6167W        W26447  18.395  12.084   1.021  0.3071  0.1184  0.4377
 6168W        W26448   0.477  15.190  14.192 -0.0562 -0.2553  0.2504
 6169W        W26449   8.245   1.903  10.335 -0.1294 -0.0688  0.0294
 6170W        W26450  11.878   8.772   3.082 -0.1723 -0.1046 -0.1624
 6171W        W26451   5.077  14.655  15.158 -0.2440  0.2269  0.1789
 6172W        W26452   3.205  18.343  14.807  0.1611 -0.0230 -0.2055
 6173W        W26453  12.556   6.845   3.704 -0.1268 -0.1015 -0.1342
 6174W        W26454   5.933  17.436  14.753  0.0299 -0.1116  0.2619
 6175W        W26455   8.158  14.476  11.092 -0.3665  0.3237 -0.1210
 6176W        W26456   4.464   8.266   0.084  0.1232  0.1193  0.0345
 6177W        W26457  14.430  13.254   4.310 -0.3401 -0.1707  0.0032
 6178W        W26458  16.010   7.849  11.986 -0.0765 -0.0247  0.0039
 6179W        W26459  17.134  12.171  12.352 -0.0699 -0.0279 -0.0409
 6180W        W26460  13.883   7.294  11.919  0.0204  0.1702 -0.0419
 6181W        W26461  11.192   0.694  13.430 -0.2231 -0.0310 -0.2916
 6182W        W26462   1.798  12.194   3.740  0.0978 -0.2429  0.0161
 6183W        W26463  12.306   6.164   0.734  0.1136 -0.1686 -0.1208
 6184W        W26464   6.916  15.753  12.116  0.1282  0.1439  0.1283
 6185W        W26465  12.261  14.653  10.997  0.0602  0.1117 -0.2090
 6186W        W26466   4.765  18.511  12.249  0.1777 -0.1787  0.1495
 6187W        W26467  12.768   3.155  11.911  0.0291  0.1599 -0.5467
 6188W        W26468   1.633   8.406  11.097 -0.1265 -0.2133 -0.0122
 6189W        W26469   8.498  18.680   0.003  0.3404  0.1695  0.0483
 6190W        W26470  13.714   1.364   1.301 -0.1613  0.1509 -0.2325
 6191W        W26471   0.879  11.993  13.324 -0.1598  0.2783 -0.0009
 6192W        W26472   8.568  18.197   2.832 -0.1285 -0.1937 -0.0475
 6193W        W26473   5.151  17.863   1.084 -0.1740 -0.1494 -0.0017
 6194W        W26474   9.544   2.386  10.673  0.0161  0.2592 -0.2037
 6195W        W26475   1.581  18.736   4.876  0.0507 -0.0734  0.4967
 6196W        W26476  10.527  12.986   1.951  0.3199 -0.1724  0.0010
 6197W        W26477   8.818  10.708  14.516 -0.2486 -0.1261 -0.0109
 6198W        W26478   9.488   3.333  14.690 -0.1604 -0.2253 -0.0853
 6199W        W26479   3.206  10.681  13.399  0.4324 -0.1411 -0.0081
 6200W        W26480  15.689  14.534   2.911  0.0033  0.0447  0.0627
 6201W        W26481   3.977   0.830   4.163  0.3972  0.1814  0.3537
 6202W        W26482  13.695  13.425   0.921 -0.0405 -0.0148  0.1863
 6203W        W26483   8.162  10.091   1.452 -0.3038  0.1798 -0.1272
 6204W        W26484   9.183   8.268   2.729  0.1264 -0.0306 -0.0929
 6205W        W26485   3.810   7.320   0.215 -0.1085 -0.1953  0.2062
 6206W        W26486  15.248   2.036  14.344 -0.3013  0.0055 -0.1824
 6207W        W26487   3.213   2.904   2.991 -0.1985  0.0194 -0.1886
 6208W        W26488   9.609  11.923   3.834  0.1476  0.2678 -0.0771
 6209W        W26489  12.472  14.879   3.745  0.2337 -0.1792 -0.1495
 6210W        W26490  17.457   0.975   1.206  0.0139  0.1787  0.0977
 6211W        W26491   6.944  10.762   1.636 -0.1231  0.0576  0.2255
 6212W        W26492  18.708   0.791   0.340  0.1405 -0.1069  0.2603
 6213W        W26493   4.258   9.214  15.100 -0.1365 -0.2000  0.0326
 6214W        W26494  16.396  18.594  15.270  0.0020 -0.0256  0.0879
 6215W        W26495   8.658   0.730   2.382  0.0481  0.0496  0.0057
 6216W        W26496   1.712   0.264  11.194 -0.1986  0.0583 -0.0542
 6217W        W26497  11.642   2.825   1.598 -0.0321  0.2956 -0.1077
 6218W        W26498   4.864  14.507  11.685  0.0743  0.0860  0.0916
 6219W        W26499  10.305   3.422   1.933  0.1332 -0.1978 -0.0303
 6220W        W26500   2.931   8.838   0.925  0.2871  0.0462 -0.1364
 6221W        W26501  10.523   4.497   0.194 -0.0889 -0.2127 -0.3698
 6222W        W26502   2.669   5.503  14.296  0.1789  0.0220  0.1208
 6223W        W26503  14.036  12.378   2.203 -0.2009 -0.1045  0.0282
 6224W        W26504   5.951  14.877  13.200  0.0273 -0.1453  0.0310
 6225W        W26505  15.774  14.898   1.981  0.2911  0.1506 -0.1781
 6226W        W26506   5.692   5.431   4.140 -0.0059 -0.0574  0.2804
 6227W        W26507  17.157   6.485   1.457 -0.2098  0.2660  0.2141
 6228W        W26508  14.468  11.457   0.917 -0.0941 -0.2581  0.0850
 6229W        W26509  16.497   3.788   2.392  0.0153 -0.0592  0.0192
 6230W        W26510   9.889   1.652  14.549  0.0525 -0.1435  0.1605
 6231W        W26511  15.810   6.987   3.607  0.0624  0.3384  0.0633
 6232W        W26512   4.227   7.790  11.487 -0.1761 -0.2156 -0.1250
 6233W        W26513  15.920  18.389  12.747  0.2701  0.1670 -0.0880
 6234W        W26514  16.692   8.213  13.759 -0.2605  0.0302  0.1014
 6235W        W26515   4.064   7.175  12.771  0.1250  0.1300 -0.0547
 6236W        W26516  13.870  17.320  14.689  0.2551 -0.0922  0.0234
 6237W        W26517  17.172  18.290   4.293 -0.0411 -0.0451 -0.1194
 6238W        W26518   5.399  16.206  14.403  0.0847  0.0247 -0.0279
 6239W        W26519  11.086  15.531   4.149  0.0058 -0.2152 -0.4532
 6240W        W26520   7.178  16.688  10.559 -0.3978  0.0640  0.0034
 6241W        W26521  13.752  10.459   1.137 -0.0604 -0.2598 -0.0824
 6242W        W26522   1.605  10.267  12.750 -0.1975 -0.2288 -0.0378
 6243W        W26523   9.006  15.423   0.971  0.2084  0.1114  0.2074
 6244W        W26524  12.062  16.099   3.763  0.1761  0.0944 -0.0015
 6245W        W26525   6.832   4.893   1.304  0.2595  0.1061  0.0544
 6246W        W26526  12.583  11.493  15.327  0.0452  0.1474 -0.0202
 6247W        W26527  16.857  13.580  14.311  0.4086 -0.3440 -0.0448
 6248W        W26528   8.721   6.980   5.026 -0.0024 -0.1870 -0.2086
 6249W        W26529  10.420   3.912   3.576  0.3555  0.0440  0.1454
 6250W        W26530  16.245   1.295  10.020  0.0243 -0.0563  0.0052
 6251W        W26531   2.402   7.177  15.115 -0.1312  0.2147  0.0898
 6252W        W26532   7.188   9.385  12.110 -0.0552  0.0103  0.0509
 6253W        W26533   5.508   4.876   3.472  0.0842  0.3743  0.2119
 6254W        W26534  12.483  17.969  14.602  0.1751 -0.1099 -0.0493
 6255W        W26535   1.799  13.698  11.250 -0.1800  0.3841 -0.0835
 6256W        W26536   8.345  18.224  13.000  0.1953  0.0788  0.2269
 6257W        W26537   3.867   5.203  14.842  0.1777 -0.0222 -0.1710
 6258W        W26538  17.489   1.963  11.287  0.0084  0.0667 -0.1785
 6259W        W26539  16.815   1.946   4.535  0.0411  0.0766  0.3583
 6260W        W26540   7.977  13.469   1.393 -0.1538  0.0997 -0.2023
 6261W        W26541   0.767   4.368   0.116 -0.2026  0.1345  0.2564
 6262W        W26542  10.880  11.840   4.328 -0.1865 -0.0589  0.0604
 6263W        W26543   4.539   9.159   0.107 -0.3408  0.1438 -0.0217
 6264W        W26544  11.785  11.838   1.710  0.4512  0.0349 -0.2154
 6265W        W26545   4.395   7.671   3.752 -0.2157  0.1059 -0.0955
 6266W        W26546   7.996  15.116   1.938  0.1014 -0.1947 -0.0294
 6267W        W26547   1.701   9.683  13.824  0.2605  0.1058  0.1478
 6268W        W26548   3.947   6.658   1.304 -0.3226 -0.1115  0.2788
 6269W        W26549   1.571   9.148  11.069  0.0586  0.1838 -0.3845
 6270W        W26550   6.852  13.035  11.349 -0.1872  0.1670  0.2744
 6271W        W26551  14.936  10.102   2.116 -0.2075 -0.3019 -0.0531
 6272W        W26552   7.355   4.775   1.312  0.0206  0.0508 -0.2077
 6273W        W26553   1.026  13.557   4.385 -0.0333  0.4350  0.0136
 6274W        W26554   3.087  15.430  11.549  0.2198 -0.4768  0.2201
 6275W        W26555  18.264   1.669  13.188 -0.0783 -0.0044 -0.2030
 6276W        W26556   5.727  15.197  11.033  0.0869 -0.2352  0.1164
 6277W        W26557  11.748  12.625  12.922 -0.1039 -0.1652 -0.2683
 6278W        W26558  14.327   2.678   0.514 -0.2688  0.5243  0.1619
 6279W        W26559  11.856  11.045  12.820 -0.1514  0.0202 -0.0101
 6280W        W26560  14.114  11.088  13.029 -0.2100 -0.0125 -0.1022
 6281W        W26561   4.554   6.581  13.877 -0.3059 -0.1920  0.2396
 6282W        W26562  12.832   8.070   0.872 -0.0490 -0.0332 -0.3677
 6283W        W26563   7.427   2.677  14.492  0.0804 -0.3178  0.1321
 6284W        W26564  10.616  14.171  11.025  0.1587 -0.3138 -0.0549
 6285W        W26565  18.420  11.565   4.104 -0.0331 -0.0244  0.0013
 6286W        W26566   1.785   9.700   1.597 -0.2315 -0.0510  0.1100
 6287W        W26567  17.175  15.451   0.775  0.1229 -0.0970 -0.2261
 6288W        W26568  12.557  15.895  13.981 -0.0950 -0.0356 -0.0357
 6289W        W26569   1.883   1.437  10.093 -0.0339 -0.0817 -0.0684
 6290W        W26570  16.119  12.655  15.363  0.0525 -0.2272 -0.0687
 6291W        W26571   6.214   8.379   0.381 -0.0305 -0.1539 -0.0899
 6292W        W26572  13.730  12.726  10.430  0.1469 -0.2786 -0.0190
 6293W        W26573  13.516   6.579  15.223  0.2893  0.1302 -0.0936
 6294W        W26574   4.061  14.123   3.960  0.1021  0.1401  0.2139
 6295W        W26575  15.436   6.245  15.101  0.0437 -0.0561  0.0477
 6296W        W26576  10.420   7.646  14.514  0.1930 -0.1352  0.1104
 6297W        W26577   4.215  18.441   1.928  0.0291  0.1380 -0.1320
 6298W        W26578  16.793  12.295   4.393  0.2312 -0.0036 -0.0011
 6299W        W26579   3.314  15.414  11.087  0.3119  0.0325  0.1069
 6300W        W26580   3.445  17.660   2.913  0.0400 -0.0064  0.0534
 6301W        W26581   8.918  13.578   3.756  0.1847 -0.0208 -0.4490
 6302W        W26582  12.717  16.653   1.061  0.0226  0.0613  0.3116
 6303W        W26583  14.150  18.239   4.262  0.0089 -0.2471  0.1351
 6304W        W26584   2.026  17.899  14.645 -0.1558  0.1702 -0.0049
 6305W        W26585  11.848   0.218   1.704  0.4822  0.2912  0.1117
 6306W        W26586  18.445  13.090  13.366 -0.1046 -0.1230  0.0339
 6307W        W26587  13.935   3.089   3.434  0.2161 -0.1606 -0.2878
 6308W        W26588   2.668  12.988   2.396  0.2481  0.2130  0.0017
 6309W        W26589   3.417  11.326  14.412  0.1562 -0.0017  0.2691
 6310W        W26590  10.803  16.064   0.903  0.0578 -0.1651 -0.1886
 6311W        W26591   1.462   6.272   1.526 -0.2598  0.1341 -0.0316
 6312W        W26592  11.216  12.429   1.458 -0.0630  0.1723  0.1576
 6313W        W26593   0.927   9.114  15.275 -0.0703 -0.0317 -0.0613
 6314W        W26594  17.435   7.065   2.798  0.2896  0.1304  0.0653
 6315W        W26595   0.868   0.721   3.683 -0.2253  0.0543  0.2075
 6316W        W26596  14.923  13.920   1.831  0.0587 -0.0017  0.0089
 6317W        W26597   0.734   7.309   3.624  0.1993  0.1950  0.0419
 6318W        W26598   4.555  16.302  13.579 -0.0081  0.0794 -0.3450
 6319W        W26599  13.815   5.461   0.858  0.0060  0.3042  0.1476
 6320W        W26600   6.284  15.371  12.527  0.4470 -0.1067  0.2554
 6321W        W26601  18.248  15.891  12.068  0.0976 -0.0342 -0.1915
 6322W        W26602   9.926   1.106  11.770  0.1109 -0.2125  0.2481
 6323W        W26603  11.037   2.633   3.360  0.0901  0.0670  0.2450
 6324W        W26604   2.487   5.011  13.176  0.0112 -0.0934 -0.0712
 6325W        W26605  13.886   6.539   4.575  0.0714 -0.0086  0.1791
 6326W        W26606   8.965  15.139  12.034  0.0066 -0.4179  0.0766
 6327W        W26607  15.692  15.563  11.149 -0.1347 -0.1629 -0.2815
 6328W        W26608  12.814   5.166  11.623 -0.2734 -0.2453  0.2831
 6329W        W26609  12.740  10.125   4.414  0.0049  0.1005  0.0378
 6330W        W26610  11.571  15.516   4.335  0.2037 -0.3541 -0.0663
 6331W        W26611  16.146  15.046  13.159 -0.0055  0.0880  0.0355
 6332W        W26612   6.960   3.590  14.981 -0.1194 -0.1173 -0.2075
 6333W        W26613   3.208   2.111  11.934 -0.2181 -0.0343 -0.3134
 6334W        W26614   2.194  14.170   3.705 -0.0195  0.0821  0.0891
 6335W        W26615   4.942  13.007   2.276 -0.0011  0.1368  0.0857
 6336W        W26616   8.998  16.635  12.793  0.0174 -0.0902 -0.0577
 6337W        W26617  16.584  13.306   3.646 -0.2402  0.0272  0.1297
 6338W        W26618   2.485   5.758   1.811 -0.0017  0.0355  0.3412
 6339W        W26619   8.936  16.158  14.066 -0.1703 -0.2939 -0.0823
 6340W        W26620   0.211   2.392  11.163 -0.1491 -0.0876  0.1836
 6341W        W26621   7.785  14.454  12.701 -0.1094  0.1372  0.2218
 6342W        W26622  13.993  11.677   4.481  0.1734  0.0852  0.2757
 6343W        W26623   7.028   0.358  11.444 -0.1123  0.0116  0.0843
 6344W        W26624  10.163   6.549   1.987  0.2780 -0.1940  0.0583
 6345W        W26625   2.174  10.717  15.021 -0.0552 -0.1740  0.1819
 6346W        W26626   2.975  14.343   1.985 -0.1138 -0.1451  0.3037
 6347W        W26627   1.450  10.472   1.814 -0.0145 -0.2872 -0.3263
 6348W        W26628  11.029  10.414   0.738  0.3049  0.0365 -0.0773
 6349W        W26629   7.282  17.875   3.523 -0.0682  0.4889 -0.2127
 6350W        W26630   8.315   4.378   0.233 -0.1187  0.0590  0.3047
 6351W        W26631   2.152   0.753  11.158 -0.0975 -0.2113  0.3810
 6352W        W26632  17.426  12.358   0.004 -0.0950  0.0382  0.0169
 6353W        W26633  14.416   8.598   3.948  0.1312 -0.0139 -0.2855
 6354W        W26634   8.186  14.534  11.847 -0.0034  0.0519 -0.0525
 6355W        W26635  10.891   4.107  14.550  0.4953 -0.2409 -0.1119
 6356W        W26636  16.750   9.075   2.770  0.0300 -0.0954 -0.1193
 6357W        W26637   1.089  15.686   3.489  0.4278 -0.0834 -0.1259
 6358W        W26638   5.243  16.218   1.521  0.0474  0.0076 -0.0660
 6359W        W26639   2.219  11.518   1.696  0.0357  0.0791 -0.1479
 6360W        W26640   0.221  10.207  14.655 -0.0155  0.0621 -0.2072
 6361W        W26641   3.031  14.433   1.503 -0.1207 -0.0935  0.3284
 6362W        W26642  18.199   7.309  11.925 -0.3090  0.1441 -0.0622
 6363W        W26643   2.526   9.094  14.061 -0.0122 -0.0373  0.0224
 6364W        W26644   4.558  17.883   1.337  0.0532  0.2554  0.3018
 6365W        W26645   5.034  12.261  11.371 -0.3159 -0.1156  0.0235
 6366W        W26646  15.045   9.022  14.038  0.0605  0.2065 -0.0869
 6367W        W26647   3.695   4.155   3.112 -0.2451 -0.2355 -0.0334
 6368W        W26648   4.458   0.092  13.185  0.1342 -0.0453 -0.2879
 6369W        W26649  12.007  17.522  13.152  0.1871 -0.3531  0.0202
 6370W        W26650  17.246  18.495  13.101  0.1082  0.0372  0.4600
 6371W        W26651   1.301   6.200   4.401 -0.1679 -0.1214 -0.0051
 6372W        W26652  14.588  12.082  11.324  0.3962  0.0824  0.1667
 6373W        W26653   0.300   7.081   4.769  0.1647 -0.0505 -0.0478
 6374W        W26654   1.441   2.531   2.782  0.1542 -0.0909  0.0031
 6375W        W26655   8.283   1.766   0.780 -0.1785 -0.3053 -0.1298
 6376W        W26656  18.597   0.520   2.082 -0.0052  0.3501 -0.0530
 6377W        W26657   4.231   5.163   3.238  0.0997  0.1462  0.3252
 6378W        W26658  12.112  13.647   1.673 -0.4679  0.2598  0.3149
 6379W        W26659  14.215  13.723  15.157 -0.0084  0.1674 -0.1738
 6380W        W26660   7.698   0.717   2.529 -0.1826  0.2288  0.1214
 6381W        W26661   2.876   5.119  14.900  0.1863  0.1088  0.4144
 6382W        W26662  17.072  17.500  13.760 -0.1975 -0.0752 -0.3382
 6383W        W26663  15.492  11.575   4.609  0.6371  0.3695  0.1083
 6384W        W26664   6.292   5.258  13.288 -0.1848  0.0655  0.0419
 6385W        W26665  10.039  12.603  14.726 -0.0180 -0.0031  0.0161
 6386W        W26666   6.411   4.298   4.702 -0.0990 -0.0406 -0.1174
 6387W        W26667   4.621   4.583  12.375  0.0441 -0.5651 -0.1664
 6388W        W26668   2.678  12.968  14.068  0.0392  0.2182  0.4688
 6389W        W26669  12.805   9.414  10.358  0.0183  0.0560  0.3128
 6390W        W26670  14.801  15.682  11.356  0.2672 -0.0753 -0.2315
 6391W        W26671  10.267   3.585  12.209 -0.0445 -0.0614 -0.0111
 6392W        W26672   4.203  16.373  12.034  0.0664  0.0793  0.0651
 6393W        W26673   7.455   9.155   1.614  0.2004  0.0074 -0.0816
 6394W        W26674   1.673   3.017   0.063 -0.0215 -0.2363 -0.0165
 6395W        W26675  16.434  14.606   3.515 -0.2987  0.1839 -0.3230
 6396W        W26676   7.619   9.504   3.031 -0.0211 -0.0684  0.1686
 6397W        W26677   3.357  17.072   5.136 -0.0062  0.0383  0.2243
 6398W        W26678   5.676   2.377  14.146  0.1243 -0.1469 -0.1357
 6399W        W26679  16.309  17.247  11.652  0.0006  0.2599  0.0345
 6400W        W26680   8.231  16.194  12.230 -0.0772 -0.0079  0.2741
 6401W        W26681  10.236  14.861   1.961 -0.0389  0.1863 -0.1148
 6402W        W26682   6.688   9.021   4.143 -0.0356 -0.2320  0.0786
 6403W        W26683   5.214   9.509   0.312  0.1214  0.2500  0.0320
 6404W        W26684  10.268  18.103  14.164 -0.0201  0.3219  0.1842
 6405W        W26685   7.373   9.659  12.569  0.1102  0.0638  0.4004
 6406W        W26686  18.412  12.382   3.512 -0.1208 -0.1770 -0.3118
 6407W        W26687  16.738  18.144   0.556  0.1473  0.3832 -0.1627
 6408W        W26688  16.026  11.345   0.161 -0.0536  0.0696  0.0235
 6409W        W26689  15.676   7.389  12.908 -0.1380 -0.2065 -0.0104
 6410W        W26690   8.146   6.263  11.775  0.0461  0.0296 -0.3223
 6411W        W26691   5.814   7.805  15.144 -0.0826 -0.1143  0.1384
 6412W        W26692  16.283  18.274   0.655 -0.1432 -0.1117  0.0331
 6413W        W26693  12.071  15.465  13.159 -0.1665  0.2866  0.3717
 6414W        W26694  10.287   5.012   3.426  0.2682 -0.1772 -0.2242
 6415W        W26695  10.609   7.691  13.525  0.2893 -0.1110 -0.2809
 6416W        W26696   4.816  15.032  14.249 -0.0181  0.0214 -0.3451
 6417W        W26697  10.189   6.086  13.765  0.2201 -0.0385 -0.1238
 6418W        W26698   3.605  12.776  12.515 -0.0195 -0.1181 -0.2921
 6419W        W26699  11.301   4.409   1.843  0.0796 -0.1112  0.2909
 6420W        W26700  13.243   8.437   1.466 -0.0636 -0.0904 -0.0669
 6421W        W26701   0.381   1.711   1.791  0.0452  0.1278 -0.0967
 6422W        W26702  14.619  18.202   1.903 -0.2068 -0.1085 -0.1351
 6423W        W26703   9.452   8.219   1.026 -0.1489  0.3016  0.0662
 6424W        W26704  12.541  13.177   3.107 -0.0096 -0.0114 -0.1463
 6425W        W26705  15.912  10.474   2.914 -0.0738  0.0947 -0.0158
 6426W        W26706  18.407   0.930   9.977  0.0632  0.3423 -0.2445
 6427W        W26707  12.725  11.003   2.666  0.0946  0.0142 -0.0207
 6428W        W26708  18.008   0.876   4.027  0.2296 -0.2345  0.0192
 6429W        W26709   3.710   9.595  12.206  0.2577 -0.1761 -0.0218
 6430W        W26710  18.167   5.106  13.334 -0.2314 -0.2251  0.1226
 6431W        W26711  11.042  10.647   2.724 -0.3126 -0.1628 -0.0411
 6432W        W26712   6.629   5.389   3.190  0.3354  0.0164  0.1557
 6433W        W26713  16.184   9.522   1.452 -0.2568 -0.0179 -0.1430
 6434W        W26714  16.406   8.544   2.834  0.1691 -0.1792 -0.0877
 6435W        W26715  14.530   8.539  14.500 -0.0084  0.2031  0.0218
 6436W        W26716  12.260  15.114  10.854  0.0256  0.0355  0.1306
 6437W        W26717   6.444  16.970   1.711  0.0430 -0.1643  0.3210
 6438W        W26718  15.370   2.094   3.731  0.0911  0.2829 -0.0083
 6439W        W26719  14.445   1.598   2.028 -0.1623  0.0587  0.3703
 6440W        W26720  16.463   6.007   3.869  0.0596  0.0863  0.0381
 6441W        W26721   6.443  12.135   0.675  0.0095  0.0602 -0.2054
 6442W        W26722   5.714  14.963   1.609  0.0040 -0.0140  0.1103
 6443W        W26723   0.947  11.034   3.094  0.1028 -0.0951 -0.1429
 6444W        W26724  17.652   6.561   3.708  0.1727  0.1434  0.0031
 6445W        W26725   0.382  11.825   2.674 -0.4495 -0.0889 -0.0392
 6446W        W26726   1.940   8.474  14.277  0.2422 -0.1730  0.3144
 6447W        W26727  16.121  12.187   0.701 -0.1085 -0.3355  0.4360
 6448W        W26728   3.231   1.627  12.235 -0.1008 -0.4285  0.2778
 6449W        W26729   0.012   7.485   2.511 -0.2937  0.3331  0.1527
 6450W        W26730  18.121  13.321   0.023  0.0889 -0.2752  0.1674
 6451W        W26731   2.310  16.311  13.566 -0.3416 -0.1409  0.0786
 6452W        W26732   5.235  14.326  14.780 -0.0787 -0.0697 -0.2029
 6453W        W26733  15.369  14.797  15.349  0.2574  0.0819 -0.3765
 6454W        W26734   7.418   8.343   4.679  0.0805 -0.0072  0.1287
 6455W        W26735   0.885   4.688   3.902 -0.0628  0.0842  0.0175
 6456W        W26736  16.612  13.888   1.673  0.0095  0.1199  0.2686
 6457W        W26737   7.951   6.703   2.427  0.0207  0.0749  0.1397
 6458W        W26738  13.747  16.514  12.701 -0.1372 -0.0329 -0.0356
 6459W        W26739  16.064  18.643  14.417  0.1011  0.0501 -0.1172
 6460W        W26740   9.153  14.022   1.838 -0.0678  0.1872 -0.0215
 6461W        W26741   0.784  14.688   2.640  0.2287  0.0464  0.0645
 6462W        W26742  10.474  12.359   3.178 -0.0455 -0.2726 -0.0417
 6463W        W26743   8.169  14.267   0.036 -0.0441 -0.1427  0.3299
 6464W        W26744   2.580  16.956   4.099 -0.1228 -0.0898  0.1378
 6465W        W26745  14.187   2.382   5.328 -0.1849 -0.1396 -0.1073
 6466W        W26746   1.863   7.529  11.807 -0.4332  0.1728 -0.1045
 6467W        W26747  10.215  11.670  12.870 -0.4587  0.2117 -0.1688
 6468W        W26748  10.986  14.842  10.600 -0.0731 -0.1169  0.0810
 6469W        W26749  14.908  12.207  15.338 -0.1191  0.0190  0.1379
 6470W        W26750   7.350  11.160  11.606 -0.1428  0.1197  0.1851
 6471W        W26751  13.082  10.617   2.344  0.0491 -0.0038  0.2639
 6472W        W26752   3.626   4.517   2.096  0.0090  0.0646  0.0186
 6473W        W26753   0.556  12.716   1.914 -0.0649  0.0386  0.0954
 6474W        W26754  13.921   6.590   1.306  0.2062  0.1149  0.0414
 6475W        W26755   7.913  13.614  13.820 -0.1215 -0.0343  0.2883
 6476W        W26756  18.694   8.425  12.786  0.0713  0.0013  0.1268
 6477W        W26757  15.895  10.557   2.078 -0.0949 -0.0455  0.1200
 6478W        W26758  13.374  10.851   3.376  0.2501  0.0774 -0.0439
 6479W        W26759  15.736   9.017   3.869 -0.0999  0.0376  0.0085
 6480W        W26760   3.284   7.611   0.084  0.4005 -0.1491  0.2798
 6481W        W26761  10.210  10.329   0.983  0.0676 -0.1350  0.3922
 6482W        W26762  12.395  13.439   1.209 -0.1670  0.4153 -0.3434
 6483W        W26763  13.493   3.253  12.415 -0.1144  0.0487 -0.0878
 6484W        W26764  16.775   2.578   4.355  0.4316  0.2750 -0.2285
 6485W        W26765  11.718   4.470  14.690 -0.1510 -0.1711  0.2015
 6486W        W26766   0.929   0.859   1.852 -0.2285  0.1530  0.2024
 6487W        W26767   2.164   9.338   1.329  0.0788 -0.2085 -0.3368
 6488W        W26768  14.482   4.931  12.998 -0.1755 -0.0383 -0.0858
 6489W        W26769   7.600  17.227  11.322 -0.2182 -0.1330 -0.3466
 6490W        W26770  14.683   2.590   3.769 -0.1819 -0.0817  0.1124
 6491W        W26771  18.136   0.895  13.115  0.0220  0.1258  0.1165
 6492W        W26772  11.735  12.264   1.505  0.2022 -0.0575 -0.1899
 6493W        W26773  11.377  15.811   3.088 -0.0430 -0.1750 -0.1643
 6494W        W26774  17.607   8.015  11.550  0.1550  0.0198 -0.0029
 6495W        W26775   0.231   8.004  13.591 -0.4661  0.2682 -0.0611
 6496W        W26776   7.144  12.838   3.071 -0.1245  0.1620 -0.0660
 6497W        W26777   8.245   3.259  13.146 -0.2807  0.2648  0.0702
 6498W        W26778   0.498   4.525  11.710 -0.4545  0.0047 -0.1293
 6499W        W26779   2.224   2.975   3.031 -0.0919  0.1523 -0.0680
 6500W        W26780   4.778  11.297  12.638 -0.4032  0.3728  0.1698
 6501W        W26781   2.435   3.282   1.697  0.2146  0.2627  0.1652
 6502W        W26782  12.346   4.989  12.623 -0.2145 -0.0239  0.0932
 6503W        W26783  16.150   2.577  11.648  0.1338 -0.1987  0.1064
 6504W        W26784  10.438  11.249  12.948  0.0271  0.0787 -0.0990
 6505W        W26785   1.890   6.790   2.130  0.1189 -0.2246  0.1172
 6506W        W26786  12.118   8.823   0.993 -0.1459  0.2380  0.3825
 6507W        W26787   6.121  15.853   1.706  0.1125  0.0911  0.1023
 6508W        W26788   9.378   8.923   4.372  0.1238  0.0188  0.1772
 6509W        W26789   2.276   7.197   1.108  0.0780 -0.1652 -0.1301
 6510W        W26790  11.117   4.478   4.929  0.2326 -0.1857 -0.2170
 6511W        W26791   9.387  13.856  12.901 -0.3784  0.1248 -0.1123
 6512W        W26792   7.656  17.756  13.155 -0.0295  0.2547 -0.0297
 6513W        W26793   4.614  15.496   0.672 -0.1969  0.0625 -0.1135
 6514W        W26794   9.541  12.189  11.145  0.1918  0.1024 -0.0887
 6515W        W26795  14.113   7.015   0.889 -0.0596  0.0545 -0.1219
 6516W        W26796   3.716   1.089   2.180 -0.1391 -0.0361 -0.2159
 6517W        W26797   4.653   8.840  12.508 -0.1977 -0.0232  0.2586
 6518W        W26798   4.476   5.555   0.742 -0.0545  0.0538  0.0451
 6519W        W26799   6.076  15.593   2.628 -0.0705  0.2666 -0.0174
 6520W        W26800  13.611  17.230  12.004  0.1735 -0.3409  0.1629
 6521W        W26801   8.381   1.985  11.917 -0.0857  0.0459 -0.0302
 6522W        W26802   9.545   9.552   4.313  0.1452  0.2951  0.1135
 6523W        W26803   2.838  16.522  11.540 -0.2908  0.1091 -0.1414
 6524W        W26804   1.929   9.050   0.277 -0.2869  0.2113  0.0871
 6525W        W26805  16.885  15.968  14.951 -0.1260 -0.1918 -0.2182
 6526W        W26806  15.944  16.422   2.916 -0.1001 -0.3851 -0.1765
 6527W        W26807  10.315   2.772   0.080 -0.2084  0.0826 -0.2681
 6528W        W26808   6.906  13.928   1.679 -0.1886 -0.0827  0.0523
 6529W        W26809  12.680  16.735  12.747 -0.2470  0.2226 -0.2137
 6530W        W26810   7.804  17.976   3.750  0.1082  0.3389  0.0141
 6531W        W26811   6.724  16.960   0.859 -0.1612 -0.2320  0.1168
 6532W        W26812  17.228   1.235   1.585 -0.0441  0.1039 -0.2705
 6533W        W26813  15.247  13.290   0.721  0.0416 -0.0461  0.0488
 6534W        W26814   9.009  13.125  15.329 -0.2605  0.0621  0.1490
 6535W        W26815   2.164   5.209  14.366 -0.2010 -0.0131 -0.0509
 6536W        W26816  12.233  17.439   3.461 -0.0511 -0.0633  0.1272
 6537W        W26817  14.439   6.144  11.618 -0.2816 -0.4447 -0.4842
 6538W        W26818   3.939  14.955   0.324 -0.0545  0.0468  0.1989
 6539W        W26819   5.287   3.425  14.832  0.0072 -0.0590  0.1096
 6540W        W26820   8.870  16.473   2.426  0.1950 -0.0131  0.1782
 6541W        W26821  15.885  12.655   2.927  0.1617 -0.0102 -0.2638
 6542W        W26822  17.578   5.047  12.330  0.0794 -0.1541 -0.4462
 6543W        W26823  18.169  14.002  13.444 -0.0243 -0.1939  0.1688
 6544W        W26824   2.610   3.150   3.488  0.0361 -0.1256 -0.0065
 6545W        W26825   4.101  14.756  13.443  0.0833  0.0258  0.0165
 6546W        W26826   0.788   8.779  11.381  0.2887 -0.0380  0.1372
 6547W        W26827  18.433  17.533  11.720 -0.4036 -0.3387  0.0653
 6548W        W26828   0.033   2.258  12.036  0.1269  0.1199  0.0873
 6549W        W26829   9.216   4.054  13.958 -0.0305 -0.0992  0.0548
 6550W        W26830   3.382  14.714   2.135 -0.0429  0.0275  0.2758
 6551W        W26831   4.697  17.322   4.227  0.1215 -0.1251 -0.1525
 6552W        W26832   6.592   0.353   3.397 -0.0883 -0.0823 -0.0766
 6553W        W26833   2.815   4.770   1.774 -0.4144  0.0044  0.2628
 6554W        W26834   3.763  13.507  12.921 -0.1339 -0.0572  0.0364
 6555W        W26835   0.186  11.152   4.527 -0.0840 -0.1885 -0.0181
 6556W        W26836   0.420  12.184  10.823 -0.2058  0.2574  0.0688
 6557W        W26837  16.267  18.387  13.806  0.0388  0.1547  0.0483
 6558W        W26838   6.608  12.572  12.814  0.0217  0.1622 -0.0490
 6559W        W26839  13.335   6.123   1.907  0.2702 -0.2944  0.1271
 6560W        W26840  10.372   5.120  15.320  0.2868  0.0129 -0.3121
 6561W        W26841   8.136   0.843   1.084  0.1239  0.0297 -0.0388
 6562W        W26842  17.026  16.352  14.680  0.1904  0.1638  0.0894
 6563W        W26843   2.544  14.478  13.778  0.0342 -0.2167 -0.2695
 6564W        W26844  11.600  17.037   3.679  0.0396  0.1414  0.3593
 6565W        W26845  10.880   4.743  13.518  0.2085 -0.2103 -0.0084
 6566W        W26846  10.354   1.722   0.114 -0.3124 -0.0645 -0.0332
 6567W        W26847   6.051  13.422   1.436 -0.4544  0.1824  0.0085
 6568W        W26848   0.773   0.328  12.967  0.0988  0.2341 -0.2059
 6569W        W26849   5.521  12.137   0.860 -0.2353 -0.0428 -0.0043
 6570W        W26850   3.705  10.012  11.521 -0.3180 -0.1284  0.0604
 6571W        W26851   9.196   7.099   4.730  0.0189  0.1428 -0.0521
 6572W        W26852  15.797   3.707  13.076  0.5205 -0.3335  0.0479
 6573W        W26853  10.044   8.876   1.090  0.0152  0.1265 -0.1904
 6574W        W26854   8.568  11.155  14.625  0.0223  0.2745  0.3983
 6575W        W26855   3.390   5.268  13.580  0.0174 -0.2761  0.1817
 6576W        W26856   7.528   2.865  13.992  0.0739  0.1851  0.3632
 6577W        W26857  15.857  16.262   2.420  0.3653  0.0994 -0.1570
 6578W        W26858   7.815   6.570  13.058 -0.3065 -0.1591  0.0344
 6579W        W26859  16.893  13.257  14.688  0.0901 -0.1177 -0.1649
 6580W        W26860   9.724  15.175  13.478 -0.3793 -0.2879 -0.0173
 6581W        W26861  12.818   1.623   3.695 -0.1296  0.0149 -0.1485
 6582W        W26862   5.031  13.543  11.586 -0.1984  0.0063  0.0810
 6583W        W26863  12.209   7.615   1.838  0.0755 -0.3595 -0.1353
 6584W        W26864   1.361   1.846  12.344  0.3154 -0.0048 -0.2174
 6585W        W26865  18.291   6.858   3.148  0.0778 -0.0972  0.1541
 6586W        W26866  16.681  18.638  11.191  0.0650 -0.1098  0.1823
 6587W        W26867  10.915  14.881  12.374 -0.0711 -0.0543 -0.0937
 6588W        W26868  11.559   0.123   0.238 -0.0885 -0.1217  0.2626
 6589W        W26869   1.640  12.957  15.024 -0.2919 -0.0343 -0.0421
 6590W        W26870   1.387  18.253   2.572  0.0418  0.2092 -0.0596
 6591W        W26871   9.985   2.309  11.184 -0.2058 -0.2229  0.3315
 6592W        W26872   6.352  15.837   0.039 -0.3026 -0.1103  0.2356
 6593W        W26873   9.540   5.137   2.888 -0.0079  0.1173 -0.1860
 6594W        W26874  13.507   6.984   2.124  0.0530 -0.2146 -0.0441
 6595W        W26875  12.619   4.895  12.134 -0.0934  0.0568 -0.1639
 6596W        W26876   3.303   7.070   3.201  0.1001 -0.0419  0.1409
 6597W        W26877   9.363   5.632   1.562 -0.1141  0.3851 -0.1198
 6598W        W26878  17.640  16.615  12.612  0.1450  0.1226  0.2961
 6599W        W26879   2.000   8.759   1.215  0.0597  0.0987  0.2995
 6600W        W26880   6.485  10.205   1.869 -0.1474 -0.0638  0.0323
 6601W        W26881   7.409  14.110   1.660  0.1304  0.0964  0.1701
 6602W        W26882  13.618  14.695  13.872 -0.2891  0.2396  0.2417
 6603W        W26883   8.991   1.187  14.014 -0.0304 -0.0658 -0.1543
 6604W        W26884   0.440   1.575   1.331  0.2360 -0.4226 -0.1551
 6605W        W26885  17.747  18.042  11.442  0.2291 -0.2515 -0.0926
 6606W        W26886  17.464   6.899  11.358  0.0170 -0.2935  0.0463
 6607W        W26887   4.323   6.702  14.299 -0.0615 -0.0984  0.0156
 6608W        W26888   9.451  11.503   3.262 -0.0828  0.0349 -0.0164
 6609W        W26889   4.712   7.867   2.289 -0.2753  0.2131  0.0211
 6610W        W26890  15.257  10.697  11.328 -0.3089  0.0248 -0.1953
 6611W        W26891   5.831   2.295   1.270 -0.1286 -0.3541  0.2586
 6612W        W26892   3.983  10.322  15.081 -0.1329  0.0924  0.0789
 6613W        W26893  17.800   8.519  11.543 -0.0880  0.0174 -0.1526
 6614W        W26894   7.615   5.537   3.440 -0.1151  0.0521  0.1407
 6615W        W26895   9.852   6.487   4.187 -0.0780 -0.0841  0.1417
 6616W        W26896   1.267  18.063  15.341 -0.0447 -0.3301 -0.1386
 6617W        W26897   5.799   2.454   3.435 -0.1121 -0.1814  0.1052
 6618W        W26898  17.633  12.425  12.554 -0.0488 -0.0210  0.0891
 6619W        W26899  13.332   8.742  14.255  0.2966  0.5759 -0.1306
 6620W        W26900   8.112  17.073  11.672  0.0237 -0.2394  0.2467
 6621W        W26901   3.650   8.981  12.668  0.1016  0.1052 -0.0755
 6622W        W26902   9.186   0.891   0.257  0.1627  0.1679  0.1156
 6623W        W26903  14.621   4.141  15.169 -0.2151  0.0175  0.0202
 6624W        W26904  12.798   7.870   0.356 -0.1846 -0.3037  0.0456
 6625W        W26905  11.678   0.008  12.974 -0.0105  0.1141  0.1194
 6626W        W26906  10.754   0.984  12.384 -0.2721  0.2619  0.0318
 6627W        W26907  13.080  13.427   3.991  0.1826 -0.1714 -0.2280
 6628W        W26908   5.135   9.431   0.806 -0.1463  0.0737  0.2463
 6629W        W26909  15.065   2.981  13.755  0.0775  0.0243  0.3155
 6630W        W26910  17.089  14.402  10.981  0.2045 -0.1260  0.0117
 6631W        W26911   5.271  17.345   1.081  0.2187  0.1228 -0.2185
 6632W        W26912   6.823  14.950   1.163 -0.0378 -0.1342  0.2457
 6633W        W26913   1.199  15.097   0.892  0.0066  0.0212 -0.1444
 6634W        W26914   0.390  10.465   0.648 -0.2354 -0.1068 -0.2183
 6635W        W26915   4.107  14.462   0.284 -0.1698 -0.5452  0.0863
 6636W        W26916  18.595  15.429  15.330  0.6012  0.1676 -0.0063
 6637W        W26917   7.877   8.053  11.924 -0.1424  0.2376  0.1901
 6638W        W26918   4.780  13.452   3.525  0.1691  0.1474  0.0151
 6639W        W26919   2.826  15.872   3.257  0.0824 -0.1717  0.2490
 6640W        W26920   6.457   2.650  14.513  0.0143 -0.1522  0.0061
 6641W        W26921  17.760   8.569   4.428 -0.0822 -0.3822 -0.1942
 6642W        W26922  12.018   8.795  14.386  0.2723 -0.0643  0.1758
 6643W        W26923   3.522  11.385   1.597 -0.0141  0.2058 -0.2161
 6644W        W26924   7.186   3.688   4.075  0.1169  0.0547 -0.2086
 6645W        W26925  14.688   0.549  11.584 -0.2572 -0.0990  0.2127
 6646W        W26926  12.206   9.894  13.351  0.2545  0.2735 -0.0932
 6647W        W26927  11.383   7.121   2.793 -0.2834  0.1589  0.1345
 6648W        W26928   1.056   3.058   2.257 -0.2411 -0.1026 -0.0507
 6649W        W26929   2.056  15.856   2.356  0.0172 -0.1211 -0.1457
 6650W        W26930  16.910  12.722  14.805  0.0468  0.2281 -0.0346
 6651W        W26931  11.935  18.654   3.771  0.2168 -0.0352  0.0490
 6652W        W26932   3.763   0.112  10.728  0.1513  0.0730  0.2206
 6653W        W26933   1.240  18.594  12.070  0.0902  0.1147 -0.0242
 6654W        W26934   4.906   6.889   1.213  0.2876 -0.0151 -0.1211
 6655W        W26935   6.453   7.293  12.751  0.0708 -0.0924  0.2379
 6656W        W26936  16.950  17.911   2.294 -0.2020 -0.3659  0.1724
 6657W        W26937  18.431   4.394   2.005  0.0851 -0.2836 -0.1391
 6658W        W26938   8.164   8.268  12.929  0.2097  0.0301  0.0206
 6659W        W26939   3.470   6.097  14.482 -0.2421  0.0122  0.0793
 6660W        W26940   9.791  15.914  11.050  0.0484 -0.4383  0.1119
 6661W        W26941  14.184   3.324  14.887  0.1263 -0.0612 -0.0238
 6662W        W26942  11.318   8.458   4.330 -0.0891  0.0269  0.0125
 6663W        W26943  17.710   6.143  14.394  0.0349 -0.3214  0.0951
 6664W        W26944  17.285   8.881   1.929 -0.1723  0.3663 -0.0801
 6665W        W26945   9.354   1.838  11.398 -0.0914 -0.0560 -0.6353
 6666W        W26946  12.672   6.259   2.523  0.2861 -0.3855 -0.1589
 6667W        W26947  12.977  11.858   1.174  0.1355 -0.0296 -0.0754
 6668W        W26948  10.351   7.275  12.183 -0.1718  0.1001 -0.2103
 6669W        W26949  11.636   4.327   2.232 -0.0896  0.1024  0.2421
 6670W        W26950   8.257  13.332  10.685 -0.2052 -0.0243 -0.4736
 6671W        W26951   6.143   1.723   9.907 -0.1472 -0.0516 -0.0992
 6672W        W26952  16.586  14.158   3.746  0.1576  0.0740  0.0227
 6673W        W26953   2.371   5.504  15.171 -0.1319 -0.0952  0.0781
 6674W        W26954  10.343   9.637  14.450  0.2282 -0.1615  0.1929
 6675W        W26955   2.564  11.139  14.233  0.0078 -0.1405  0.1093
 6676W        W26956   3.759   4.184   0.046  0.1282 -0.3064  0.3054
 6677W        W26957   6.740   8.174   2.743 -0.1170 -0.0794 -0.2689
 6678W        W26958   4.261   2.019   1.485  0.1125  0.1359  0.0302
 6679W        W26959  18.168   4.672   2.295  0.2564 -0.0291  0.3589
 6680W        W26960   5.333   2.566   1.298  0.2703 -0.1303 -0.1176
 6681W        W26961   7.072  12.327   3.946 -0.0558 -0.1264  0.2642
 6682W        W26962   3.397  13.045  13.652  0.1169  0.2264 -0.2576
 6683W        W26963   6.569  17.732  14.069 -0.0828 -0.2120  0.0525
 6684W        W26964   3.438  11.333   0.442 -0.0737 -0.1104 -0.2982
 6685W        W26965   3.595  15.088   2.461 -0.1062  0.1329  0.1232
 6686W        W26966   8.699  16.064   1.327  0.0776 -0.1849 -0.0907
 6687W        W26967   6.304  13.060   2.655 -0.1845  0.0156 -0.0091
 6688W        W26968  16.099  17.843   2.003 -0.1567 -0.1020 -0.0768
 6689W        W26969  11.065  17.845  12.351 -0.1515  0.0906  0.0590
 6690W        W26970  13.688   2.751   3.786  0.0046 -0.6024  0.1069
 6691W        W26971   4.120  18.690   3.954 -0.0332  0.3382 -0.0776
 6692W        W26972  15.826   5.573  14.561  0.1253  0.2805 -0.1216
 6693W        W26973  15.467  13.552   2.986 -0.3428 -0.0399 -0.0044
 6694W        W26974  10.189   0.777  14.862 -0.2604  0.0716 -0.2009
 6695W        W26975   3.197   4.608  12.891  0.2392 -0.1645 -0.2887
 6696W        W26976   7.649   2.477  12.258  0.0673 -0.2391 -0.4641
 6697W        W26977  17.578   0.578  15.370 -0.2274 -0.0962 -0.3111
 6698W        W26978  18.653   5.224  11.448 -0.1128  0.0336 -0.0315
 6699W        W26979  10.742  10.779   1.755 -0.0774  0.1775  0.3969
 6700W        W26980   4.343   1.173  14.996 -0.0686 -0.4021 -0.2625
 6701W        W26981  13.492   3.063   4.730 -0.2856 -0.2323  0.2946
 6702W        W26982   4.894   4.859   0.422 -0.2479 -0.2504  0.0512
 6703W        W26983   3.730   4.445  14.136 -0.0580  0.1835 -0.2217
 6704W        W26984   5.339  12.054   3.552  0.1778  0.2454 -0.0060
 6705W        W26985   6.345   5.089   3.676  0.1347 -0.0560 -0.0551
 6706W        W26986   8.066  10.965  14.723  0.0488 -0.1511  0.1056
 6707W        W26987  12.276  15.987  14.819  0.2163 -0.1430 -0.0702
 6708W        W26988  10.284   6.234  14.219  0.0811  0.0719 -0.4523
 6709W        W26989  14.085   2.499   2.442  0.3281  0.3045 -0.1070
 6710W        W26990   3.188   8.423  14.904 -0.1194 -0.1222 -0.0015
 6711W        W26991   6.573  12.184   1.696 -0.2752 -0.2395 -0.0354
 6712W        W26992   6.896   0.187  12.000 -0.0046  0.1509 -0.0318
 6713W        W26993  17.648  17.412   4.316  0.0550 -0.0203  0.0176
 6714W        W26994   6.964  17.492  12.202  0.0325 -0.3318 -0.1361
 6715W        W26995   9.460  16.401   4.045  0.0717  0.1007  0.0721
 6716W        W26996   6.628   3.253  12.081 -0.3711 -0.0502 -0.3113
 6717W        W26997   5.448   1.217  11.571 -0.2032 -0.1922 -0.3451
 6718W        W26998  12.372   3.187   2.421  0.0553  0.0062  0.2383
 6719W        W26999   4.208  12.498  13.530  0.1899  0.1359 -0.0256
 6720W        W27000   5.729  10.144   0.879 -0.0571 -0.0901 -0.1008
 6721W        W27001  13.736  12.124   4.562  0.2531  0.2730  0.0634
 6722W        W27002   4.398   3.594  12.574  0.0897  0.3203 -0.3026
 6723W        W27003   6.186   3.175   0.326  0.1412  0.1003  0.3345
 6724W        W27004  17.285  15.909   0.701 -0.1080  0.0817  0.0619
 6725W        W27005  14.675  15.131   3.409  0.0230  0.2136 -0.2073
 6726W        W27006  16.421   5.315   4.075  0.1984  0.1159 -0.1308
 6727W        W27007  13.935   4.954  14.415 -0.2450 -0.4194 -0.1200
 6728W        W27008   6.091  15.324  13.276  0.2252 -0.2234  0.2713
 6729W        W27009  16.117   8.177   0.142 -0.1247  0.0425 -0.1688
 6730W        W27010  11.273   9.268   4.224 -0.1882 -0.1244  0.0803
 6731W        W27011   5.893  12.886  12.024 -0.2149  0.1654 -0.0258
 6732W        W27012  14.771  16.801   0.877  0.2192 -0.0922  0.1096
 6733W        W27013  10.427   4.420   1.089 -0.1521  0.2065 -0.2930
 6734W        W27014   2.406  12.025  12.502 -0.2427  0.2591 -0.0339
 6735W        W27015   3.157  11.000   1.536  0.1138  0.0215  0.1771
 6736W        W27016   9.224  17.209   0.976  0.0252  0.0921 -0.2633
 6737W        W27017   9.798  17.468   1.438  0.0489 -0.0658  0.1082
 6738W        W27018   7.624   6.336  13.831 -0.1195 -0.6516 -0.2812
 6739W        W27019  16.888  18.015  14.205  0.2379  0.0545  0.0071
 6740W        W27020   7.021   0.359   2.455 -0.1634  0.2817 -0.0952
 6741W        W27021  12.450   3.028  12.282  0.3624  0.0922  0.0177
 6742W        W27022   1.562   5.137   1.198 -0.1728  0.0111 -0.0883
 6743W        W27023   1.641   4.469  11.884  0.2433 -0.0410  0.0757
 6744W        W27024  16.347   6.937   3.629 -0.3086  0.4287  0.1102
 6745W        W27025   6.184  17.591  15.257  0.0337 -0.2674 -0.1633
 6746W        W27026  13.418  13.793   0.042 -0.1335  0.2081 -0.1172
 6747W        W27027   8.231   0.100   4.903 -0.0797 -0.1003 -0.1271
 6748W        W27028   3.796  11.351  14.053  0.0066 -0.0483 -0.0913
 6749W        W27029  17.090   5.658  11.789 -0.3856  0.0978  0.0529
 6750W        W27030   4.079  10.549   4.616 -0.2917  0.1021  0.1220
 6751W        W27031  14.743   7.215   1.472 -0.4190  0.1242  0.1717
 6752W        W27032   2.605   1.028  10.990  0.0355 -0.3013  0.0371
 6753W        W27033   7.590   0.321  12.632 -0.0843  0.0591  0.0353
 6754W        W27034  18.727   0.072   3.685 -0.0264  0.0030  0.1275
 6755W        W27035  13.613   8.436  15.195  0.0353 -0.0702  0.3931
 6756W        W27036  11.330  12.211  15.047 -0.2186  0.0043 -0.1644
 6757W        W27037  13.451   8.572   1.949  0.2613  0.2412  0.0279
 6758W        W27038   6.914   1.749   0.674 -0.0937 -0.2627  0.0662
 6759W        W27039  12.806  13.682  14.540  0.1568 -0.0006  0.2670
 6760W        W27040  16.087   8.853   1.153 -0.0770  0.2937  0.2543
 6761W        W27041  12.275   2.332   2.655  0.0694 -0.0658 -0.0847
 6762W        W27042   6.974   7.689  12.164  0.1147 -0.0652  0.3525
 6763W        W27043  17.778  12.743   0.066 -0.1489  0.2603 -0.2571
 6764W        W27044  17.326   9.592   0.823 -0.3044  0.2556  0.0991
 6765W        W27045   1.708  17.382  11.982 -0.0015  0.1862 -0.0870
 6766W        W27046  15.315  11.539   3.102  0.1542  0.4956  0.1165
 6767W        W27047   7.255  13.606   1.564 -0.2237  0.1897  0.0221
 6768W        W27048  14.242   2.303  13.922 -0.1298 -0.3657 -0.0466
 6769W        W27049   4.632   7.050  11.923  0.1959 -0.2850  0.0574
 6770W        W27050  17.476   2.115  14.651  0.1331 -0.3626 -0.1093
 6771W        W27051   3.189   4.657   1.010 -0.0731 -0.2585 -0.2222
 6772W        W27052  14.757   9.977   3.282  0.0024  0.0444  0.2503
 6773W        W27053  18.236  12.070  14.393  0.1299  0.0822  0.2541
 6774W        W27054   1.588  13.726  13.346  0.0652 -0.0346  0.0500
 6775W        W27055   0.642  16.762   4.435  0.1015 -0.1174  0.3510
 6776W        W27056   4.792  18.598   3.399 -0.1276 -0.2928  0.0204
 6777W        W27057  12.657   7.310   4.141  0.0414  0.2343  0.2756
 6778W        W27058   7.711   9.285  10.578 -0.0180 -0.0580  0.0555
 6779W        W27059   2.481  14.020   5.125 -0.2838  0.2867  0.0577
 6780W        W27060   9.644  12.476  14.326 -0.2392  0.0088 -0.1364
 6781W        W27061  17.413  17.606   3.834  0.2165 -0.2482 -0.2602
 6782W        W27062  11.841   3.012  11.873  0.1766 -0.1734 -0.0567
 6783W        W27063   4.110   8.973   1.565 -0.1177 -0.0471  0.1399
 6784W        W27064   3.026  11.149   3.778  0.1409 -0.1689 -0.0994
 6785W        W27065   6.234  11.386   3.981 -0.0214  0.1213 -0.1877
 6786W        W27066  14.050   1.314  12.074 -0.1667 -0.0666 -0.3798
 6787W        W27067   5.623   9.742  13.358 -0.2720 -0.1578  0.3096
 6788W        W27068  15.906  13.787  14.184  0.0347 -0.2363  0.1185
 6789W        W27069  17.830   3.710  12.199 -0.0227  0.0419 -0.0816
 6790W        W27070  16.910   4.865  15.159  0.1322  0.0411 -0.0431
 6791W        W27071   1.247   9.861   3.733  0.3961  0.0289 -0.1905
 6792W        W27072  10.059   8.948   0.576  0.1454 -0.1753  0.3593
 6793W        W27073  17.732  18.002  14.084 -0.0087 -0.1233 -0.1194
 6794W        W27074   8.488   6.838  14.688 -0.2005  0.3359 -0.0638
 6795W        W27075   1.991  15.570  15.117  0.0367 -0.0919  0.3102
 6796W        W27076   9.891   3.174  14.891 -0.0273 -0.2211  0.2087
 6797W        W27077  11.128   1.477  14.072  0.0333  0.5205  0.2141
 6798W        W27078   2.367  11.414   4.040  0.2609 -0.2242  0.1277
 6799W        W27079   2.994  10.005   2.421 -0.2637 -0.1990  0.2765
 6800W        W27080   7.249  18.331   2.618 -0.0848  0.3078  0.2521
 6801W        W27081  11.891   4.068   1.334  0.3678 -0.1026 -0.2156
 6802W        W27082   8.248  13.362  12.396  0.2475 -0.1112  0.0911
 6803W        W27083   6.153   3.707   2.885 -0.1037  0.3072 -0.0289
 6804W        W27084   2.129  18.286   1.451  0.0749 -0.0173 -0.0591
 6805W        W27085  15.365   5.435   3.927 -0.1200 -0.0335 -0.2727
 6806W        W27086  12.567   7.994   1.899 -0.0666 -0.1991 -0.1127
 6807W        W27087   7.098   4.118   5.320  0.3043  0.2933 -0.0604
 6808W        W27088  12.703  11.826   3.398 -0.0056  0.2615  0.0986
 6809W        W27089  18.071   8.243  15.045  0.0026 -0.0788 -0.2588
 6810W        W27090  17.243   5.932  13.599 -0.1207 -0.1395  0.0692
 6811W        W27091   6.815   2.424  13.154  0.1135  0.0425 -0.2262
 6812W        W27092   1.824  16.499  14.898 -0.1270 -0.0324 -0.1054
 6813W        W27093   2.978   5.854  14.480 -0.0602 -0.1337 -0.0762
 6814W        W27094  11.376   0.096  14.297 -0.0160  0.1266  0.0957
 6815W        W27095  13.133  10.348   4.628 -0.1536 -0.0034 -0.0724
 6816W        W27096   2.808  17.888   1.709  0.1948  0.1682  0.1064
 6817W        W27097  14.097   4.626   1.056  0.2007  0.1516  0.1330
 6818W        W27098  17.949   6.721  11.335 -0.1328  0.1648 -0.1380
 6819W        W27099  17.915   6.608   4.931  0.0224 -0.0870 -0.1406
 6820W        W27100   8.798  10.731   4.475  0.1992 -0.1092 -0.0868
 6821W        W27101  17.116  12.761   4.280  0.2163  0.1354  0.0589
 6822W        W27102   4.949   0.876   4.145 -0.1250  0.2265  0.0514
 6823W        W27103   5.012  18.526   0.603 -0.1134  0.1886  0.0628
 6824W        W27104   4.891   8.548  15.028  0.1106 -0.4444 -0.2582
 6825W        W27105   1.172   1.749   5.189  0.0629 -0.2430 -0.0386
 6826W        W27106  14.430  13.799  13.672 -0.3742  0.1698 -0.0064
 6827W        W27107  16.096  11.828   4.320 -0.3420  0.1110 -0.0616
 6828W        W27108   6.737  14.393   2.365  0.0155  0.0885 -0.1648
 6829W        W27109  16.678   9.393   4.048  0.0479  0.1453 -0.0450
 6830W        W27110  18.017   3.333  11.240  0.2933 -0.0958  0.0542
 6831W        W27111   3.147   8.505   1.818  0.1909  0.0214 -0.2129
 6832W        W27112  12.112  17.512   1.270  0.1365  0.1024 -0.0935
 6833W        W27113   6.792   2.542   1.990 -0.2379 -0.2541  0.1256
 6834W        W27114   1.610  15.609  13.595 -0.0048 -0.1843 -0.1863
 6835W        W27115  15.512  14.334   0.919 -0.0859 -0.1005 -0.1523
 6836W        W27116   6.643  13.423   2.571 -0.1047 -0.0256 -0.0462
 6837W        W27117   9.122  12.289   1.449  0.0973  0.2111 -0.4114
 6838W        W27118  10.083  14.866  14.328 -0.0860  0.2253 -0.1000
 6839W        W27119   0.570  12.569  11.984  0.2982 -0.2635 -0.3040
 6840W        W27120   5.195  12.139   2.187 -0.0718 -0.1041 -0.0771
 6841W        W27121  11.048  14.127  13.524  0.0752  0.1731 -0.3196
 6842W        W27122   7.848   0.417   3.909  0.1001  0.1827 -0.1699
 6843W        W27123   8.284   2.951  11.842  0.1264  0.0699 -0.0956
 6844W        W27124   4.716   9.435   0.495  0.1430  0.0154 -0.1428
 6845W        W27125  11.497   7.326   2.288  0.0918 -0.1365 -0.1076
 6846W        W27126   0.991  10.690   2.175  0.1095 -0.0870 -0.1325
 6847W        W27127  14.272  18.093   1.543  0.2468  0.1151  0.1751
 6848W        W27128  13.343   7.143   4.872 -0.0249  0.0892 -0.1483
 6849W        W27129   1.508   6.135   2.709  0.0041  0.1048 -0.2962
 6850W        W27130   7.398  15.016   1.926  0.0818 -0.0922 -0.0900
 6851W        W27131   7.120  10.090  14.011  0.0390 -0.1353 -0.1325
 6852W        W27132   7.843  11.659   3.239 -0.0813 -0.2032 -0.1838
 6853W        W27133  11.566   4.688   2.646 -0.2845 -0.0240 -0.0084
 6854W        W27134   1.559   0.518   3.677 -0.0731  0.0624 -0.0734
 6855W        W27135  15.555  15.610  10.173 -0.1468  0.1551  0.0695
 6856W        W27136   3.284   4.239   2.898  0.0192  0.0468  0.2821
 6857W        W27137  16.991   1.310  13.732  0.1641 -0.0987 -0.0463
 6858W        W27138   5.536   5.381   1.080 -0.1455  0.1312  0.0626
 6859W        W27139   1.458  17.436   2.476 -0.0320  0.2795  0.0039
 6860W        W27140   8.234   2.688   2.336  0.5673  0.4261 -0.0856
 6861W        W27141   9.341  12.338  13.726 -0.1059  0.3088 -0.0641
 6862W        W27142   7.841   5.245  15.309 -0.2771 -0.0146  0.1639
 6863W        W27143  16.572  14.094   0.001 -0.2779  0.0516 -0.1100
 6864W        W27144  10.581  11.434  11.975  0.1546 -0.2095 -0.2438
 6865W        W27145   8.410   1.739   2.640  0.0395 -0.0036 -0.0620
 6866W        W27146   1.081  13.254   2.269  0.2493 -0.1170 -0.1387
 6867W        W27147   2.339   9.284   0.106  0.0578 -0.0168 -0.2241
 6868W        W27148  17.983   2.528  11.670  0.1798  0.0807 -0.0072
 6869W        W27149  10.464   6.641   1.567  0.0450  0.2351  0.0605
 6870W        W27150   4.754   3.654  14.784 -0.1529  0.0429 -0.1937
 6871W        W27151   7.484   4.058   0.582  0.2315  0.0302 -0.2021
 6872W        W27152   4.225  18.131  10.351  0.1744 -0.0367  0.1224
 6873W        W27153   5.141   7.718  14.932  0.1625 -0.1366  0.3062
 6874W        W27154   3.598  15.980  11.069 -0.0546  0.2712 -0.1955
 6875W        W27155  11.198   5.899  13.034 -0.2822  0.2559  0.2982
 6876W        W27156  10.422   7.253  14.979 -0.0820  0.1024 -0.0095
 6877W        W27157   6.369  13.704  15.269 -0.3805 -0.1154  0.1451
 6878W        W27158  12.158   3.822   0.528 -0.1186  0.0396 -0.0944
 6879W        W27159   1.882   1.223   0.458  0.0505  0.1749 -0.0275
 6880W        W27160  15.927   7.350   3.223 -0.1953  0.0868  0.0464
 6881W        W27161  10.493  13.537   4.089 -0.1828 -0.2877 -0.0070
 6882W        W27162  17.036   9.680   1.652  0.0443  0.0448 -0.0002
 6883W        W27163   1.898  17.501  13.882  0.0837  0.0186 -0.2525
 6884W        W27164  11.960   2.873   3.252 -0.0106  0.4597 -0.1458
 6885W        W27165   7.637   8.681   2.511 -0.1458 -0.3136 -0.1083
 6886W        W27166  15.764   9.069  12.540 -0.0842  0.2533  0.0598
 6887W        W27167   3.149  13.100  14.093  0.0434 -0.0246 -0.0713
 6888W        W27168   6.940  17.178  13.088 -0.0419  0.0360  0.2119
 6889W        W27169  11.706   7.166  12.453  0.0989 -0.2976 -0.2009
 6890W        W27170  16.530   6.656  13.376  0.0504  0.1951  0.5038
 6891W        W27171   0.694   4.041  12.914 -0.3819 -0.1515  0.2477
 6892W        W27172   2.697  10.482   0.335 -0.1181  0.0912  0.0949
 6893W        W27173   8.971   0.902  13.171  0.0445  0.0009 -0.1090
 6894W        W27174   2.328   3.962  13.401 -0.2663  0.1676 -0.4203
 6895W        W27175   0.013   9.572  12.138  0.1662 -0.1838 -0.0968
 6896W        W27176   3.684   2.842   2.931 -0.0314  0.3277  0.1096
 6897W        W27177   3.405  13.219  12.791  0.3140 -0.0589  0.0061
 6898W        W27178   3.241  11.671  12.244  0.0355  0.0063 -0.1471
 6899W        W27179  15.066  11.992   4.536 -0.0866  0.3005 -0.4319
 6900W        W27180   2.858  16.001  15.232 -0.0489  0.2405  0.1205
 6901W        W27181  12.995   6.769  11.712  0.4743  0.1440 -0.0965
 6902W        W27182  17.548   3.552  13.694 -0.3404 -0.0323 -0.2162
 6903W        W27183   0.715  18.041  11.351 -0.2112  0.1527  0.2468
 6904W        W27184  16.627   3.258  15.261 -0.0013 -0.3803  0.2156
 6905W        W27185   0.457   6.092   3.733 -0.1149 -0.0584 -0.1159
 6906W        W27186   7.496  17.147   0.175 -0.1854  0.0505 -0.1124
 6907W        W27187   7.896  11.556   3.825 -0.1412 -0.0287  0.0855
 6908W        W27188  13.667   8.401   2.340 -0.0035  0.0900 -0.1964
 6909W        W27189   4.976   2.894   1.468  0.0026 -0.3513  0.2044
 6910W        W27190  10.148  13.203   2.761 -0.0997 -0.0943  0.1854
 6911W        W27191   6.654   3.007  14.867 -0.0457 -0.0220 -0.0963
 6912W        W27192  13.755   9.635   4.950  0.0490  0.2862 -0.2524
 6913W        W27193   1.101  11.518   2.579  0.1022 -0.2783 -0.1907
 6914W        W27194   9.264  11.224  10.275  0.0742 -0.0706 -0.0553
 6915W        W27195  13.403   2.526  12.038 -0.1873  0.1686  0.1976
 6916W        W27196   6.882  15.271  13.895 -0.1083 -0.0661  0.0512
 6917W        W27197  14.904   2.887  14.667 -0.0889  0.0412  0.2586
 6918W        W27198   2.808   7.675   5.290  0.1342  0.0793  0.2479
 6919W        W27199   7.883   2.455  13.101 -0.1341 -0.2379 -0.2195
 6920W        W27200  15.871  14.231   4.913 -0.1818  0.0084 -0.1396
 6921W        W27201   8.802   4.544   2.986 -0.4552  0.2288  0.1798
 6922W        W27202   9.501  17.333  12.189 -0.1290  0.0667  0.1752
 6923W        W27203   3.779  14.890  15.228 -0.0075  0.1926 -0.0608
 6924W        W27204  12.097  17.738  12.588  0.1503 -0.0512 -0.3882
 6925W        W27205   8.655   5.321   1.497  0.1952  0.1322  0.2261
 6926W        W27206   2.196  17.444  10.806  0.1358  0.0513  0.2397
 6927W        W27207   3.161  17.366  10.537  0.4089 -0.2925 -0.2013
 6928W        W27208   2.015  13.412  12.209 -0.4755  0.1650  0.0887
 6929W        W27209   3.877   2.077   3.104  0.1308  0.2011  0.0399
 6930W        W27210   7.030  15.245   3.786 -0.0032  0.2075 -0.2765
 6931W        W27211  14.724   4.911  11.701  0.2227  0.0691 -0.0712
 6932W        W27212  16.019   5.710  13.874  0.1653 -0.0071  0.0634
 6933W        W27213  13.589   5.931   3.974 -0.0875 -0.1142  0.0317
 6934W        W27214   1.553   0.487   3.003  0.2474  0.1970 -0.1132
 6935W        W27215   9.764  12.582  12.086  0.1601  0.0349  0.3280
 6936W        W27216   3.278  14.225   0.077 -0.0630 -0.2074  0.0085
 6937W        W27217   3.082   7.345  11.298  0.0056  0.0932 -0.0077
 6938W        W27218   2.644  11.303  10.737  0.1228 -0.0316 -0.0205
 6939W        W27219  12.710  10.803  13.451 -0.1419  0.0542  0.0068
 6940W        W27220  10.101   4.514   3.151  0.0224  0.1002 -0.0552
 6941W        W27221   0.076   5.021   4.839 -0.2041  0.2302 -0.1590
 6942W        W27222  10.606   4.196  13.587  0.1080 -0.0302 -0.0751
 6943W        W27223  16.890  13.204   2.837 -0.0514  0.1596 -0.0527
 6944W        W27224  11.135   6.378  13.078 -0.3344 -0.0128 -0.1206
 6945W        W27225   8.672   0.608  11.788 -0.1007  0.1148  0.0104
 6946W        W27226   9.349  14.238  14.932  0.1246 -0.1324 -0.0602
 6947W        W27227  16.312  13.680  15.110 -0.1535  0.0211  0.0437
 6948W        W27228   7.146   2.377  12.343 -0.1179 -0.0268  0.3214
 6949W        W27229  17.632  17.802   0.336  0.4684  0.0697  0.0820
 6950W        W27230   4.507  13.155  11.512  0.4429 -0.1755 -0.1727
 6951W        W27231  10.130  14.888  15.067  0.0051 -0.1917  0.0323
 6952W        W27232  15.819  14.536   0.225 -0.0149 -0.0420  0.0261
 6953W        W27233   4.011   7.461   3.223 -0.0164  0.0824 -0.1740
 6954W        W27234  14.976  10.570   1.782  0.1338 -0.0477  0.0972
 6955W        W27235  13.452  15.782   3.321  0.2046  0.0088 -0.2744
 6956W        W27236   3.844  18.201  12.460  0.2478 -0.1673  0.1420
 6957W        W27237  10.754   3.165  13.744 -0.1041 -0.1106 -0.1321
 6958W        W27238  14.607  13.083  15.226  0.3396 -0.2108  0.0786
 6959W        W27239   2.381   5.659   2.672  0.0434  0.2067 -0.1276
 6960W        W27240   6.791  13.279  13.575 -0.0287 -0.1739 -0.1984
 6961W        W27241   8.205   9.466   2.419  0.0275  0.2089  0.0191
 6962W        W27242  13.271   8.273  12.764  0.0550 -0.1320 -0.1217
 6963W        W27243   3.761  16.777  12.074  0.0382 -0.0657  0.0367
 6964W        W27244   5.911   0.172  12.825 -0.0518 -0.2542 -0.0556
 6965W        W27245  16.798  14.406   4.234  0.4213  0.1991  0.2565
 6966W        W27246  15.511  14.690  13.320 -0.1893  0.0563 -0.0756
 6967W        W27247  13.477  11.762   3.609 -0.1477 -0.1676 -0.0786
 6968W        W27248  15.804   4.517   2.549  0.1310  0.0182 -0.0042
 6969W        W27249  16.240  16.032   2.590  0.0879  0.0451 -0.0408
 6970W        W27250  13.451   6.363   4.319 -0.0257  0.0004  0.0798
 6971W        W27251  13.651  13.201   2.943  0.0556  0.0027 -0.0114
 6972W        W27252   9.072   6.135   2.934  0.0472 -0.0467  0.1532
 6973W        W27253  17.997   2.680  15.395 -0.2413  0.0497 -0.1263
 6974W        W27254   8.846   9.224   5.913 -0.2838 -0.4439 -0.2015
 6975W        W27255   2.997  13.272   2.016  0.0339  0.3039 -0.1696
 6976W        W27256   5.146  14.830   1.716  0.2878  0.0825  0.1369
 6977W        W27257  16.821   7.005  13.589 -0.0871 -0.2133  0.0527
 6978W        W27258   4.622  17.283  11.131  0.0268  0.0188 -0.1653
 6979W        W27259   1.173   8.213   1.408 -0.2329  0.4444 -0.0769
 6980W        W27260  10.804  17.801   0.780  0.0994 -0.1900 -0.0102
 6981W        W27261   2.493  13.744   0.539 -0.1760  0.1879 -0.1528
 6982W        W27262  16.843  16.524  15.086 -0.0544  0.4233 -0.3362
 6983W        W27263  11.619   5.117  12.758  0.1623  0.0847  0.0240
 6984W        W27264   5.498   1.032  12.061  0.0760  0.0933  0.3393
 6985W        W27265   3.569   8.009  15.084 -0.1602 -0.3041  0.0205
 6986W        W27266   9.322  10.328  11.802 -0.1180  0.0258  0.1586
 6987W        W27267   1.881  12.549  15.149 -0.1630  0.2510 -0.1265
 6988W        W27268   2.525   9.117   1.711 -0.0954 -0.0207 -0.0630
 6989W        W27269   1.369   7.617  11.528 -0.0260 -0.1978 -0.0286
 6990W        W27270  10.891   7.477   1.326 -0.1559  0.0832 -0.2902
 6991W        W27271  13.598  13.448  15.155 -0.1928  0.0947  0.1175
 6992W        W27272  12.825   8.788  14.452 -0.1142  0.0232  0.1029
 6993W        W27273   1.075  13.751   3.023  0.2465  0.0858 -0.1729
 6994W        W27274  10.932  16.593  10.812  0.0251  0.0111  0.1007
 6995W        W27275  16.378  18.518  11.936 -0.2758  0.2227  0.0388
 6996W        W27276   9.249   9.077   0.143 -0.2118  0.2615 -0.0626
 6997W        W27277  16.134   0.819  13.325  0.0439  0.2963  0.0798
 6998W        W27278   7.638   4.377   0.080 -0.1502  0.1569 -0.0448
 6999W        W27279   9.359  10.924   4.583  0.0792  0.0278 -0.3132
 7000W        W27280   5.534   7.601   1.700  0.1650  0.2393 -0.0611
 7001W        W27281  17.710   0.643  14.042 -0.0847  0.0569 -0.0551
 7002W        W27282  16.592  13.176  14.287  0.1805  0.0951  0.0971
 7003W        W27283  15.740  13.737  12.468 -0.0386  0.1127 -0.0551
 7004W        W27284  14.139  16.557  14.883 -0.0767  0.0972 -0.0188
 7005W        W27285  18.568   6.026   1.954 -0.2137  0.1693  0.3806
 7006W        W27286   0.597  12.695  13.030 -0.0085  0.0964 -0.1437
 7007W        W27287  14.169  15.143   3.388 -0.1148 -0.0200 -0.0369
 7008W        W27288   1.602   0.859  14.313  0.5027 -0.2540  0.0059
 7009W        W27289  10.807   7.140   0.361  0.2098 -0.1920  0.1873
 7010W        W27290   8.600  16.639  13.119  0.0091 -0.0825  0.0741
 7011W        W27291   4.153  15.447   2.374  0.2145  0.0224 -0.1038
 7012W        W27292   2.176   3.617  11.727  0.0453  0.3568 -0.2202
 7013W        W27293  18.622   5.113  15.053  0.4433 -0.0543  0.4109
 7014W        W27294   7.572   4.584  11.739  0.1808 -0.0213 -0.1947
 7015W        W27295   0.979  11.282  11.496  0.2406  0.0419 -0.0217
 7016W        W27296   9.481  16.824  12.166  0.0312 -0.2053 -0.0888
 7017W        W27297   1.380   7.919  14.183  0.1919  0.1569 -0.0158
 7018W        W27298  12.319   9.236   3.760  0.0477 -0.1796  0.1801
 7019W        W27299   8.625  16.438  12.576 -0.1462 -0.2069  0.0696
 7020W        W27300   2.280   3.133   1.203 -0.1275 -0.2085 -0.0997
 7021W        W27301   1.147  17.291   2.019 -0.3518  0.0392 -0.0252
 7022W        W27302  11.152   5.963   2.909 -0.1061 -0.0313 -0.1609
 7023W        W27303   7.747   1.859   3.442  0.0529  0.0498  0.1348
 7024W        W27304   5.605  13.288   4.089 -0.2557 -0.0778 -0.0632
 7025W        W27305  12.225   4.832  14.872 -0.1506 -0.1074 -0.0038
 7026W        W27306   9.496   2.901   1.567 -0.2643  0.2668  0.0735
 7027W        W27307   1.653   4.043   2.012  0.1047  0.1041 -0.1986
 7028W        W27308   0.525  13.258   2.267  0.3815 -0.0961  0.4243
 7029W        W27309  11.360   8.317  12.146  0.3614 -0.1951  0.0044
 7030W        W27310   8.060  14.748   0.201  0.0646  0.2213  0.1948
 7031W        W27311   2.377  17.439  13.877  0.1753 -0.0559 -0.1680
 7032W        W27312   1.776  15.613   4.246 -0.2240  0.0305  0.2291
 7033W        W27313   8.735   2.680  13.136  0.3469 -0.1503 -0.0232
 7034W        W27314  16.958   1.686  14.056 -0.3188  0.0369 -0.0773
 7035W        W27315   8.457   9.352  11.859  0.1875 -0.2136 -0.1061
 7036W        W27316   2.604  12.771   5.205 -0.2770  0.1482 -0.1454
 7037W        W27317   9.912  15.456  11.262  0.2363 -0.0165 -0.1492
 7038W        W27318  17.237   6.992   3.285 -0.1255 -0.0591  0.3395
 7039W        W27319   6.238   7.948   1.042 -0.1599 -0.0798 -0.0608
 7040W        W27320  16.462   6.426  13.797 -0.2454  0.1185 -0.1855
 7041W        W27321   3.261  14.421   2.533  0.4071 -0.2366  0.0797
 7042W        W27322   7.458   9.767   0.474 -0.0388 -0.0846  0.3350
 7043W        W27323   3.350  17.121   2.671  0.2306 -0.2103  0.0449
 7044W        W27324  13.332  16.704  12.868  0.0401  0.1666 -0.0019
 7045W        W27325   5.196   5.626   0.155  0.0132 -0.0008  0.0927
 7046W        W27326  12.321   3.011   3.673 -0.2522  0.4080  0.2616
 7047W        W27327   9.338  13.944  13.390  0.1783 -0.2967  0.0976
 7048W        W27328  15.647   9.884  15.123 -0.1212  0.0966  0.4880
 7049W        W27329   7.236  11.516  15.094  0.2404 -0.3894  0.2884
 7050W        W27330   5.071  14.518  12.172 -0.1198 -0.0504 -0.3571
 7051W        W27331  10.483  17.590  14.984 -0.4317  0.1028  0.0118
 7052W        W27332   3.863  12.979   4.301  0.0765 -0.0916 -0.2140
 7053W        W27333   3.808  18.151  10.590 -0.0960 -0.1985  0.1607
 7054W        W27334  18.299   7.037  12.797  0.2155 -0.2630 -0.0190
 7055W        W27335  11.142  13.380  14.436  0.1387  0.2688  0.2540
 7056W        W27336  14.005   0.830  11.077 -0.0135  0.0098 -0.1153
 7057W        W27337  15.127   5.225   2.620 -0.0616 -0.0456 -0.1866
 7058W        W27338  17.382  17.985  12.951 -0.2603 -0.2819 -0.1631
 7059W        W27339   2.045   0.389   0.465 -0.1924 -0.0083  0.0967
 7060W        W27340  12.527  16.182  12.583 -0.1962  0.0212 -0.0780
 7061W        W27341   9.918   7.960  13.901 -0.2943  0.2756 -0.2559
 7062W        W27342  18.009   4.489   3.219 -0.2144 -0.0858  0.1825
 7063W        W27343   7.494   5.160  12.528  0.2506  0.0756 -0.1555
 7064W        W27344  17.273   2.064  15.329  0.0977 -0.0092 -0.3641
 7065W        W27345   0.194  16.580   2.934 -0.0484 -0.0455  0.1692
 7066W        W27346  12.142  13.208  13.596  0.1507 -0.0530  0.4786
 7067W        W27347  11.219   5.573   4.172  0.0037  0.1356  0.0095
 7068W        W27348  13.784   0.520  13.904  0.0560  0.0594  0.2331
 7069W        W27349  16.148   8.700   1.651  0.3189 -0.0399  0.1146
 7070W        W27350  13.838  14.284   1.629  0.0016  0.0625  0.2118
 7071W        W27351   2.764  12.607   0.306  0.1136  0.2328  0.1932
 7072W        W27352   8.642   7.408  11.702 -0.1705  0.1285  0.0107
 7073W        W27353   6.434   6.615  12.868 -0.1624  0.1828 -0.1718
 7074W        W27354   4.247  13.798  11.264  0.1310 -0.0771 -0.0149
 7075W        W27355   5.861  11.901  12.730  0.0156 -0.2029 -0.3654
 7076W        W27356  12.369  18.642   0.621 -0.3366 -0.3111  0.0412
 7077W        W27357  10.577   8.617   0.020  0.0973 -0.1412  0.2479
 7078W        W27358   6.651  10.706   9.923 -0.0190 -0.0649  0.1244
 7079W        W27359   2.916  18.298  14.364 -0.1349  0.1459  0.1463
 7080W        W27360   8.932   1.272  14.547  0.1755 -0.0490 -0.3763
 7081W        W27361   7.873   3.946   2.004 -0.0801 -0.2571 -0.0090
 7082W        W27362   8.726  18.501  10.540 -0.0192  0.1401 -0.1043
 7083W        W27363   3.818   9.197  14.244  0.1528  0.3856 -0.1252
 7084W        W27364  11.828  12.085  13.767  0.0126 -0.0207 -0.1523
 7085W        W27365  10.962  17.218   0.251 -0.0236  0.0841 -0.0612
 7086W        W27366  13.802  14.994  10.057 -0.1081  0.0618 -0.0149
 7087W        W27367  15.719   6.204   2.546  0.1300 -0.3083  0.2869
 7088W        W27368  10.066  18.220   4.549  0.1703 -0.4495  0.1212
 7089W        W27369   4.224  10.160   3.361  0.1123 -0.0832  0.3196
 7090W        W27370  15.261   4.210   4.130 -0.1840 -0.2582  0.0721
 7091W        W27371   7.625  17.329  13.410  0.1593 -0.1739  0.0877
 7092W        W27372   1.890   4.934   4.216 -0.1700  0.0144 -0.4733
 7093W        W27373   5.705  16.221   3.963 -0.1181  0.0845  0.1816
 7094W        W27374   1.919  16.114  11.522  0.2675 -0.0667  0.1369
 7095W        W27375   7.713   3.952   1.102  0.0420 -0.3423  0.3667
 7096W        W27376   8.922   5.348  14.700 -0.2481  0.1223  0.0467
 7097W        W27377  10.563   8.329  15.000  0.0707 -0.1021  0.2510
 7098W        W27378  10.983  17.462  14.176  0.0555  0.0561 -0.0087
 7099W        W27379  12.797   3.752   3.279 -0.2413  0.2271  0.1804
 7100W        W27380  10.004  16.891   2.446  0.1100  0.3404 -0.2747
 7101W        W27381  18.045   8.972  14.030 -0.0083  0.0557  0.0553
 7102W        W27382   5.080  16.208  14.949 -0.0189 -0.0174  0.2491
 7103W        W27383  14.995  15.340  14.595 -0.2030  0.1459  0.1959
 7104W        W27384  14.427  11.982  13.745  0.1279  0.1100  0.3415
 7105W        W27385  11.819   0.119  12.104  0.1464  0.0107  0.2175
 7106W        W27386  10.873   9.323  13.696 -0.1234 -0.4279 -0.0857
 7107W        W27387   0.710  16.971   3.473 -0.1154  0.1253  0.1287
 7108W        W27388   3.383   1.956   3.250  0.1619  0.3883  0.0378
 7109W        W27389  13.326   2.739  12.622  0.1116 -0.2043 -0.0790
 7110W        W27390   0.189  15.912  13.519 -0.2140 -0.1544 -0.0459
 7111W        W27391  13.408  13.800  10.995 -0.2325  0.0056 -0.0164
 7112W        W27392   0.857   7.477  11.308 -0.1802 -0.1523  0.0894
 7113W        W27393  11.806  18.038   2.653  0.2351 -0.0151  0.0666
 7114W        W27394   3.148   5.804  15.386  0.0341 -0.0054 -0.0307
 7115W        W27395  11.980  15.106   3.749 -0.1323  0.1227  0.0321
 7116W        W27396  17.148  16.601  12.554  0.3714 -0.2250 -0.2613
 7117W        W27397  17.044  15.270   1.802  0.0938 -0.1406  0.0559
 7118W        W27398  10.614  18.425  14.442 -0.3715  0.0958 -0.0571
 7119W        W27399  12.891  10.608  14.361 -0.0797 -0.0727  0.0024
 7120W        W27400   3.955   5.424   3.616 -0.0313  0.0661 -0.0289
 7121W        W27401   5.893   8.583  12.925  0.1561  0.0792  0.0797
 7122W        W27402   6.129  10.585  12.942 -0.1383  0.3408 -0.0178
 7123W        W27403  14.783  10.667   3.689  0.1691 -0.2737 -0.0266
 7124W        W27404   9.366  14.423  12.043  0.0344 -0.1069  0.2696
 7125W        W27405   2.694  11.797   5.049 -0.1344  0.1003 -0.0121
 7126W        W27406  12.655   5.410   2.890 -0.0281  0.0323 -0.2713
 7127W        W27407   9.057  10.013   0.404  0.0558  0.0647 -0.1760
 7128W        W27408  11.978   6.356  12.490 -0.0595 -0.2155 -0.1365
 7129W        W27409   6.128   7.228  13.997 -0.2824 -0.0555 -0.0141
 7130W        W27410  18.591   0.080  13.131  0.3007 -0.0156  0.1627
 7131W        W27411   7.119   4.735   4.227  0.1496 -0.1557  0.2023
 7132W        W27412   4.512   3.975  11.962 -0.2367 -0.2453 -0.0755
 7133W        W27413   1.434  10.397   3.433  0.1087 -0.3406  0.0053
 7134W        W27414   2.198   2.753  12.476 -0.2097  0.5011  0.0364
 7135W        W27415   5.356   7.882   3.028 -0.1494  0.1195  0.0850
 7136W        W27416  14.872  14.346  14.595  0.0143 -0.0672  0.1126
 7137W        W27417  14.626   2.918   1.828 -0.1906 -0.0215 -0.3484
 7138W        W27418   4.380  13.264   4.268  0.2799 -0.0504 -0.1237
 7139W        W27419   0.481   4.340  13.300 -0.1029 -0.1866  0.0179
 7140W        W27420  17.855  14.897   2.894  0.2365  0.0786  0.1412
 7141W        W27421   0.343  17.138   2.481  0.2009 -0.0536 -0.0236
 7142W        W27422   6.316  14.777   1.125 -0.0892  0.0381  0.2173
 7143W        W27423   2.793   6.374   2.223 -0.0881  0.0911  0.2274
 7144W        W27424   1.677   2.833  14.984  0.3456  0.0446 -0.0395
 7145W        W27425   7.407   9.467  13.604  0.3266  0.3540  0.2294
 7146W        W27426   5.555   2.938  14.044  0.0708 -0.0739 -0.3405
 7147W        W27427  17.854   7.528   0.000 -0.1049  0.0520  0.0529
 7148W        W27428  12.595   7.453   0.048 -0.1332 -0.1112 -0.1694
 7149W        W27429  15.609   5.896   2.125 -0.0491 -0.0883  0.0209
 7150W        W27430  14.511   6.030  12.349  0.2007  0.0643 -0.0216
 7151W        W27431  11.072  11.450  12.189  0.0678  0.2579  0.0138
 7152W        W27432  10.701   6.069  13.922  0.0371 -0.1167 -0.0703
 7153W        W27433  15.095  11.777  12.003  0.1718  0.5139 -0.3407
 7154W        W27434   8.749  12.783  12.111 -0.0899 -0.0329 -0.2358
 7155W        W27435  12.816   6.453   0.462  0.1232 -0.0580  0.0072
 7156W        W27436  17.692  10.598  11.590 -0.1373 -0.2920  0.1375
 7157W        W27437  11.626   7.498   4.105  0.2484  0.0960 -0.1864
 7158W        W27438  16.332   8.557  13.594 -0.0120 -0.2400 -0.1558
 7159W        W27439  17.823   4.937  12.763  0.2742  0.2553  0.0223
 7160W        W27440  13.185  15.849  13.272  0.0099 -0.2699 -0.2449
 7161W        W27441   3.975  10.695   0.999  0.3475 -0.3212 -0.1471
 7162W        W27442  16.941   6.135   3.669  0.2463  0.2553  0.2839
 7163W        W27443  16.038  12.300   1.162  0.1627  0.1748  0.0064
 7164W        W27444   4.251   7.010   0.164 -0.0424  0.3714 -0.3213
 7165W        W27445   8.109   8.081   4.144 -0.1263  0.3493 -0.2456
 7166W        W27446   0.822   4.500   1.008 -0.1571  0.1781  0.3283
 7167W        W27447   5.437  15.801  11.820  0.0206 -0.0095  0.1052
 7168W        W27448  10.751   5.382   1.243  0.1277  0.0305 -0.0379
 7169W        W27449   6.849  16.493  12.771  0.3353  0.4349  0.3067
 7170W        W27450   7.759  17.332  10.763  0.1529  0.1732 -0.0038
 7171W        W27451  15.580  17.969  12.562 -0.0062 -0.4557 -0.0025
 7172W        W27452  14.917   6.350  11.703  0.0325  0.3456 -0.2675
 7173W        W27453   3.646  13.833  15.278  0.0809  0.4273 -0.2093
 7174W        W27454   4.581   3.121  13.561 -0.0251 -0.0253 -0.1407
 7175W        W27455   3.349  17.839  14.960  0.1168 -0.3149 -0.3905
 7176W        W27456  14.585  17.089   1.206  0.0857  0.1610 -0.3320
 7177W        W27457   2.458   6.990  14.666  0.0138 -0.1962  0.0804
 7178W        W27458  15.797   4.399   0.244 -0.1886 -0.0922  0.0518
 7179W        W27459   2.468  16.766  11.259  0.2537  0.2519  0.0670
 7180W        W27460  11.385  14.372  11.346  0.1969 -0.2844  0.0059
 7181W        W27461   9.156   7.889   4.896  0.1500 -0.2737 -0.2355
 7182W        W27462   0.134  12.988   1.966 -0.1572 -0.0214 -0.1601
 7183W        W27463   2.353   6.267   1.049  0.0648  0.2634  0.0258
 7184W        W27464  17.306  10.276  11.584  0.2539  0.1209  0.0924
 7185W        W27465   8.796   5.015   0.275 -0.1755 -0.0040  0.1599
 7186W        W27466   4.110   5.899  13.739  0.0690  0.0300  0.0090
 7187W        W27467   0.685   2.975  13.458  0.1813 -0.1782 -0.0069
 7188W        W27468   4.577   9.493  11.719 -0.0935 -0.1582  0.1351
 7189W        W27469  13.713  11.569  11.317  0.2359 -0.1401 -0.0165
 7190W        W27470   7.909  11.186   3.520  0.1036  0.1000 -0.0742
 7191W        W27471  16.777  16.698  13.247  0.2403  0.0681  0.1355
 7192W        W27472   0.254   3.380   3.480 -0.2288  0.0689  0.3609
 7193W        W27473  14.639  11.258   4.303 -0.0164 -0.4954 -0.0376
 7194W        W27474   6.010   3.571  11.901  0.4599 -0.0205  0.4712
 7195W        W27475   5.524   6.539  11.942 -0.0676 -0.0674 -0.0556
 7196W        W27476  12.028   1.265   1.423 -0.1234  0.0299  0.2806
 7197W        W27477  10.525  16.384  13.553 -0.1796  0.1328  0.0311
 7198W        W27478  11.747   7.275  11.573 -0.0931 -0.3218 -0.2520
 7199W        W27479   8.929  11.192  12.203  0.0820 -0.0046 -0.3845
 7200W        W27480   7.242   3.638   0.475  0.3603 -0.1069  0.0106
 7201W        W27481  13.165  14.203   4.483  0.1704  0.0291 -0.2049
 7202W        W27482   7.704  17.508  14.649 -0.1780 -0.1290  0.2952
 7203W        W27483  10.195  12.469   1.938  0.0501  0.2688  0.0394
 7204W        W27484   0.572  17.473   2.121 -0.2109  0.3848  0.2375
 7205W        W27485   6.558   4.289   1.604 -0.2226 -0.1100 -0.2472
 7206W        W27486   0.278   6.065  15.164 -0.1217  0.0925 -0.0371
 7207W        W27487  13.652  12.654   1.459 -0.0415 -0.0161 -0.4785
 7208W        W27488   6.390   4.339  14.895 -0.2536 -0.2341 -0.1260
 7209W        W27489  12.367   1.497  15.007 -0.0173 -0.0179  0.0658
 7210W        W27490   6.005  15.322  11.399 -0.1241  0.0231  0.2080
 7211W        W27491   8.343  11.730   2.629 -0.1924  0.0590 -0.0164
 7212W        W27492  18.429   7.148   3.979  0.1296  0.0232  0.0668
 7213W        W27493   1.901  17.450  14.879 -0.5157 -0.1358  0.3510
 7214W        W27494  18.638   3.313   0.236  0.2436  0.0062 -0.1009
 7215W        W27495   6.315  13.168   4.014  0.1049  0.1398 -0.0894
 7216W        W27496   5.887   0.918   0.607 -0.1229 -0.1712 -0.1752
 7217W        W27497   7.566  14.395  14.299 -0.1808 -0.0567  0.0793
 7218W        W27498   8.889  13.953   1.036  0.0989 -0.0227  0.2076
 7219W        W27499  14.702  10.620   0.376  0.1072  0.1459 -0.1096
 7220W        W27500  14.726  17.454  13.478 -0.0009  0.0586 -0.0463
 7221W        W27501   4.109  17.421  10.889  0.1127 -0.2520 -0.0578
 7222W        W27502  17.441  14.725  13.640  0.3245  0.0794 -0.0185
 7223W        W27503   7.868  11.175  13.874  0.0343 -0.1959  0.0676
 7224W        W27504  13.534  13.133   0.180 -0.1290  0.0001 -0.0359
 7225W        W27505  16.933   4.441  14.253  0.3595 -0.4237  0.0894
 7226W        W27506  18.427   2.986  13.767 -0.2926  0.1904  0.0330
 7227W        W27507  17.620  16.001   1.898  0.0480 -0.3002 -0.1063
 7228W        W27508  16.599   5.589   2.394 -0.1827 -0.0155  0.1513
 7229W        W27509   2.115  17.665  11.233 -0.1550  0.2794 -0.0713
 7230W        W27510  15.726   0.609   0.157  0.0125  0.1714 -0.2473
 7231W        W27511  10.441  16.417   1.040 -0.0957  0.1578  0.2298
 7232W        W27512   7.215   7.566   4.072 -0.0091  0.0014  0.0751
 7233W        W27513   7.693  13.471  12.975 -0.3726  0.1162  0.1265
 7234W        W27514  10.538  17.775  11.984 -0.0812  0.0028  0.0036
 7235W        W27515   2.596  14.489  11.448 -0.0272 -0.3046  0.0270
 7236W        W27516  16.584  17.078   2.448  0.0521 -0.1082 -0.1480
 7237W        W27517   0.942  14.123   3.472  0.0005 -0.0787  0.1007
 7238W        W27518  15.716  18.646  10.935 -0.1402 -0.0847  0.1728
 7239W        W27519   2.110   8.061  11.530  0.3745 -0.0682  0.1219
 7240W        W27520   8.869   3.496   3.025 -0.0004  0.2476  0.2954
 7241W        W27521   6.133   5.960  11.566  0.1285 -0.2431  0.0881
 7242W        W27522  10.626   2.824   3.704  0.0912 -0.3170 -0.0828
 7243W        W27523  12.436   3.380   1.369  0.1181 -0.2062 -0.0537
 7244W        W27524  16.750  14.707  11.224  0.0747  0.0724 -0.1632
 7245W        W27525  13.425  14.805   3.796  0.0011  0.0759 -0.1785
 7246W        W27526  13.496   4.176   4.002  0.0139  0.2008  0.1254
 7247W        W27527  10.440   7.061  13.130  0.1405 -0.5407 -0.1221
 7248W        W27528  12.399   8.105  15.040  0.0225 -0.0738  0.0317
 7249W        W27529   6.456   7.229  14.829  0.0821  0.3657 -0.0765
 7250W        W27530   2.764  14.068  11.237 -0.1986  0.1902 -0.1191
 7251W        W27531  16.845  16.192   1.949  0.0971 -0.1233 -0.0991
 7252W        W27532   2.615  17.774  11.335 -0.3627  0.1606  0.1578
 7253W        W27533   8.399   1.552  11.560 -0.1086 -0.1507 -0.0768
 7254W        W27534   1.283   4.002   1.623 -0.0525 -0.1820  0.2919
 7255W        W27535  13.805   8.318   4.500 -0.3033  0.2365 -0.2788
 7256W        W27536   4.487   6.210  12.987  0.0612 -0.1698  0.1179
 7257W        W27537   1.258   6.338  12.299 -0.4026  0.2251  0.1549
 7258W        W27538   8.071   1.661  14.199 -0.0418  0.3440 -0.0990
 7259W        W27539   6.807  10.083  13.359 -0.1068  0.0664  0.2334
 7260W        W27540   6.727  11.733  13.185 -0.0657  0.1129  0.2206
 7261W        W27541   9.637   2.630  11.688 -0.5130  0.1218 -0.2801
 7262W        W27542  17.062   5.486   0.681  0.1732 -0.0702  0.1950
 7263W        W27543  14.832   2.142   1.154 -0.3537 -0.2530  0.0071
 7264W        W27544  10.933   4.381  11.461 -0.0984 -0.0782  0.3990
 7265W        W27545   6.316  12.779  15.359 -0.1623  0.0669  0.3666
 7266W        W27546   8.993  10.142  12.554  0.3126 -0.1935  0.1375
 7267W        W27547  12.030  15.693   2.465 -0.0779 -0.2181 -0.0754
 7268W        W27548  12.435   0.737  12.805  0.0591  0.0394  0.1237
 7269W        W27549   0.544  18.028   1.268  0.2074  0.0339  0.2851
 7270W        W27550   5.514  17.014   1.493  0.1742 -0.0304  0.1476
 7271W        W27551  13.398  16.250   3.289 -0.0402  0.0501 -0.3664
 7272W        W27552  15.446   5.058   3.035  0.2506  0.0787 -0.0952
 7273W        W27553   2.703   6.055   0.731  0.0289 -0.1830 -0.1938
 7274W        W27554  14.260   5.891   2.224 -0.2457 -0.1062  0.0117
 7275W        W27555   7.663  10.303  11.423 -0.1331 -0.1568 -0.0418
 7276W        W27556   8.026   0.101   0.160  0.1166 -0.1033 -0.0666
 7277W        W27557  10.441   0.639  11.122  0.0829  0.1865  0.1039
 7278W        W27558   5.655  17.163   2.963  0.0174  0.2391 -0.3767
 7279W        W27559  16.167   0.165  14.859 -0.1415  0.0164  0.0961
 7280W        W27560   3.314  15.848   0.980 -0.0993 -0.0247  0.2040
 7281W        W27561  17.377   7.074   1.530  0.2456  0.2523  0.3216
 7282W        W27562   4.873  17.039   0.528 -0.2209 -0.0421  0.0969
 7283W        W27563   3.766   8.565  11.811 -0.1328  0.3760 -0.1836
 7284W        W27564   1.577  15.212  11.457 -0.1217  0.4144  0.2041
 7285W        W27565   8.053   9.730   0.349  0.1284 -0.2252  0.0148
 7286W        W27566   6.053  12.052  11.489 -0.2031 -0.1422 -0.1293
 7287W        W27567  14.110  11.466  14.256 -0.0704 -0.1270 -0.1070
 7288W        W27568  15.455  12.525  13.188  0.0298 -0.0220 -0.2167
 7289W        W27569  11.215  12.069   2.671 -0.4532  0.0988  0.1326
 7290W        W27570   8.085  17.269  14.465 -0.0700  0.1136 -0.0883
 7291W        W27571   2.303  16.014   0.913 -0.0154 -0.0416 -0.1661
 7292W        W27572   1.619   9.287  10.089 -0.5380  0.0264 -0.2813
 7293W        W27573  14.561  17.155   3.775  0.1382 -0.0904  0.0811
 7294W        W27574  12.830   7.536   3.609  0.2004 -0.0946  0.3262
 7295W        W27575  15.712   5.012   1.511 -0.2321 -0.1686  0.2893
 7296W        W27576  16.937   0.856   1.135  0.0728 -0.3375  0.0357
 7297W        W27577  11.485  12.242  11.129 -0.1290 -0.2130  0.0823
 7298W        W27578   6.880  11.702   2.672  0.1888 -0.3118 -0.0607
 7299W        W27579  11.326   1.936   0.947 -0.0205  0.0865 -0.2603
 7300W        W27580  18.048   4.391  11.197 -0.0619  0.2153  0.0042
 7301W        W27581   8.029   4.628  12.732  0.2117 -0.3401  0.0344
 7302W        W27582   9.162  15.633  14.020 -0.0782  0.0009  0.2963
 7303W        W27583   7.547   2.046  15.124  0.3709 -0.0819 -0.0778
 7304W        W27584  18.592  13.742  11.744 -0.2600  0.3524 -0.4166
 7305W        W27585  17.838   0.907   1.506 -0.1322  0.1445  0.1108
 7306W        W27586   0.529  10.229   1.087  0.2340 -0.1902 -0.4823
 7307W        W27587   2.411   2.626   2.751  0.0298  0.1914 -0.3564
 7308W        W27588  12.539   4.470  14.698  0.0568 -0.0033 -0.1135
 7309W        W27589  13.575   3.432  11.516  0.0069  0.2249 -0.1151
 7310W        W27590   3.835   8.394  12.990 -0.0156 -0.4279 -0.0537
 7311W        W27591  14.199   0.861  12.651 -0.5288 -0.0797 -0.2691
 7312W        W27592  14.896  14.718  11.524  0.0343  0.1184  0.0107
 7313W        W27593  12.109   2.237   3.747 -0.1614 -0.3171 -0.2722
 7314W        W27594   2.446  17.341   1.303 -0.0349 -0.2511  0.0204
 7315W        W27595   3.200   2.262   1.353  0.0353  0.2459 -0.0544
 7316W        W27596  15.977   8.362   1.022  0.1815 -0.0642  0.0234
 7317W        W27597  14.210   8.776   0.507 -0.1327 -0.1618 -0.0437
 7318W        W27598   7.065  11.516  11.486  0.0173 -0.2773  0.0734
 7319W        W27599   2.111   6.733   4.129  0.1448  0.3381  0.0221
 7320W        W27600   6.296  18.240  10.562  0.1725 -0.1844  0.2271
 7321W        W27601   9.787   9.172   1.394 -0.1707 -0.1547 -0.0615
 7322W        W27602   3.323   3.909   0.031  0.0092 -0.0371 -0.2647
 7323W        W27603  10.396   2.370   2.840 -0.0238  0.0361 -0.1248
 7324W        W27604   3.552  17.248  12.844  0.3091  0.0454 -0.2257
 7325W        W27605  13.659  11.076   3.030 -0.0169 -0.2695 -0.0015
 7326W        W27606   7.588  11.379  11.115 -0.3571 -0.1952 -0.4522
 7327W        W27607  10.947   8.431   0.800 -0.1803  0.1340 -0.1164
 7328W        W27608   8.397   1.532  12.867 -0.2687  0.1199 -0.0382
 7329W        W27609  10.724   7.357   4.255 -0.1598 -0.1339  0.2745
 7330W        W27610  10.079   0.285   2.682 -0.4440 -0.2229  0.4375
 7331W        W27611   5.879  14.866  11.695 -0.0893 -0.0263  0.0991
 7332W        W27612  10.441   7.607  13.065  0.0383  0.0601 -0.0548
 7333W        W27613   3.824  16.810   2.712  0.2087  0.1402  0.1888
 7334W        W27614   0.430   7.623   0.069  0.0172 -0.0065 -0.2779
 7335W        W27615  15.993   5.727  13.317  0.1265  0.3546 -0.0163
 7336W        W27616   0.247  10.714  12.696 -0.0005  0.0454 -0.1636
 7337W        W27617   4.110  10.351  11.251 -0.2783  0.0344  0.0519
 7338W        W27618  14.614  18.548  13.229 -0.3072 -0.0186 -0.0485
 7339W        W27619  13.073  18.498   1.389 -0.1571 -0.2052  0.0975
 7340W        W27620  14.827  11.329   3.537  0.0575  0.0766 -0.1149
 7341W        W27621  12.212   8.096   4.126  0.1042 -0.0567  0.0719
 7342W        W27622  14.155   1.737  13.697  0.0961  0.0894 -0.1536
 7343W        W27623  14.586  13.783   0.648  0.1798 -0.2402 -0.0525
 7344W        W27624   7.732   7.293  14.699 -0.2274 -0.2973  0.0904
 7345W        W27625   6.960   0.807  11.300 -0.0177 -0.0078  0.0597
 7346W        W27626  10.537  13.975   0.036 -0.1168 -0.1074 -0.0763
 7347W        W27627  11.511   7.719  14.166 -0.0161 -0.2108  0.0640
 7348W        W27628  11.564  16.910  14.846 -0.2329 -0.1202 -0.0273
 7349W        W27629  15.158  13.633   2.168 -0.3160 -0.2570 -0.0279
 7350W        W27630  15.711   1.619  11.552 -0.0083 -0.4673 -0.0436
 7351W        W27631   4.205   8.203   3.891 -0.1412 -0.0233  0.0185
 7352W        W27632  16.399   6.246   4.284 -0.1796  0.1628 -0.1558
 7353W        W27633   6.867   5.341   2.344 -0.0073 -0.0221 -0.2191
 7354W        W27634  11.620  16.849   3.196 -0.0156  0.1355  0.2435
 7355W        W27635   9.030  16.908  14.851 -0.0145  0.0592 -0.0115
 7356W        W27636  15.577  18.651   3.914 -0.1765  0.1069  0.0940
 7357W        W27637  15.047   6.243   3.566 -0.0006  0.1146 -0.1883
 7358W        W27638  11.984   7.708  14.331  0.0210 -0.2116 -0.0259
 7359W        W27639  17.374  12.936   1.242 -0.2338  0.0116  0.0237
 7360W        W27640   9.720   0.544  11.735 -0.1947  0.2308 -0.0944
 7361W        W27641  11.557   1.416   2.198  0.0757  0.2854 -0.1939
 7362W        W27642  13.510  16.646   2.130 -0.0302 -0.0507 -0.0652
 7363W        W27643   6.483   9.790  13.542 -0.0374  0.2307 -0.2910
 7364W        W27644  17.328   3.673  10.785 -0.2725 -0.2715  0.1540
 7365W        W27645  12.413   0.696   0.661  0.2245  0.1210 -0.1727
 7366W        W27646  11.387  12.235  13.371  0.0115 -0.3047 -0.1745
 7367W        W27647   4.032  17.714   2.197  0.0287 -0.3008  0.0934
 7368W        W27648   9.914   7.326   1.930 -0.3197  0.0639  0.3325
 7369W        W27649   7.736   6.786  13.549  0.1100  0.0285  0.1837
 7370W        W27650   5.562   4.377   3.186  0.0173 -0.1455  0.1020
 7371W        W27651  16.748   7.629   2.862 -0.1470 -0.2388 -0.0584
 7372W        W27652  12.431   5.564  14.263  0.3010 -0.0694  0.0282
 7373W        W27653  12.976  16.643  15.078  0.1912 -0.1365 -0.1345
 7374W        W27654   6.132  17.601   2.142  0.1581  0.1531 -0.2786
 7375W        W27655   9.238   7.534  15.007  0.0798  0.3224  0.0863
 7376W        W27656   0.830  16.326   2.253 -0.3109  0.2154  0.1856
 7377W        W27657   8.943  12.306   3.133  0.2831  0.1842  0.0707
 7378W        W27658  13.514  12.512  11.506 -0.1023  0.2262  0.1892
 7379W        W27659   9.290   4.123  11.939 -0.0868 -0.1165 -0.1732
 7380W        W27660   3.886   2.610  14.263 -0.1305  0.0040  0.0676
 7381W        W27661   7.963  17.136  14.952 -0.1675  0.0657 -0.0445
 7382W        W27662   7.871  17.905  14.102  0.1113 -0.3290 -0.1232
 7383W        W27663  10.564   4.665  13.996 -0.2340  0.0621  0.0884
 7384W        W27664   1.349  16.118  14.874  0.0279  0.1384  0.1663
 7385W        W27665   5.831   7.681   1.292 -0.2246 -0.2886 -0.1014
 7386W        W27666  11.817  14.050  11.393 -0.2160  0.3411  0.0167
 7387W        W27667  13.891   3.690   0.700 -0.0765 -0.2481  0.0019
 7388W        W27668  14.927  14.913  12.546  0.0666 -0.1823 -0.0326
 7389W        W27669   4.408  12.632   3.496 -0.2939  0.2385 -0.0040
 7390W        W27670  15.565   1.363   1.202 -0.0174 -0.1030 -0.1310
 7391W        W27671  14.487  18.384  11.846  0.0160  0.0382  0.0848
 7392W        W27672  18.276  10.822  13.920 -0.2477  0.1206  0.1102
 7393W        W27673   5.200  13.208  12.839  0.2387  0.2399 -0.2524
 7394W        W27674   4.099   2.164  14.124 -0.2110 -0.1256 -0.0916
 7395W        W27675   6.623  14.495  12.821  0.2132  0.1031  0.0675
 7396W        W27676  16.311   4.852   4.405  0.0606 -0.2291  0.0440
 7397W        W27677   5.572  16.117   2.537 -0.5249  0.0277 -0.0834
 7398W        W27678   6.466   5.978  13.682  0.0366 -0.0606 -0.0860
 7399W        W27679  14.349   0.403  11.223 -0.1131 -0.2255  0.1509
 7400W        W27680  16.225  11.377   1.227 -0.0284 -0.0626 -0.0258
 7401W        W27681   1.240   0.420   2.582 -0.2816  0.3918 -0.1482
 7402W        W27682  10.655   1.656  12.702 -0.0396 -0.1802  0.3370
 7403W        W27683   4.540   0.805  11.072  0.1752  0.3309 -0.0045
 7404W        W27684  16.159   5.695  11.574  0.0885  0.2217  0.0126
 7405W        W27685  17.537   8.908  11.599  0.1202 -0.2913 -0.1375
 7406W        W27686   8.408   8.306   4.469  0.1249  0.0120 -0.2749
 7407W        W27687   8.802  14.143   1.488  0.1305  0.1579 -0.2513
 7408W        W27688   0.340   3.345  14.717  0.2547 -0.2014  0.1790
 7409W        W27689   4.020  10.068   0.153 -0.0072  0.2198  0.2248
 7410W        W27690   8.166  17.695   2.215  0.2657 -0.2775 -0.0105
 7411W        W27691   8.116   8.898   0.656  0.0574  0.0298 -0.0216
 7412W        W27692  11.647   6.248  14.989 -0.3203 -0.2600 -0.1716
 7413W        W27693   4.939   3.620  12.638 -0.0044 -0.2314  0.0948
 7414W        W27694   4.103  15.795   3.596 -0.1971  0.1776  0.0583
 7415W        W27695  11.664   0.508   1.015  0.1999  0.5325 -0.0963
 7416W        W27696  18.162   2.303  14.912  0.2141  0.3271 -0.1137
 7417W        W27697  18.221   2.090   4.264 -0.0966 -0.3037 -0.1503
 7418W        W27698   8.993   7.460   3.982 -0.1259  0.2376 -0.3920
 7419W        W27699  10.270  18.702   3.349 -0.0049  0.1301  0.0801
 7420W        W27700   5.187   7.630  12.426  0.0786 -0.1990 -0.0897
 7421W        W27701   9.022  16.867   0.575 -0.1433  0.5301 -0.1963
 7422W        W27702  13.046   7.977   4.695  0.0010 -0.1924  0.2104
 7423W        W27703   4.201   5.318  12.061  0.0712  0.2561  0.1119
 7424W        W27704   3.208  18.650   1.421  0.0221 -0.2380  0.0713
 7425W        W27705   9.182   6.595   3.038 -0.0932  0.0978 -0.2378
 7426W        W27706  10.330   8.043  13.592 -0.2180  0.0044  0.0354
 7427W        W27707  16.496   7.271   4.004  0.0071  0.2944  0.1740
 7428W        W27708  12.607   7.708  11.320 -0.1112  0.2265 -0.0628
 7429W        W27709  17.126  10.868   4.110  0.0909  0.0237  0.1745
 7430W        W27710  13.850  16.377   1.334  0.1767 -0.3336 -0.1559
 7431W        W27711   1.937   9.435  15.145  0.0677 -0.0902 -0.1780
 7432W        W27712   7.860   2.623  15.259 -0.1535 -0.0498 -0.0725
 7433W        W27713  13.320   2.355   0.098 -0.0409  0.1364  0.0268
 7434W        W27714   1.740  15.063  13.581  0.1871  0.3114  0.0781
 7435W        W27715   7.581  11.061   4.331  0.2687  0.0894  0.2203
 7436W        W27716  18.407  17.064  11.945 -0.1649 -0.0056 -0.1597
 7437W        W27717  18.664   3.584  14.437  0.0146  0.3352 -0.0520
 7438W        W27718   6.700  11.126  11.424 -0.1375 -0.0114 -0.1436
 7439W        W27719  15.067  16.058   1.732  0.3509 -0.3132 -0.4265
 7440W        W27720  17.029   1.642   3.952  0.0311  0.2646  0.2411
 7441W        W27721   1.269  17.094  13.314 -0.0807  0.0550  0.1310
 7442W        W27722   3.127   1.795  12.824  0.1465 -0.0757 -0.0269
 7443W        W27723   1.566   4.929   2.071 -0.1198 -0.2594 -0.0290
 7444W        W27724   3.916  15.697  13.598 -0.0384  0.3158 -0.0581
 7445W        W27725  12.000  10.980   1.073 -0.1912  0.2084  0.0965
 7446W        W27726  12.142   1.801   0.526  0.2876  0.0810 -0.0120
 7447W        W27727   5.135  17.214   5.061  0.2678  0.0612  0.3942
 7448W        W27728  18.601  13.508  14.191 -0.1591 -0.1363 -0.1863
 7449W        W27729   2.652  10.131   2.099  0.1903  0.0741 -0.1229
 7450W        W27730   5.262   3.185   0.576  0.0098  0.1081  0.0481
 7451W        W27731   1.796  16.236   2.605 -0.2238 -0.0646  0.1245
 7452W        W27732   0.372  10.827   3.629  0.0110 -0.2446 -0.1538
 7453W        W27733   9.428  15.748   0.945  0.0383  0.2199  0.0730
 7454W        W27734  13.400  10.402   0.009  0.1236 -0.2169  0.0034
 7455W        W27735   2.663  11.680   1.670  0.1683  0.2534  0.0171
 7456W        W27736  15.188  14.888   3.488 -0.0628 -0.2579  0.3557
 7457W        W27737   4.524  16.521  14.240 -0.1184 -0.0609  0.1683
 7458W        W27738  14.194  14.567  11.775  0.1323 -0.2198 -0.0231
 7459W        W27739   3.871   7.604  15.121 -0.1026 -0.1792 -0.1943
 7460W        W27740  10.084   5.830   3.680 -0.4058  0.0848  0.1590
 7461W        W27741  16.387   9.452   4.913 -0.1966  0.1916 -0.1165
 7462W        W27742   0.294  11.968  14.327 -0.0079  0.3185 -0.0890
 7463W        W27743  10.922   2.140   1.161 -0.2217  0.0228  0.0402
 7464W        W27744   9.242  15.990  13.680  0.1338  0.0964  0.0104
 7465W        W27745   1.910   6.283  11.072  0.2188 -0.0395 -0.0996
 7466W        W27746  10.118   6.354   3.628 -0.1345  0.1791 -0.0894
 7467W        W27747   7.112   4.962   3.735  0.1930  0.0836  0.2338
 7468W        W27748   1.530   8.184   1.870  0.0763 -0.1361  0.2459
 7469W        W27749   4.734   7.506   4.146 -0.2235 -0.0742  0.1813
 7470W        W27750  11.616   4.826   2.173 -0.1659  0.1081  0.3190
 7471W        W27751   1.161  17.296   3.546 -0.1245  0.0291  0.6188
 7472W        W27752   1.319   1.383   1.501  0.1252 -0.2847  0.0662
 7473W        W27753   1.859   9.989   1.217 -0.2491  0.0308  0.2084
 7474W        W27754   7.202  12.238   1.134  0.0932  0.0617  0.0330
 7475W        W27755  18.344   5.998  10.847  0.0217  0.0498 -0.1363
 7476W        W27756  13.663  17.124  13.053  0.2586  0.2127  0.0887
 7477W        W27757   3.071  14.904  14.778  0.6167 -0.0630 -0.1717
 7478W        W27758  15.169  15.148  14.168 -0.0682  0.0435  0.3447
 7479W        W27759   6.714   7.750  12.536  0.0011 -0.4637 -0.1527
 7480W        W27760  15.706   3.958  14.534 -0.0421  0.0613  0.0943
 7481W        W27761   8.544  16.960   2.612  0.2131  0.0772  0.0231
 7482W        W27762   2.714  11.898   4.159  0.0103  0.1150  0.3201
 7483W        W27763  13.068   5.636   0.995 -0.1536 -0.0254 -0.2114
 7484W        W27764  11.751  13.057   4.632 -0.2296 -0.2526 -0.0213
 7485W        W27765  16.161   3.635  15.107 -0.1205 -0.0564 -0.2422
 7486W        W27766  12.891   5.192  13.383  0.0286  0.0066 -0.1548
 7487W        W27767   1.963   4.770   1.897 -0.2367 -0.0563  0.1190
 7488W        W27768   7.367   0.905  12.330  0.0062 -0.1668 -0.0187
 7489W        W27769  14.505   2.921  15.139  0.1232 -0.1906 -0.0551
 7490W        W27770  15.057  15.630  13.897  0.2936  0.4018  0.0650
 7491W        W27771  16.691   4.297   5.074  0.0086  0.0970  0.0667
 7492W        W27772  14.004   5.025   0.788 -0.0329 -0.0589 -0.0588
 7493W        W27773  14.358  11.976   0.488 -0.3774  0.1098  0.2442
 7494W        W27774   4.138   6.534  14.720 -0.3669 -0.1056 -0.1523
 7495W        W27775   4.520  17.661   2.282 -0.0960  0.1273 -0.4705
 7496W        W27776  14.524   3.647  13.963  0.0403 -0.0942 -0.2805
 7497W        W27777  10.983  15.390  11.351 -0.1998  0.3840  0.3011
 7498W        W27778   6.834   4.068  15.156  0.0649  0.1808 -0.1948
 7499W        W27779  18.745  13.406   1.503 -0.0603 -0.1801 -0.2649
 7500W        W27780  10.944  12.472  13.592 -0.0957  0.2719  0.0234
 7501W        W27781  10.932   5.028  12.933 -0.1137 -0.0329  0.0636
 7502W        W27782   5.447  13.882   2.450 -0.0927 -0.1393  0.1301
 7503W        W27783   5.731  17.432  15.265 -0.2727  0.1564  0.1994
 7504W        W27784  16.804  12.532   2.785 -0.1034  0.0785 -0.1321
 7505W        W27785   0.779   2.370   0.664 -0.0023 -0.3163 -0.1276
 7506W        W27786   6.322  10.798  14.178  0.1075 -0.0136 -0.0185
 7507W        W27787   1.717   8.510   1.485 -0.0532 -0.0334  0.1834
 7508W        W27788  14.378   1.361   2.477  0.1282 -0.0086 -0.1085
 7509W        W27789   3.029  17.287   0.047  0.0706 -0.1055 -0.1149
 7510W        W27790   5.034  11.198   1.352  0.1960  0.2452 -0.1940
 7511W        W27791   8.966  18.219  14.414 -0.0410 -0.2078 -0.0922
 7512W        W27792  10.556  16.068  11.861  0.0992  0.1601 -0.4127
 7513W        W27793  11.922   5.708   0.899 -0.0748 -0.0286  0.1321
 7514W        W27794   7.693   9.382   3.967  0.3202  0.1969 -0.0186
 7515W        W27795  10.697  10.267   1.061 -0.3958 -0.1655 -0.1202
 7516W        W27796  16.460  15.297  14.669 -0.3515  0.0605  0.2528
 7517W        W27797  16.857  11.019  13.234  0.0216  0.0368 -0.0818
 7518W        W27798   9.871   7.949   2.190 -0.1634  0.4344  0.1005
 7519W        W27799  15.067   3.494  13.099 -0.2361 -0.4586  0.0692
 7520W        W27800  18.159  14.029   1.789  0.1358  0.0332  0.5849
 7521W        W27801   3.525   0.319   3.522  0.1334  0.3116  0.1690
 7522W        W27802  18.293  15.844  12.542 -0.0666 -0.2117 -0.3487
 7523W        W27803   6.166   4.634  11.928 -0.0896  0.0193  0.1190
 7524W        W27804  14.004   0.058  10.086  0.0129 -0.1805  0.0044
 7525W        W27805  16.458  11.075  12.261  0.2997  0.1464  0.1937
 7526W        W27806   0.773   8.240   2.231 -0.0482  0.0352  0.0143
 7527W        W27807   5.294   1.841   2.164  0.2823 -0.0892  0.1025
 7528W        W27808   4.271   0.584   3.270  0.1850 -0.3926  0.0277
 7529W        W27809  14.738   9.514  14.732  0.1895  0.2200 -0.1531
 7530W        W27810   5.618   4.842   1.743  0.0687 -0.1038  0.1712
 7531W        W27811   5.096   8.805   1.797 -0.0247  0.2694 -0.2590
 7532W        W27812  12.003  12.253  10.912  0.0850 -0.3113 -0.0267
 7533W        W27813   4.994  16.563  14.486 -0.3028 -0.0083 -0.0607
 7534W        W27814   3.261  11.635  15.099  0.2000  0.2013  0.1938
 7535W        W27815   4.536  16.693  11.727  0.0561 -0.1246 -0.0134
 7536W        W27816   4.539  17.528   3.010 -0.3518  0.0734  0.1775
 7537W        W27817  12.005   8.559  13.952  0.2475  0.0451  0.2265
 7538W        W27818   0.158   6.997   1.629  0.1253  0.0364  0.0995
 7539W        W27819   1.591   6.311  13.332 -0.1427 -0.2219 -0.0355
 7540W        W27820  15.167   5.317  13.679 -0.1094  0.1487 -0.0899
 7541W        W27821  13.311   2.476   1.908 -0.1931  0.3184  0.1594
 7542W        W27822  12.811   7.262  11.374  0.0199  0.2453  0.1067
 7543W        W27823  17.714   4.072   3.025  0.2263  0.2141 -0.2225
 7544W        W27824  18.116  15.017   0.288 -0.2563 -0.0375  0.0009
 7545W        W27825  10.395  10.516  10.455  0.0213 -0.1214  0.1663
 7546W        W27826  15.472   2.003   0.277 -0.1137 -0.2653  0.5226
 7547W        W27827  17.625  16.057   1.258 -0.1240 -0.1422  0.0364
 7548W        W27828  14.151  10.262  12.651 -0.0147 -0.0652  0.0055
 7549W        W27829   8.149   0.481   2.248 -0.1788  0.0319 -0.1828
 7550W        W27830   7.031  16.082   3.355 -0.0350  0.1185  0.1679
 7551W        W27831   4.277  12.863   4.503 -0.1784  0.2651 -0.0542
 7552W        W27832   2.953  17.040   3.554 -0.2278 -0.0960 -0.1955
 7553W        W27833  13.965   4.960  12.342 -0.1625  0.0843  0.0640
 7554W        W27834   5.288   9.770  12.590  0.0828  0.1033  0.1579
 7555W        W27835   5.612  15.349  13.344 -0.1943  0.3912  0.0357
 7556W        W27836   8.173   6.686   1.549 -0.2234  0.0083 -0.1599
 7557W        W27837   8.792   7.101  10.830 -0.0014 -0.1368  0.0422
 7558W        W27838   8.095  17.379   3.107  0.2359 -0.2686  0.2121
 7559W        W27839   0.996  14.845  12.510 -0.0384  0.2011 -0.1164
 7560W        W27840  15.057  14.458   3.550  0.1862  0.1726  0.0016
 7561W        W27841  14.700  16.398  11.215  0.1181  0.1355 -0.0581
 7562W        W27842   9.430   1.220  15.334  0.2761 -0.0318  0.0955
 7563W        W27843   2.798  12.000  15.108  0.1582  0.0638  0.1863
 7564W        W27844  13.747  16.467   3.031  0.0809  0.1475 -0.0995
 7565W        W27845   9.796  11.490  11.450 -0.2360 -0.0762  0.0651
 7566W        W27846   6.728   9.621  11.485  0.1727  0.2417  0.2029
 7567W        W27847  16.854   8.868  13.098 -0.3338 -0.0299 -0.0597
 7568W        W27848   4.383  15.039  13.126 -0.0641 -0.0354  0.0487
 7569W        W27849   5.617   9.546  12.891 -0.0038 -0.1453 -0.0424
 7570W        W27850   3.873   9.509  15.227 -0.0562  0.1232  0.2308
 7571W        W27851  13.934   6.264   1.761  0.0572 -0.2220 -0.2597
 7572W        W27852   9.093   9.211  14.125 -0.0314  0.0022  0.0119
 7573W        W27853   0.914   0.797  12.882 -0.1128 -0.1751  0.0943
 7574W        W27854   9.722  13.076  12.129 -0.2778 -0.1370 -0.1349
 7575W        W27855   4.814   7.095   2.880  0.1736  0.3772  0.2268
 7576W        W27856  18.488   2.552   4.203 -0.1217  0.1139  0.0426
 7577W        W27857   3.154   2.568  10.596  0.0998  0.2972  0.2759
 7578W        W27858   2.448   6.944  12.223 -0.0574 -0.1179 -0.2967
 7579W        W27859   0.082  11.719  11.613 -0.1117  0.2171 -0.2809
 7580W        W27860   9.985  18.689  10.893  0.2151  0.1047  0.2420
 7581W        W27861  17.293  11.872   0.169  0.2259 -0.0197 -0.1066
 7582W        W27862  17.404   3.903  11.901 -0.1546 -0.0607  0.0861
 7583W        W27863  15.906  10.586  12.449 -0.0319  0.0187  0.0871
 7584W        W27864   3.623   7.798  14.621  0.2228  0.2718  0.1600
 7585W        W27865   6.553  16.573  11.821 -0.1069  0.0096 -0.2739
 7586W        W27866   0.073   6.267  11.891  0.3705  0.1150 -0.0927
 7587W        W27867  14.038  12.875   3.044 -0.1559 -0.1577 -0.1608
 7588W        W27868  16.146   5.233   1.811  0.1416  0.0527  0.0051
 7589W        W27869   5.595   4.179   3.618 -0.1306  0.0849  0.0403
 7590W        W27870  12.990  14.998   3.938 -0.0411 -0.0457 -0.3296
 7591W        W27871   6.203   5.699   2.842  0.0722 -0.0809 -0.0483
 7592W        W27872  16.742   7.511  12.734 -0.0018 -0.3284 -0.2445
 7593W        W27873  18.548  13.708   3.601  0.1893  0.3732  0.1578
 7594W        W27874   3.265   0.512   1.513  0.2741 -0.0650  0.0771
 7595W        W27875   6.924   3.122  10.219 -0.1373 -0.1406 -0.2924
 7596W        W27876  18.430  11.484   3.088 -0.2624 -0.2438  0.1144
 7597W        W27877   0.190  18.157   3.693 -0.1974 -0.0172  0.1882
 7598W        W27878   6.521  17.355  11.424  0.1061  0.0738  0.0397
 7599W        W27879   0.246  10.802  12.158 -0.1796 -0.1286 -0.0271
 7600W        W27880  18.641  12.742   4.536  0.1084  0.0682 -0.1391
 7601W        W27881  11.900  17.306   3.069  0.1269  0.0370 -0.1415
 7602W        W27882   3.832  17.457   3.746 -0.0155 -0.2496  0.0465
 7603W        W27883  10.336   6.866   2.428  0.1095 -0.0998 -0.1775
 7604W        W27884   3.040   0.853   3.864 -0.2528 -0.0210 -0.0974
 7605W        W27885   6.858  17.909  12.855  0.0037 -0.1188  0.0614
 7606W        W27886   5.983  14.325   0.113  0.0372  0.3027 -0.3284
 7607W        W27887   5.428   6.498  14.166 -0.0120 -0.0717 -0.0426
 7608W        W27888   3.481   1.352   2.666  0.1938  0.1675  0.0625
 7609W        W27889  10.587   0.553  14.182 -0.3516 -0.1785  0.0345
 7610W        W27890  13.696   3.265   1.866 -0.1759  0.0172  0.0689
 7611W        W27891  10.926  11.572  11.614 -0.2870 -0.2498  0.1081
 7612W        W27892   5.877  16.184  10.785  0.1502  0.0522  0.0546
 7613W        W27893   8.164   9.699  11.185  0.0746 -0.0488 -0.2511
 7614W        W27894   8.344   6.418   0.094  0.0443 -0.1348 -0.2575
 7615W        W27895   3.637   3.004  13.045 -0.1478  0.0453 -0.3166
 7616W        W27896   8.474  12.576   3.941  0.0457 -0.4551  0.0099
 7617W        W27897   5.620  18.360  14.896  0.1504  0.1077 -0.0460
 7618W        W27898  14.167  11.365   4.149  0.1847 -0.1872 -0.0460
 7619W        W27899  10.730   1.388   1.847  0.2442 -0.0097  0.2123
 7620W        W27900   8.185  13.378  12.928 -0.3414 -0.1769  0.2733
 7621W        W27901   2.533  10.892  11.859  0.0931 -0.3014  0.2133
 7622W        W27902   6.646   5.815  11.602  0.0358 -0.0643  0.4563
 7623W        W27903  15.396  11.625  12.950 -0.0511 -0.3256 -0.4940
 7624W        W27904   3.772  16.591   0.708  0.0821 -0.0270 -0.0566
 7625W        W27905  15.854  15.652  12.089  0.0245 -0.3130  0.1012
 7626W        W27906  13.422  12.490  13.412 -0.0119  0.2424 -0.5481
 7627W        W27907   4.301   7.538  12.551 -0.0183 -0.0206  0.0627
 7628W        W27908  12.132   7.481   1.042  0.0346 -0.0127 -0.1002
 7629W        W27909   2.401  10.048  11.359  0.0521  0.4031  0.1568
 7630W        W27910  16.666   3.158  10.888 -0.3013  0.0376 -0.1469
 7631W        W27911  16.849   8.048  12.487 -0.0173 -0.0408 -0.3004
 7632W        W27912  11.295   2.346   0.031 -0.0275 -0.1281 -0.1872
 7633W        W27913   8.391  11.757   0.821  0.1220  0.1033  0.0898
 7634W        W27914   6.853   4.897   0.248  0.2784  0.3574 -0.1752
 7635W        W27915   6.229  12.843  12.858 -0.2770 -0.0622 -0.2128
 7636W        W27916  13.236  17.127  13.447 -0.1539  0.0879 -0.0422
 7637W        W27917  13.293   0.985  13.479  0.0420 -0.1263  0.1482
 7638W        W27918  13.267   4.520   4.809  0.2020  0.2153  0.2747
 7639W        W27919  12.158  16.158   4.619  0.0153 -0.3897  0.0578
 7640W        W27920  11.853  18.277   3.136 -0.0572  0.1597 -0.0490
 7641W        W27921   0.189  12.560   4.153 -0.2347  0.1689  0.1261
 7642W        W27922  13.621   7.464   2.346  0.2960  0.1192  0.2033
 7643W        W27923  10.498   2.030  13.031 -0.3606 -0.4831 -0.1967
 7644W        W27924  12.431  17.324  13.369  0.2737 -0.0597  0.0598
 7645W        W27925  12.664   6.745  14.986 -0.6013  0.0307 -0.1224
 7646W        W27926  12.295   0.974  12.307  0.1888 -0.0174 -0.0155
 7647W        W27927   3.843  12.177   0.255 -0.1907  0.1914  0.0228
 7648W        W27928  16.547   1.448   3.741  0.0211 -0.0276 -0.1924
 7649W        W27929  15.151   1.696   1.237  0.2093  0.4053 -0.1645
 7650W        W27930  17.161   5.457   2.301  0.5315 -0.2940  0.1439
 7651W        W27931  15.616  17.099   0.504 -0.2582 -0.2305  0.0399
 7652W        W27932  13.297   2.333   2.753 -0.1318  0.0447  0.0906
 7653W        W27933   3.391   9.246   3.776  0.1784  0.2456  0.1235
 7654W        W27934   4.118  18.700   0.368  0.2127 -0.2682 -0.0878
 7655W        W27935   9.436   5.839  15.072 -0.1702 -0.0968 -0.2191
 7656W        W27936   9.889  15.316  14.795 -0.1676 -0.2208 -0.1689
 7657W        W27937  14.048   0.151   1.175 -0.0531 -0.0163 -0.0829
 7658W        W27938   6.893  18.101  14.937  0.2992  0.0108 -0.0175
 7659W        W27939  16.902  14.232  12.481 -0.2493  0.1075 -0.4687
 7660W        W27940  12.292   3.018   0.942  0.1084  0.1751  0.3122
 7661W        W27941  13.988   3.425   3.030 -0.1889 -0.2554  0.2603
 7662W        W27942   3.859   3.503  13.271 -0.0540  0.2842 -0.0228
 7663W        W27943  11.438  13.028  14.982  0.3278  0.1113  0.0300
 7664W        W27944  14.899   9.583  14.118  0.0435  0.0976  0.0569
 7665W        W27945  16.807   0.852  13.913  0.1880  0.0802  0.0611
 7666W        W27946   6.998   7.709   2.737  0.3184 -0.2844  0.0797
 7667W        W27947  16.642  17.935  14.627 -0.1652  0.2668 -0.1776
 7668W        W27948   2.022   5.335   1.241  0.0690 -0.1808  0.0865
 7669W        W27949  14.445  13.122   2.231 -0.2316 -0.0062  0.0031
 7670W        W27950   2.082   8.994   2.264  0.1449 -0.3081  0.0046
 7671W        W27951  16.763  18.562   2.199  0.1011 -0.0911 -0.2008
 7672W        W27952  11.315   6.127  15.333 -0.0264 -0.0162  0.2145
 7673W        W27953   1.207   8.236  14.995  0.0846 -0.2914  0.0399
 7674W        W27954   2.795   7.600   2.007 -0.0956  0.2392 -0.2750
 7675W        W27955   7.553  17.985   1.783 -0.0080  0.1261  0.0102
 7676W        W27956   5.825  10.392  12.137 -0.2109  0.1415 -0.1439
 7677W        W27957  11.957   1.403  12.087 -0.0056  0.0914 -0.2703
 7678W        W27958   9.226  15.150   1.768  0.2867  0.1001  0.0699
 7679W        W27959  10.381   4.860   0.803 -0.0798  0.0570  0.0040
 7680W        W27960  15.275  13.530  12.291 -0.0596 -0.1404  0.3290
 7681W        W27961   4.558   3.771   1.019  0.0690 -0.0057 -0.0423
 7682W        W27962   4.275   2.321  14.553 -0.0342  0.1016  0.4003
 7683W        W27963   8.169   3.345  12.140  0.2391 -0.1640  0.1008
 7684W        W27964   8.276   4.202   2.190  0.4452  0.2353  0.0649
 7685W        W27965  10.308  12.777   3.528 -0.2919 -0.3809 -0.0182
 7686W        W27966   9.676   8.158  13.065 -0.2400  0.0645 -0.1031
 7687W        W27967   8.298  15.840  12.591  0.3890  0.0907 -0.1693
 7688W        W27968   6.047  17.650   0.616 -0.1109 -0.0180  0.0589
 7689W        W27969   5.441  13.085  11.828 -0.2418 -0.0391 -0.2022
 7690W        W27970   4.302  13.296  12.455 -0.0868  0.2716 -0.0895
 7691W        W27971  13.321   3.570  13.252 -0.1831  0.0418 -0.2068
 7692W        W27972  10.932   3.769  12.264  0.1381  0.1288  0.1718
 7693W        W27973   1.849   5.450   2.109 -0.2239  0.0787 -0.2179
 7694W        W27974  16.452   1.028   3.198  0.0576 -0.0797 -0.0799
 7695W        W27975   4.986   8.863  12.173 -0.3278 -0.1365  0.0098
 7696W        W27976  15.782  17.541   1.861  0.4048  0.0745  0.0345
 7697W        W27977  15.329   4.560   2.859 -0.0409  0.2694 -0.0902
 7698W        W27978   0.612   1.021  13.712 -0.3014 -0.0270 -0.0380
 7699W        W27979   6.260   7.551   0.695 -0.1132  0.2575 -0.6246
 7700W        W27980  12.483   6.718  13.473  0.1825 -0.1698 -0.1055
 7701W        W27981  13.681  18.550   0.809 -0.0996 -0.3011 -0.0964
 7702W        W27982   7.888  16.483   3.124 -0.0353 -0.1192 -0.1562
 7703W        W27983  13.207  12.727  15.387 -0.2478  0.0741  0.2471
 7704W        W27984  14.663   7.684  11.276  0.0138 -0.1995  0.1819
 7705W        W27985  17.795   8.647   0.126 -0.2502 -0.3457  0.1041
 7706W        W27986   7.379  12.941   2.646 -0.0836  0.0440  0.2306
 7707W        W27987   6.792  16.099  14.405  0.0812 -0.0959  0.1507
 7708W        W27988   4.457  17.319  14.472 -0.1498  0.1236  0.1081
 7709W        W27989  17.848  13.830  13.781 -0.0326  0.2849  0.1217
 7710W        W27990   7.779  16.323  11.824  0.3135  0.2603 -0.1720
 7711W        W27991  12.970   0.385  11.873  0.2912  0.0583  0.1795
 7712W        W27992   5.478  10.249   3.379  0.0077 -0.3256 -0.1882
 7713W        W27993   8.127   5.540  14.054 -0.0303 -0.1860  0.1197
 7714W        W27994  14.892  13.283   0.311 -0.0152  0.1222 -0.3347
 7715W        W27995   3.302   6.474   1.941  0.2221  0.0734  0.0809
 7716W        W27996   6.627  10.866  15.049  0.0180 -0.0776  0.0218
 7717W        W27997   0.356   0.492   2.786  0.3365  0.3343  0.0848
 7718W        W27998   3.297  13.099  12.237 -0.1820  0.0440 -0.2722
 7719W        W27999  11.332   0.685   2.856 -0.0090 -0.4265 -0.1156
 7720W        W28000  10.192   7.554   3.527  0.0865 -0.2217 -0.1250
 7721W        W28001  17.923   9.003  15.106  0.1418  0.0922  0.2928
 7722W        W28002  14.516  10.779  15.356 -0.0731 -0.0240 -0.4695
 7723W        W28003  10.106  13.734  11.676 -0.2443 -0.0014  0.1105
 7724W        W28004  11.114   9.951  14.924 -0.2061  0.1423 -0.0340
 7725W        W28005   3.302  14.200  12.629  0.1239  0.1243 -0.0316
 7726W        W28006  16.633  12.845   1.807 -0.3619 -0.0215 -0.1170
 7727W        W28007   8.502  16.082   2.364  0.1145  0.1030  0.1777
 7728W        W28008  16.532   5.394  12.831  0.4015  0.2600  0.0936
 7729W        W28009  10.761  10.927  13.192 -0.2457 -0.0819  0.1133
 7730W        W28010  14.523  10.334   1.700  0.0578 -0.0018  0.0948
 7731W        W28011   7.588  13.966  14.693 -0.0762  0.2421 -0.1314
 7732W        W28012   5.428  10.846   1.564  0.0753 -0.0749  0.0582
 7733W        W28013   4.952  11.285   0.426 -0.1304 -0.0093 -0.0582
 7734W        W28014   5.317  12.058  13.771  0.2135 -0.3071 -0.0999
 7735W        W28015   4.367   2.579   3.586  0.2920  0.1248 -0.0263
 7736W        W28016   7.916   2.069  11.201  0.0353  0.1513 -0.0914
 7737W        W28017  13.621   5.261  13.519  0.0187 -0.1633 -0.0027
 7738W        W28018  10.325  12.425   3.894 -0.2514  0.0247  0.0233
 7739W        W28019  13.212  14.343   2.295 -0.0305 -0.1305  0.0978
 7740W        W28020   2.938   6.865  12.406  0.0946 -0.0833  0.2824
 7741W        W28021  17.925  15.051  14.832 -0.1977 -0.0045  0.1266
 7742W        W28022   5.756  16.712   3.808  0.2081  0.1313 -0.1037
 7743W        W28023   9.830  12.559  12.574  0.0850  0.0491 -0.3224
 7744W        W28024  15.494   9.953   3.698  0.1091 -0.1120 -0.0912
 7745W        W28025   1.247   5.323  12.531 -0.0831  0.2186  0.0667
 7746W        W28026  15.240  15.653  11.538  0.2194  0.2940  0.0213
 7747W        W28027  17.944   7.472  12.653  0.2186 -0.1545  0.0027
 7748W        W28028   3.410  11.965   2.565  0.2142 -0.0815  0.0399
 7749W        W28029  15.881  11.771   0.500  0.0632 -0.1840  0.3112
 7750W        W28030  16.961  11.439  14.617  0.2741 -0.1009 -0.1485
 7751W        W28031   5.362  17.135   0.678  0.0492 -0.0878  0.2496
 7752W        W28032  15.396  16.873  15.061 -0.0607 -0.2077  0.0943
 7753W        W28033  15.404  13.674  15.010  0.1313 -0.1213  0.1736
 7754W        W28034   7.412  11.603   4.298 -0.2525  0.0835  0.0945
 7755W        W28035   0.439  17.876  12.124 -0.2911 -0.1760  0.1220
 7756W        W28036   7.979  16.291  14.791  0.0761  0.2243 -0.1974
 7757W        W28037   3.313   9.607   0.383 -0.0485 -0.4571  0.1781
 7758W        W28038  11.604  14.109   4.123  0.1424 -0.0990 -0.1405
 7759W        W28039   8.857  17.488   1.235  0.1167 -0.2847 -0.0166
 7760W        W28040   9.344   8.588  14.854 -0.0432 -0.0541  0.0529
 7761W        W28041  11.107   0.608  12.394  0.1421  0.3296  0.3010
 7762W        W28042  17.338   4.995  12.936  0.0796 -0.0970  0.0365
 7763W        W28043   3.635   8.779   0.260  0.0839  0.0923  0.0354
 7764W        W28044   8.274  15.870   4.278 -0.1053 -0.1905  0.0824
 7765W        W28045  13.918   5.204   2.184 -0.0550  0.0697  0.1980
 7766W        W28046  14.260  17.728  10.963 -0.1917 -0.2204  0.2555
 7767W        W28047  15.174  10.550  14.517 -0.2519  0.1810  0.0134
 7768W        W28048  12.076  12.301   3.564 -0.0072  0.0218 -0.3821
 7769W        W28049   1.869  16.266   2.084 -0.3469  0.3038  0.0928
 7770W        W28050   7.894  13.155  11.825  0.2358  0.0476 -0.1129
 7771W        W28051  17.642  13.607  14.676 -0.1144  0.0553  0.2502
 7772W        W28052  10.189   4.440   2.650 -0.0506 -0.1394 -0.2502
 7773W        W28053   7.256   5.776   1.520 -0.0311  0.1630 -0.0295
 7774W        W28054   0.504  11.311   1.560 -0.0227 -0.0718  0.4126
 7775W        W28055  17.819  18.094  14.919  0.2506 -0.3075 -0.0370
 7776W        W28056   0.500  15.124   1.774  0.1019 -0.0256  0.1803
 7777W        W28057  12.223   6.305  13.982 -0.1845  0.0397  0.1027
 7778W        W28058   2.571   3.050  11.021  0.3881 -0.1332  0.1372
 7779W        W28059  18.624  10.755   1.936  0.1643 -0.0873 -0.0320
 7780W        W28060  10.456  17.579   0.080 -0.3160 -0.1027 -0.0922
 7781W        W28061   1.355  12.849   5.586 -0.2230 -0.0048  0.1248
 7782W        W28062   7.538  14.772  15.184  0.0780 -0.0020 -0.0755
 7783W        W28063   4.149  15.252  13.529 -0.2693  0.0691 -0.1388
 7784W        W28064  16.822   3.865   0.547  0.1397 -0.0277 -0.0548
 7785W        W28065   7.796  15.081   0.552  0.0836  0.1190  0.3366
 7786W        W28066  16.935  15.850   4.702 -0.0463 -0.1460 -0.0702
 7787W        W28067   9.014  12.459   0.585  0.1116  0.1507 -0.3017
 7788W        W28068  10.174  16.844  12.815  0.0923  0.2749 -0.0611
 7789W        W28069  14.793   7.470   5.973 -0.1255 -0.0521 -0.0137
 7790W        W28070  17.628   2.432   0.201 -0.0247  0.1777 -0.2151
 7791W        W28071   3.962   1.144   3.220 -0.0189 -0.1029 -0.1069
 7792W        W28072  14.923  13.081   3.112  0.1591 -0.0602  0.0329
 7793W        W28073   7.351  17.468   3.215 -0.0514 -0.1973 -0.1567
 7794W        W28074  14.379   8.304   4.711  0.0913  0.0332 -0.3022
 7795W        W28075  16.753   9.210   0.763  0.0941 -0.2081 -0.0097
 7796W        W28076   0.778  12.324  11.599 -0.1230  0.0232 -0.1010
 7797W        W28077  15.647   1.522   2.460  0.0057  0.0067 -0.2020
 7798W        W28078  14.768   6.418   0.760  0.1979  0.0560 -0.0040
 7799W        W28079  13.572   1.013  13.076  0.0541  0.0887  0.1184
 7800W        W28080   1.749  18.426   0.947 -0.0346  0.1480 -0.1117
 7801W        W28081   5.743  17.982   0.239 -0.2343 -0.0688 -0.1267
 7802W        W28082  10.202  14.896   0.983  0.1990  0.1072  0.0072
 7803W        W28083  13.145   4.586  13.965 -0.0153 -0.1347  0.1245
 7804W        W28084  11.367  10.551  12.543  0.1972  0.2861  0.0241
 7805W        W28085   6.884   8.984  13.035  0.0988  0.2727 -0.0047
 7806W        W28086   7.532   1.409   1.287 -0.2418  0.2181  0.0989
 7807W        W28087  11.212   6.625  14.982  0.2746  0.1609 -0.1633
 7808W        W28088   3.447  10.333  14.447 -0.1704 -0.2335 -0.1142
 7809W        W28089  12.748   4.874  14.923 -0.0249 -0.0427 -0.0667
 7810W        W28090  10.668   1.308  14.839  0.1623  0.0885  0.0427
 7811W        W28091   6.598  11.474   1.398  0.1966 -0.0359  0.0019
 7812W        W28092  10.141  12.870   2.248  0.2493 -0.1032  0.1132
 7813W        W28093  13.384   5.095   3.924 -0.1326  0.3033  0.0806
 7814W        W28094  10.659   9.663   1.174 -0.0375  0.1740 -0.0443
 7815W        W28095   4.293   7.164   3.553 -0.0355 -0.1075  0.0253
 7816W        W28096   3.017  14.586   3.179  0.1403 -0.1335  0.0984
 7817W        W28097   7.138   2.817   0.290 -0.3122 -0.0645 -0.1876
 7818W        W28098   4.772   7.361   2.492 -0.0255 -0.0042  0.4442
 7819W        W28099  13.045  15.643   0.486 -0.0591 -0.0688  0.2576
 7820W        W28100   9.237  10.479   4.232 -0.2859  0.2695 -0.2908
 7821W        W28101   3.491  11.110   3.948  0.2900  0.0934 -0.1511
 7822W        W28102  17.581   9.098  14.201 -0.0376  0.0449 -0.0591
 7823W        W28103  15.985   5.302  13.594  0.1956  0.0844 -0.0667
 7824W        W28104  11.105  12.793   2.416  0.0524  0.4206  0.3311
 7825W        W28105   6.830  12.181  11.911  0.0908 -0.2504 -0.1795
 7826W        W28106  12.790   9.179  13.080 -0.0408  0.1613 -0.1053
 7827W        W28107   3.535   0.347  14.395  0.0876  0.4280 -0.2770
 7828W        W28108   7.081  15.586  13.100 -0.1713  0.2023  0.0343
 7829W        W28109   6.651  17.661   0.281  0.2376  0.3137  0.2661
 7830W        W28110  14.367   5.431   1.984  0.4363  0.0060 -0.3835
 7831W        W28111  10.228  14.774  11.705  0.1782 -0.3117 -0.3091
 7832W        W28112   0.531  15.344   1.288  0.1681 -0.1416 -0.0431
 7833W        W28113   2.392  18.530  15.084  0.2266 -0.3622  0.2984
 7834W        W28114   5.903   9.838   2.410 -0.3411 -0.0521  0.1192
 7835W        W28115   9.614   8.321   2.406  0.1960 -0.1213 -0.3511
 7836W        W28116  16.097  18.372   2.023 -0.1479  0.2355  0.3562
 7837W        W28117   0.639  10.570   1.425 -0.0544  0.1412  0.1726
 7838W        W28118  12.422   4.060  12.800 -0.1305 -0.0115 -0.0095
 7839W        W28119   4.989   8.233   2.582  0.1331  0.3606 -0.0273
 7840W        W28120   8.623  16.299  13.566  0.0662  0.1019  0.0794
 7841W        W28121   1.147  16.129   1.839 -0.1073  0.0234  0.0034
 7842W        W28122  13.188   9.540  13.046 -0.0415  0.0233  0.0406
 7843W        W28123  12.221   9.576   0.897  0.2817 -0.0546 -0.2346
 7844W        W28124   8.530   4.358   2.567  0.0008 -0.1524  0.1927
 7845W        W28125  13.483  12.144   5.402  0.1448  0.2984  0.1584
 7846W        W28126   3.329  14.820  13.785  0.0200  0.1798 -0.0088
 7847W        W28127   6.630   9.907  14.029 -0.0618 -0.3103 -0.1696
 7848W        W28128  18.300   2.109   5.471  0.0548 -0.0212 -0.1535
 7849W        W28129   5.353  15.501   3.480  0.1120  0.1332 -0.0306
 7850W        W28130  14.387   2.545   1.014 -0.0642  0.1890 -0.0354
 7851W        W28131  14.924  13.739  12.582  0.1949 -0.2618  0.1912
 7852W        W28132   5.877  16.748  10.728 -0.0965  0.0986 -0.2523
 7853W        W28133  14.588   8.893  13.460  0.0495  0.1070 -0.0456
 7854W        W28134   6.840   1.116  11.723 -0.3731  0.3673 -0.4417
 7855W        W28135   4.004   4.003   2.746 -0.1932  0.2447  0.1257
 7856W        W28136   1.585  16.252   0.393 -0.2667 -0.1268 -0.4583
 7857W        W28137   6.362   8.634  13.938 -0.0205  0.3042  0.3114
 7858W        W28138  14.617   5.456  13.013  0.2647  0.1804 -0.0895
 7859W        W28139   2.471  15.604   1.207  0.1121 -0.0144  0.3620
 7860W        W28140   2.275   4.099  11.546  0.3984 -0.2537  0.1979
 7861W        W28141   0.539   1.114   3.581 -0.0991 -0.1526 -0.2325
 7862W        W28142   9.330   5.579  14.541 -0.0909 -0.0124  0.1421
 7863W        W28143   5.480  14.813  13.403 -0.0862  0.1740  0.0164
 7864W        W28144   7.375   1.737  13.596 -0.2124 -0.2321  0.1189
 7865W        W28145  12.627   1.418   4.074 -0.4422 -0.1552 -0.3457
 7866W        W28146   5.735  11.350  12.147  0.1153 -0.2680  0.2359
 7867W        W28147   0.666  16.580   3.150 -0.1913  0.1717  0.3990
 7868W        W28148  10.943   7.205   2.959  0.0751 -0.1358  0.0687
 7869W        W28149  15.033   4.739  11.201  0.2347 -0.0617 -0.0806
 7870W        W28150  18.172   5.257  12.841  0.2878 -0.0330  0.0681
 7871W        W28151  17.524  15.407   3.340 -0.0692 -0.0575 -0.1453
 7872W        W28152  17.599   7.642   3.777  0.0482 -0.1392  0.0236
 7873W        W28153  15.061  10.341  12.520 -0.2253  0.0933 -0.1320
 7874W        W28154  14.771   2.123   4.405  0.1136  0.1706 -0.1729
 7875W        W28155  13.367  15.738  12.703  0.1794 -0.3152 -0.2614
 7876W        W28156  17.578   7.835  13.583  0.3211 -0.1523  0.5465
 7877W        W28157   0.847  15.929   3.871  0.0550 -0.0019  0.0714
 7878W        W28158   5.940   2.797   1.385 -0.3486 -0.2029 -0.0877
 7879W        W28159  17.489   2.200  13.528  0.0805  0.2477  0.1396
 7880W        W28160  15.269   3.406   1.147  0.1921 -0.1550 -0.0976
 7881W        W28161   8.428  10.858   1.735  0.1808 -0.0736  0.4651
 7882W        W28162  14.025  14.092  11.644  0.2868 -0.3520 -0.2730
 7883W        W28163   1.919   8.793  10.843  0.0893 -0.0905  0.1859
 7884W        W28164  15.197  17.180  13.681 -0.0474  0.1223  0.0101
 7885W        W28165  15.856  14.393  12.515 -0.0666 -0.3602  0.0659
 7886W        W28166   1.668   5.488  12.780  0.0777  0.2169 -0.1672
 7887W        W28167  13.547   1.797   2.535  0.0445  0.3125 -0.2526
 7888W        W28168   6.039  15.252   4.106 -0.0847 -0.0045  0.1905
 7889W        W28169   7.409   8.649   0.181  0.0361  0.2080 -0.0428
 7890W        W28170   2.971   3.896   4.335  0.0828  0.0002  0.2340
 7891W        W28171   0.758   7.185   1.673  0.1788  0.1620 -0.2405
 7892W        W28172   7.892  14.288   1.066  0.1270  0.2648  0.0677
 7893W        W28173   5.600  14.687  13.877 -0.1793 -0.1895  0.2134
 7894W        W28174   8.316  11.029   3.310  0.1495 -0.0492  0.0812
 7895W        W28175   6.633  14.863   3.534  0.3239  0.0537 -0.2304
 7896W        W28176   5.575   0.922  14.989 -0.2308 -0.0468  0.0280
 7897W        W28177   2.375   8.875  15.115  0.0800  0.4408  0.1365
 7898W        W28178   9.062  11.423   2.087 -0.0907 -0.3157 -0.4889
 7899W        W28179  15.698   1.198  10.639  0.0115  0.0345 -0.2639
 7900W        W28180  16.343  10.543   4.391  0.0430  0.1977 -0.0881
 7901W        W28181  10.352   6.381   4.158  0.0336 -0.1394  0.3963
 7902W        W28182  11.916  13.180   1.373 -0.0498  0.0658  0.0755
 7903W        W28183  18.611  13.976  13.874  0.2043  0.1965  0.1582
 7904W        W28184   9.244  17.290   0.420 -0.1771  0.2661  0.0401
 7905W        W28185   9.375   4.677   3.142  0.0132 -0.0296 -0.1702
 7906W        W28186   4.096   0.744   0.706 -0.0671  0.2318 -0.1150
 7907W        W28187  14.512   3.722   1.185 -0.3142  0.1112 -0.0249
 7908W        W28188  13.926  16.414  15.363  0.1725 -0.0345 -0.0686
 7909W        W28189   7.726   0.883  12.713 -0.0391 -0.2363  0.2746
 7910W        W28190  12.801  14.439   4.054  0.0871  0.1506 -0.0786
 7911W        W28191   2.017   0.480   1.118 -0.4530 -0.0092  0.2092
 7912W        W28192   3.730   7.151   1.096  0.0720  0.0676 -0.2731
 7913W        W28193   9.155   3.186   2.320  0.2725  0.0776 -0.0166
 7914W        W28194   2.121   3.781   0.314  0.2223 -0.3732 -0.0687
 7915W        W28195  16.161   7.864  14.613 -0.0217  0.1159 -0.0052
 7916W        W28196   5.270  10.753  14.346  0.0965  0.1826  0.0550
 7917W        W28197  16.398  13.706  13.667  0.1395  0.0991 -0.1123
 7918W        W28198   6.251   8.343   2.905  0.4222  0.0853 -0.0913
 7919W        W28199   9.798  11.299   5.843 -0.1305  0.2929  0.0058
 7920W        W28200  18.442   6.734   3.717  0.2054 -0.1182 -0.1367
 7921W        W28201   6.391  14.200  12.468  0.1966 -0.1069 -0.0673
 7922W        W28202   0.168   5.407   2.766  0.1732  0.0190  0.1434
 7923W        W28203   5.217   5.586  13.921 -0.0019  0.1498  0.0561
 7924W        W28204   5.453   0.129  14.790 -0.1207  0.0764 -0.0182
 7925W        W28205   0.441  11.166  13.860 -0.0328 -0.1501  0.1262
 7926W        W28206  13.513  12.853   4.189 -0.0994 -0.0708  0.1899
 7927W        W28207  15.666  14.614  13.827  0.0279 -0.0134 -0.2121
 7928W        W28208   2.680  13.318  14.517 -0.1118 -0.0040  0.2103
 7929W        W28209   4.678  18.146  10.555  0.0745  0.2102 -0.1368
 7930W        W28210   9.325  14.869  12.801 -0.1880 -0.2269 -0.1568
 7931W        W28211  14.462  18.096  14.567  0.2078 -0.0183  0.0105
 7932W        W28212   2.138   4.275   2.901 -0.5033 -0.1598 -0.2779
 7933W        W28213  10.955   6.457   0.239 -0.2015  0.2234 -0.1382
 7934W        W28214   1.032   2.386   1.554 -0.1651  0.0651 -0.4622
 7935W        W28215   8.751   1.110   0.560  0.0215 -0.3137 -0.3064
 7936W        W28216   4.726  15.890   1.622 -0.0438  0.0437 -0.0362
 7937W        W28217   2.482   3.461  15.132  0.2570  0.0272  0.1196
 7938W        W28218   5.797   9.518   4.393  0.0213 -0.2262 -0.1598
 7939W        W28219  14.368  14.176  10.945 -0.0415  0.1430  0.1064
 7940W        W28220   3.916   0.277  12.973  0.0929  0.0710 -0.0563
 7941W        W28221  11.424  16.059   2.150 -0.0751  0.1089  0.1568
 7942W        W28222   1.740  14.175  13.494 -0.2769 -0.2980  0.0462
 7943W        W28223  12.515  14.005   1.578 -0.0903  0.0252 -0.0768
 7944W        W28224   3.125   0.093   0.084  0.1129  0.0421  0.1630
 7945W        W28225   1.744  14.656   3.817  0.0190  0.0042  0.0177
 7946W        W28226  13.798  12.138   1.385  0.2813  0.4946 -0.0151
 7947W        W28227   7.166  11.592  12.650 -0.0165  0.2658  0.1595
 7948W        W28228   8.809  14.863   0.492 -0.1993  0.1398 -0.0317
 7949W        W28229  10.397  11.612   0.947  0.3362 -0.0476  0.0153
 7950W        W28230   0.320   9.462   0.475 -0.0740 -0.0863  0.0736
 7951W        W28231   8.744  18.083  12.177 -0.2126  0.1280  0.2031
 7952W        W28232  13.876  11.486   1.303  0.1211 -0.0605  0.1294
 7953W        W28233   8.398  14.020  10.746  0.1436 -0.1488 -0.3569
 7954W        W28234   1.999  11.893   2.619  0.0051 -0.1173 -0.0055
 7955W        W28235   4.698   0.420  10.599 -0.0968  0.0459 -0.1414
 7956W        W28236  16.320   7.945   3.754  0.1523 -0.3340 -0.1651
 7957W        W28237   7.738  18.250  13.293 -0.5714  0.1218  0.0669
 7958W        W28238  10.543   2.433   4.024  0.2774  0.2040  0.3912
 7959W        W28239  18.446   7.567   4.730  0.2945 -0.1703  0.1011
 7960W        W28240  12.429   5.433   0.209 -0.1393  0.0826  0.2819
 7961W        W28241  11.568  17.336  11.774 -0.1491  0.0198  0.2758
 7962W        W28242   3.247   3.653  14.060 -0.0463  0.0798  0.1792
 7963W        W28243  11.105   5.647  15.237  0.0447  0.1501 -0.0824
 7964W        W28244   8.176  11.167  14.276 -0.1784 -0.0593  0.1129
 7965W        W28245  14.316   6.255   0.457  0.0646  0.0046  0.2902
 7966W        W28246   3.484  10.438   1.578  0.0154  0.0239 -0.0325
 7967W        W28247   0.198   4.816  14.836  0.1399 -0.2055 -0.1140
 7968W        W28248  15.373   8.664  14.956 -0.0196  0.1022  0.1035
 7969W        W28249   1.720   0.660   0.786  0.1643 -0.0093 -0.0187
 7970W        W28250   2.419  15.556   1.698  0.1743 -0.1251  0.0868
 7971W        W28251  16.944  17.995  13.701  0.1505 -0.4792  0.4168
 7972W        W28252  12.962   4.013   3.687 -0.1028  0.2495  0.4199
 7973W        W28253   4.468  11.626  12.547  0.0764  0.0013  0.0103
 7974W        W28254  16.241   4.623   1.032  0.0376 -0.1487  0.2007
 7975W        W28255   1.096   7.130   0.697 -0.2929 -0.2112 -0.4177
 7976W        W28256  13.437   5.484   2.165  0.2479  0.2811 -0.0571
 7977W        W28257   0.880   7.300   1.152 -0.1016 -0.4353 -0.1222
 7978W        W28258  13.566   1.058  10.907  0.0815  0.4032 -0.0137
 7979W        W28259  12.963  12.515   2.631  0.0594  0.1205 -0.0676
 7980W        W28260   9.456  18.062   3.675  0.0842 -0.1759 -0.1087
 7981W        W28261   8.941  16.368   0.026 -0.0173 -0.0331  0.0769
 7982W        W28262   9.802  17.119  11.713  0.0362  0.1054  0.1368
 7983W        W28263   4.822  16.796  11.331  0.0515 -0.0141 -0.1035
 7984W        W28264   1.209   1.705   2.508  0.0437 -0.3154  0.0285
 7985W        W28265   4.556  15.742  10.443 -0.0867 -0.1246  0.2268
 7986W        W28266  10.517  12.182  11.915 -0.0233 -0.1666 -0.1190
 7987W        W28267  11.922   1.382   0.905  0.4094 -0.1359 -0.3079
 7988W        W28268   1.483   2.340  11.856 -0.3211 -0.1196 -0.0404
 7989W        W28269  17.414  18.322  11.650 -0.1744 -0.1126 -0.2304
 7990W        W28270   2.721   4.765  11.902 -0.1919  0.1489  0.1454
 7991W        W28271   4.294   3.719   2.336 -0.2151  0.0705  0.0459
 7992W        W28272   1.773   0.826   2.085 -0.0220 -0.1008  0.2612
 7993W        W28273   3.950  13.560   3.424 -0.1655  0.1365  0.0702
 7994W        W28274   3.974   6.829  12.426 -0.0486 -0.1813  0.2343
 7995W        W28275   9.654  13.287   2.745  0.1369  0.0160 -0.1826
 7996W        W28276   0.488   1.967  11.268  0.3284  0.0789  0.0153
 7997W        W28277  13.211   5.883  14.638 -0.1320 -0.1776 -0.0550
 7998W        W28278   1.997   0.240  13.613 -0.0954  0.2679 -0.2615
 7999W        W28279  11.046  12.724   4.354 -0.1805 -0.0492 -0.1260
 8000W        W28280   4.978  16.345   1.096  0.0691 -0.0743 -0.2577
 8001W        W28281   2.002   7.436   2.129 -0.0999 -0.1499  0.0307
 8002W        W28282   2.463  17.284   2.311  0.2939 -0.1906 -0.0178
 8003W        W28283   9.551  18.464  10.111 -0.1316 -0.0290 -0.0271
 8004W        W28284  11.195  11.659   2.921 -0.1614  0.0667 -0.1746
 8005W        W28285   9.197   0.146   0.887 -0.0668  0.5681  0.5529
 8006W        W28286   8.841  14.787  13.580  0.2038  0.1604 -0.0042
 8007W        W28287  18.154  18.436  12.636  0.0749 -0.1644 -0.2327
 8008W        W28288   2.578   0.266  14.382  0.3727 -0.2756 -0.0216
 8009W        W28289  17.248   9.055  13.380  0.1850  0.3722  0.0977
 8010W        W28290   5.436   8.131  15.300  0.2113 -0.0314 -0.3483
 8011W        W28291   7.908  10.143   3.642 -0.1252  0.1938  0.1649
 8012W        W28292  10.547   9.883  13.002  0.0613 -0.2259 -0.2520
 8013W        W28293   2.478  16.055   1.409 -0.0216  0.0895  0.2427
 8014W        W28294  16.852   9.583   4.493 -0.1947  0.2585 -0.0152
 8015W        W28295  11.491   1.370  10.704 -0.0216 -0.2085 -0.0183
 8016W        W28296   6.320  16.785   3.585  0.0241 -0.2299 -0.0555
 8017W        W28297   2.573  12.504   2.728  0.0014 -0.0960  0.4554
 8018W        W28298  13.818  15.110   3.802  0.0676  0.5145 -0.2716
 8019W        W28299  10.166  10.937   2.636 -0.1867 -0.1223 -0.2843
 8020W        W28300   6.655   0.118   4.223  0.1711  0.1812 -0.1777
 8021W        W28301  16.203   5.577   3.629 -0.0655 -0.1152  0.0266
 8022W        W28302   2.861  13.724   4.281  0.1256  0.2985 -0.0620
 8023W        W28303   9.773  14.722  13.219  0.2635 -0.0179  0.2546
 8024W        W28304  17.716   4.653  11.593 -0.0716 -0.0627 -0.0348
 8025W        W28305  14.864  17.353   1.504 -0.1654 -0.0256 -0.1125
 8026W        W28306  13.711   0.354   2.109 -0.1784 -0.3308 -0.0030
 8027W        W28307   0.789   7.139   2.207  0.1630 -0.1105 -0.0846
 8028W        W28308  15.278   7.809   4.712 -0.0243 -0.2012  0.0410
 8029W        W28309  17.677   6.340   3.126 -0.0423  0.2538  0.0420
 8030W        W28310   7.117   7.656   1.224  0.1773 -0.2361 -0.0795
 8031W        W28311  16.559   9.973  12.170  0.2073 -0.3147  0.1142
 8032W        W28312   8.765   7.155  15.222  0.0468 -0.0989  0.0882
 8033W        W28313   7.323   3.365   2.354  0.1143  0.1204 -0.1535
 8034W        W28314   1.843   7.259   0.775 -0.0596  0.1717  0.0081
 8035W        W28315  12.814   8.442  12.512 -0.2297 -0.1106  0.1810
 8036W        W28316  13.731   0.129  12.087  0.3215  0.1743 -0.1236
 8037W        W28317   6.000   5.513  11.220 -0.1899  0.4426  0.1472
 8038W        W28318   9.067   2.827   4.166 -0.2156  0.0346  0.3103
 8039W        W28319  14.016   4.963  13.363 -0.1207  0.0845  0.1853
 8040W        W28320   7.706  12.182  10.056 -0.0388  0.1788  0.0055
 8041W        W28321  17.217  15.766   1.177 -0.0010 -0.0962  0.5737
 8042W        W28322   4.296   7.230   1.161 -0.0240 -0.0094 -0.0542
 8043W        W28323   2.524   4.020  14.850  0.1769  0.2061  0.1916
 8044W        W28324  11.266  12.041   0.569  0.3150  0.1286  0.2170
 8045W        W28325  10.970   6.400  14.170 -0.0888 -0.1092  0.1063
 8046W        W28326   0.322  16.247   2.130  0.1826  0.3103 -0.2683
 8047W        W28327   2.818   7.280   0.392  0.2770  0.3080  0.0435
 8048W        W28328  13.967   0.616   1.158  0.0781  0.1411  0.3656
 8049W        W28329   0.407   6.674   2.943  0.2056 -0.0450 -0.0179
 8050W        W28330   7.880  15.176  10.900 -0.0265  0.0685 -0.1185
 8051W        W28331  16.927  14.315   0.918 -0.1449 -0.0023 -0.3974
 8052W        W28332   8.940   3.592   3.929  0.0559 -0.0819 -0.3032
 8053W        W28333   8.931  15.489   3.315 -0.3057 -0.0937 -0.3654
 8054W        W28334   9.847   9.197   2.414  0.2405 -0.2073 -0.1501
 8055W        W28335   1.143  16.038   5.637  0.3977  0.2005  0.4515
 8056W        W28336   8.024   5.931  14.966 -0.2609 -0.1517  0.0028
 8057W        W28337  13.348   2.199  14.192  0.6404  0.0029 -0.0345
 8058W        W28338  16.073  13.366   2.304  0.1003 -0.3423 -0.4545
 8059W        W28339   3.233   5.123   2.345  0.1102 -0.2317 -0.1628
 8060W        W28340   1.234   8.408   4.021 -0.0229  0.1895 -0.1486
 8061W        W28341   5.601   8.836  12.423  0.1686 -0.0464  0.0588
 8062W        W28342  18.701   0.330  11.769  0.1927 -0.0502  0.1796
 8063W        W28343   2.034  10.614  14.459 -0.2189  0.2360  0.3180
 8064W        W28344   8.949   9.390  11.717  0.2999 -0.0593  0.2842
 8065W        W28345   7.624   9.127  11.980  0.0239  0.1397 -0.2903
 8066W        W28346   0.327   8.514   4.004 -0.0510 -0.1700 -0.1341
 8067W        W28347  11.388   1.408   3.547 -0.3765 -0.2085  0.4171
 8068W        W28348  16.511   8.328  15.111 -0.1817 -0.1271 -0.0325
 8069W        W28349  12.073  16.192   3.219  0.4590 -0.3178 -0.1107
 8070W        W28350  18.552  15.467   2.951 -0.0081  0.2085  0.0666
 8071W        W28351  11.630  18.402   2.284 -0.3355  0.0381  0.2479
 8072W        W28352  14.156   4.153  15.030 -0.0742  0.1169 -0.2283
 8073W        W28353   8.818  11.601  11.297  0.0793 -0.0086  0.0633
 8074W        W28354  16.425  17.738  15.054 -0.0305 -0.0656  0.4382
 8075W        W28355  18.511   7.364  13.560 -0.3941 -0.0212 -0.1778
 8076W        W28356  13.053  18.248  12.775 -0.0782  0.1067 -0.1232
 8077W        W28357   7.731  14.997  12.598  0.2112 -0.0781 -0.1674
 8078W        W28358  12.875   2.037  12.807  0.0168 -0.2906  0.1238
 8079W        W28359   6.897  10.890  14.223  0.0932 -0.1387 -0.0617
 8080W        W28360   5.190   6.501   2.051 -0.0462  0.2544 -0.1799
 8081W        W28361  18.437  16.000   3.471 -0.3107 -0.0493  0.1871
 8082W        W28362   9.902   6.905  14.949  0.2636 -0.0538 -0.1909
 8083W        W28363  12.860  14.673  13.447 -0.0623  0.2090  0.1443
 8084W        W28364   3.131   7.906  14.651  0.1104 -0.0553  0.0191
 8085W        W28365   7.573   7.323   3.127 -0.0851  0.1464  0.1235
 8086W        W28366  10.674   3.481   0.938 -0.2015 -0.4285 -0.1102
 8087W        W28367  12.675   3.111  12.825 -0.0513  0.1171  0.4288
 8088W        W28368   7.164   4.292   0.194  0.1582 -0.2272 -0.2245
 8089W        W28369   9.280  18.698   1.766  0.0380 -0.0146 -0.0322
 8090W        W28370   0.812   8.192   3.862  0.1403 -0.2808  0.0349
 8091W        W28371  11.605   8.266   2.246 -0.0789 -0.3208  0.1236
 8092W        W28372  16.122  13.003   0.730 -0.2613  0.0611 -0.1309
 8093W        W28373   4.953   9.485  12.222  0.2981 -0.0021  0.2698
 8094W        W28374  15.028   6.439  14.131  0.0896 -0.2068  0.2377
 8095W        W28375  17.537  16.934  13.327  0.0755 -0.0367  0.0058
 8096W        W28376  18.226  14.308  13.847 -0.1250 -0.3501 -0.0318
 8097W        W28377  15.118  18.537   1.871 -0.0268 -0.3337 -0.2097
 8098W        W28378   4.549  10.857   4.029 -0.1334  0.2081 -0.1239
 8099W        W28379   8.611   3.204  14.881 -0.0489  0.1912 -0.2286
 8100W        W28380  17.277   0.076  15.341  0.0093  0.2101 -0.0549
 8101W        W28381   4.302  11.992  12.884  0.4836 -0.1131  0.1356
 8102W        W28382  13.972   8.277  13.070  0.3666 -0.1419  0.1001
 8103W        W28383   6.649   3.315  15.246  0.1835  0.2653  0.3439
 8104W        W28384   0.235  10.581  13.184  0.3571  0.2005  0.1419
 8105W        W28385   1.120   5.072  12.138  0.1062 -0.1814 -0.0474
 8106W        W28386   6.418  17.165  13.376  0.0312 -0.2581 -0.1075
 8107W        W28387   3.799   7.428  12.454 -0.2227  0.1450  0.0003
 8108W        W28388   4.270  11.058  11.890  0.4975 -0.0672  0.2035
 8109W        W28389  11.152   5.495  14.169 -0.1486 -0.1044 -0.0953
 8110W        W28390  18.002  18.021   0.760 -0.0160 -0.1909 -0.0537
 8111W        W28391  16.019  14.215   0.648  0.1520 -0.2755 -0.1553
 8112W        W28392  16.457   0.067   3.565 -0.0467  0.4407 -0.0434
 8113W        W28393  11.067   6.956   4.500 -0.0310 -0.3146  0.0920
 8114W        W28394   9.651  11.826  15.103  0.0064 -0.0456 -0.1552
 8115W        W28395   8.124  13.763  11.047 -0.0987  0.4424  0.1152
 8116W        W28396  10.018   3.595   2.322 -0.2254  0.2696 -0.0493
 8117W        W28397  10.767  15.507  14.862  0.1918  0.1364  0.0506
 8118W        W28398  15.839  16.467   1.934 -0.3971 -0.0968 -0.0832
 8119W        W28399   8.579   0.826   2.994 -0.1093 -0.0631 -0.1195
 8120W        W28400   9.094   5.757   2.086  0.0724  0.0094  0.2904
 8121W        W28401  12.995   4.951   2.718 -0.0883  0.0122  0.0058
 8122W        W28402  11.116   1.666  11.524  0.0544  0.1958 -0.1323
 8123W        W28403   4.184  17.879  10.768  0.0947 -0.0229 -0.1693
 8124W        W28404   1.101   2.712  10.191 -0.0727  0.0109  0.0275
 8125W        W28405  13.217  13.887   2.599  0.0838 -0.0673 -0.0054
 8126W        W28406  14.243  18.637   3.964 -0.0132 -0.0646  0.0392
 8127W        W28407   2.397  13.479  12.643  0.0474 -0.1844  0.0089
 8128W        W28408   4.315   6.236   3.085 -0.3588  0.0362 -0.4874
 8129W        W28409   6.980   8.568  13.896 -0.2048 -0.0181  0.0004
 8130W        W28410  17.142   9.203   1.137 -0.2482  0.4238  0.1406
 8131W        W28411  12.224   8.427  11.727 -0.5272 -0.1522 -0.0955
 8132W        W28412   0.756   7.467  12.793  0.1745 -0.1038  0.1412
 8133W        W28413   3.081   2.341  12.788 -0.1630  0.0612 -0.0612
 8134W        W28414  13.030   1.439   0.462 -0.2000  0.1204  0.1846
 8135W        W28415  13.597   2.802  11.669 -0.0195 -0.1240  0.3972
 8136W        W28416   4.558   8.438  14.132  0.1740 -0.0942  0.0213
 8137W        W28417  17.455  15.499  11.550 -0.0837 -0.0554  0.1469
 8138W        W28418   4.140   2.534   1.145 -0.0553  0.3071 -0.1890
 8139W        W28419  16.722   3.482   1.459 -0.0126 -0.0702  0.1995
 8140W        W28420   2.067  12.504  14.283  0.2152 -0.1270 -0.3426
 8141W        W28421   2.458   8.866  11.025 -0.0117  0.0243  0.1875
 8142W        W28422   9.474  15.416  15.104 -0.1674  0.1790 -0.1469
 8143W        W28423   4.684  13.676   0.561  0.1493  0.0342 -0.2227
 8144W        W28424  11.933  16.010  13.349 -0.3245  0.0670 -0.2763
 8145W        W28425   5.976   1.598   1.748  0.1482  0.2108 -0.0989
 8146W        W28426   6.462   2.004  14.198 -0.1619  0.1396 -0.0390
 8147W        W28427  15.536  13.761   4.251  0.0231 -0.1931 -0.0810
 8148W        W28428   1.507  16.937   3.371  0.0769  0.2010  0.1364
 8149W        W28429  16.505   5.827  13.757  0.0099  0.0488 -0.0528
 8150W        W28430  12.198   4.440   3.340 -0.1052  0.1350 -0.2243
 8151W        W28431  14.209  10.538   2.448 -0.0350  0.0757 -0.0710
 8152W        W28432  18.650  10.597  14.582  0.0026  0.3680 -0.0390
 8153W        W28433  10.409   1.111   1.396  0.4252  0.0496 -0.2447
 8154W        W28434   3.432  18.546   0.291  0.0553 -0.0517  0.0023
 8155W        W28435   3.242   0.571   0.951 -0.2041 -0.1712  0.0238
 8156W        W28436  10.128  14.014   1.460 -0.3290  0.2776  0.0731
 8157W        W28437  14.428   6.290   1.374  0.3770 -0.0325 -0.0272
 8158W        W28438  10.129  13.428   3.207  0.0159 -0.3882 -0.0691
 8159W        W28439   4.207  11.077   1.936 -0.1308 -0.1599 -0.0419
 8160W        W28440  15.040   9.495   4.942 -0.0627 -0.2775  0.1394
 8161W        W28441  11.213  13.370  13.884  0.0561  0.1605  0.2442
 8162W        W28442  14.619  16.980   1.704 -0.0791 -0.0143  0.0208
 8163W        W28443   2.929  12.410  13.257  0.0744  0.1651  0.1123
 8164W        W28444  12.849   0.534   2.410 -0.5778 -0.0798 -0.1262
 8165W        W28445   1.216   4.548   2.432 -0.0956  0.0087 -0.0898
 8166W        W28446  11.591  17.439  11.028 -0.2284  0.0542  0.1863
 8167W        W28447   3.973  13.588  13.986 -0.0020  0.0877  0.2971
 8168W        W28448  17.005   2.799  14.472 -0.2327 -0.1913 -0.2405
 8169W        W28449  18.531  17.533  14.842  0.0977  0.0306  0.0783
 8170W        W28450  13.295  15.441  11.191 -0.0547  0.0032 -0.0732
 8171W        W28451   5.845   5.008  14.348 -0.1575 -0.0791 -0.3680
 8172W        W28452   7.496   6.447   3.690 -0.0455  0.1643  0.2782
 8173W        W28453   8.652  10.187  13.147  0.2584 -0.0081 -0.3701
 8174W        W28454   0.082   2.402  13.928 -0.2591  0.0728  0.1570
 8175W        W28455  17.361   8.729   1.031 -0.4754 -0.0444 -0.0624
 8176W        W28456  15.180  13.271   2.644  0.1549  0.0242 -0.0645
 8177W        W28457  13.853  12.740  13.238 -0.1815 -0.0261  0.1899
 8178W        W28458  14.159   9.429  12.908  0.1179  0.0124  0.0546
 8179W        W28459   2.022  10.291  11.750  0.1759  0.0476 -0.0686
 8180W        W28460   0.791  12.881   3.180  0.1004  0.0622  0.0638
 8181W        W28461   2.689   5.958  13.355 -0.1329 -0.1321 -0.1290
 8182W        W28462  18.063  16.284  12.316 -0.3233 -0.0707  0.2994
 8183W        W28463  14.350  15.951  11.299  0.1988  0.0273 -0.0480
 8184W        W28464  10.046  17.909   0.935  0.3023 -0.1739 -0.1568
 8185W        W28465  17.054   6.562   0.262  0.1774 -0.1226  0.0532
 8186W        W28466  11.544   1.558  14.371 -0.3134 -0.3014 -0.1569
 8187W        W28467   3.605   6.112  11.372 -0.1455 -0.0525  0.2003
 8188W        W28468  18.239  17.801  12.348  0.1266  0.3993 -0.0243
 8189W        W28469   5.139  18.522  12.711  0.0471  0.1502  0.0732
 8190W        W28470   2.222  14.398  11.087 -0.2605  0.2172 -0.0947
 8191W        W28471  13.805   4.286   0.011 -0.0812 -0.0720  0.3931
 8192W        W28472   8.613  11.455  14.015 -0.1010  0.1325  0.0932
 8193W        W28473  16.029  11.023   2.012  0.0708 -0.2199 -0.0720
 8194W        W28474  14.757  11.846   0.804 -0.1774 -0.1229 -0.0084
 8195W        W28475  13.441  10.924  13.916 -0.0603  0.2236 -0.1090
 8196W        W28476  16.231   5.749   4.248  0.1672  0.1011 -0.0610
 8197W        W28477  12.555   4.948   0.355 -0.3322 -0.2229 -0.1144
 8198W        W28478   9.432   7.809   4.047  0.0710 -0.1006  0.1668
 8199W        W28479  18.041   1.359   3.743 -0.0333 -0.1068 -0.3880
 8200W        W28480  12.341   2.049  15.028  0.0712 -0.0290 -0.0017
 8201W        W28481   9.811  16.218  13.794  0.0810  0.0632  0.0197
 8202W        W28482  10.959  14.221  11.791  0.1042  0.1007  0.2325
 8203W        W28483  13.108   0.683   3.907 -0.3113 -0.1455 -0.1010
 8204W        W28484  10.421   5.858   4.543 -0.0696  0.3596 -0.0522
 8205W        W28485   8.999   7.451  11.200 -0.4122 -0.0511  0.0712
 8206W        W28486  16.418  11.580  15.345 -0.2997 -0.1652 -0.0687
 8207W        W28487   8.293  18.158  11.952 -0.1078  0.2362  0.0830
 8208W        W28488  18.545  16.271  12.609 -0.5075 -0.1417 -0.0834
 8209W        W28489  13.616   9.375   0.038 -0.3015  0.0870 -0.1074
 8210W        W28490  18.681   6.400  13.875 -0.0732  0.0440  0.5010
 8211W        W28491  14.293  11.902   1.861  0.2189 -0.0161  0.2650
 8212W        W28492  13.961   2.379   3.448 -0.0056 -0.1075  0.0190
 8213W        W28493  17.987   4.150  12.852  0.1050  0.2759 -0.1512
 8214W        W28494  18.330   7.997   1.884 -0.0873 -0.1097 -0.1677
 8215W        W28495  14.263  15.005  14.445  0.0904 -0.0800 -0.0104
 8216W        W28496  16.056   5.338   4.535  0.2545  0.5124 -0.4594
 8217W        W28497  15.334   1.468  14.573  0.0837  0.0976  0.2444
 8218W        W28498   2.435   7.168  13.203 -0.0956 -0.1743  0.0225
 8219W        W28499  13.325   1.036   0.335  0.2882  0.0894  0.0092
 8220W        W28500   1.944  13.476   3.961  0.0311  0.1534  0.0847
 8221W        W28501  13.521  10.403   0.487 -0.2698  0.2902  0.3786
 8222W        W28502   9.170  11.904   3.452  0.1615  0.0883 -0.1867
 8223W        W28503  14.382  14.988  13.842  0.0104 -0.2079  0.1532
 8224W        W28504   3.725  18.657   0.715  0.2863 -0.0465 -0.0149
 8225W        W28505  15.237   8.089  14.405 -0.1786 -0.1458 -0.4174
 8226W        W28506  10.797   8.720   4.088 -0.0422 -0.0790 -0.0848
 8227W        W28507  16.676  11.080   3.173  0.1066 -0.1631 -0.2194
 8228W        W28508  13.837   2.825   5.046 -0.0188 -0.0300 -0.0995
 8229W        W28509   1.986  10.563   1.387  0.3253 -0.0434 -0.1306
 8230W        W28510   0.753   8.032  11.275  0.4159 -0.0969  0.0250
 8231W        W28511   6.831   4.765  10.556  0.0292 -0.1165  0.0906
 8232W        W28512   0.194   7.397   4.075  0.2792 -0.0853  0.0403
 8233W        W28513   1.889   7.576   0.400 -0.0561  0.2274 -0.0547
 8234W        W28514   4.658   1.324  11.950  0.1930 -0.1348 -0.2978
 8235W        W28515   9.416  16.391  11.854 -0.1759 -0.0858  0.2399
 8236W        W28516   6.296  10.188  13.275  0.1560  0.5414 -0.0788
 8237W        W28517   3.956  18.594  10.228 -0.1797 -0.0337  0.3570
 8238W        W28518  16.621   2.556  13.625 -0.2694  0.1008 -0.0030
 8239W        W28519  10.406   0.571  12.998  0.2927 -0.0853  0.1334
 8240W        W28520  10.598  18.246  13.644  0.1542 -0.1871  0.1617
 8241W        W28521  11.789  17.278   0.388  0.0935  0.0012 -0.0938
 8242W        W28522  18.249   3.698   3.857 -0.1250 -0.2462 -0.0276
 8243W        W28523  13.591   0.644  14.409  0.1333  0.0618  0.3376
 8244W        W28524   4.069   7.137   2.092 -0.3889  0.0938  0.0623
 8245W        W28525   3.904  10.461  11.693  0.0294 -0.1654  0.0676
 8246W        W28526   7.006   0.777   3.802  0.4565 -0.0216 -0.2431
 8247W        W28527   2.470   2.643  13.935  0.2352  0.2341  0.1442
 8248W        W28528   7.521  12.128   1.500 -0.1283 -0.1689  0.2192
 8249W        W28529   9.307   8.060  14.947 -0.2212 -0.0370 -0.1577
 8250W        W28530  14.578  12.200  12.914  0.0896  0.0848  0.2016
 8251W        W28531  17.105  14.765   4.146 -0.2702  0.2135  0.0324
 8252W        W28532  10.671   0.078  13.631 -0.0110  0.2698  0.1211
 8253W        W28533  10.847   2.836  11.084 -0.0789 -0.1541 -0.1412
 8254W        W28534   7.542   2.432   0.174 -0.3134 -0.0647  0.0930
 8255W        W28535  16.985   1.240   0.795 -0.3970 -0.0407 -0.0033
 8256W        W28536  18.461  18.275  12.245 -0.0121  0.0760  0.0590
 8257W        W28537  10.463  14.168   0.569 -0.1126  0.0126 -0.4413
 8258W        W28538   4.549   4.228   0.097  0.2982 -0.0253 -0.0875
 8259W        W28539  12.727   5.537   1.488  0.0066 -0.1672  0.2529
 8260W        W28540   1.364  13.317   0.434 -0.1513 -0.0453  0.0076
 8261W        W28541   1.291   8.730   1.256  0.1267 -0.0811  0.1759
 8262W        W28542   2.379   0.368   2.500  0.1538  0.1231  0.1192
 8263W        W28543   9.291  14.966  13.339  0.1433  0.1102 -0.0267
 8264W        W28544   7.659  10.178   0.288 -0.0813  0.2613 -0.0591
 8265W        W28545   4.118   4.377   0.959  0.0521  0.0470  0.0625
 8266W        W28546  14.144   2.222   0.418  0.1818  0.2658 -0.0751
 8267W        W28547   0.338  13.646   2.755  0.0468  0.0641  0.2711
 8268W        W28548   7.798   5.702   1.633  0.1515 -0.1411  0.3376
 8269W        W28549  13.046   9.727  10.638 -0.1504  0.0874  0.0971
 8270W        W28550  15.745   5.986   3.010 -0.2807  0.1101 -0.0031
 8271W        W28551   8.375  15.596   2.158  0.1911 -0.1247  0.0684
 8272W        W28552   9.829  16.251  11.532 -0.0551 -0.4377 -0.0620
 8273W        W28553   9.213  16.599   2.843 -0.3468 -0.0507 -0.0539
 8274W        W28554  18.126   4.893  11.570  0.2669  0.1867 -0.2489
 8275W        W28555  13.245  11.773  11.317  0.0930  0.0630  0.0774
 8276W        W28556   0.327   3.925  11.534  0.1523 -0.1953  0.2194
 8277W        W28557   5.175   2.916   0.973  0.1384  0.0153 -0.1541
 8278W        W28558   6.725   5.308   0.538 -0.0357 -0.1832 -0.0223
 8279W        W28559   6.156   3.374   3.306 -0.0759  0.0666 -0.3147
 8280W        W28560  13.260   0.783  12.690  0.3816  0.2823 -0.4623
 8281W        W28561   2.834  14.041   2.467 -0.5812  0.1322 -0.2021
 8282W        W28562   9.626  14.902  15.160 -0.2290 -0.0199  0.0153
 8283W        W28563   8.292   1.833   0.216 -0.0108 -0.1230 -0.2089
 8284W        W28564  16.488  14.393   2.511  0.1229 -0.0153  0.1556
 8285W        W28565  14.463   0.436  12.374  0.1247 -0.1466 -0.2353
 8286W        W28566  17.200   7.656   0.740  0.2248  0.2557  0.0082
 8287W        W28567   0.447   6.752   2.030  0.0460 -0.0035 -0.0573
 8288W        W28568  12.042   2.239   0.737  0.0693 -0.2256  0.1903
 8289W        W28569   3.175   9.530   3.344  0.2952 -0.1715  0.1630
 8290W        W28570  15.139   1.009   0.443  0.0822  0.1936 -0.1546
 8291W        W28571   5.249   4.126   2.829  0.0810  0.0306  0.1031
 8292W        W28572  14.902  10.220  11.535 -0.1564  0.0988  0.1262
 8293W        W28573  12.072  17.848  13.797  0.0800  0.0782  0.1601
 8294W        W28574   1.964  17.456  14.391 -0.3812 -0.2165  0.0361
 8295W        W28575  13.760   6.852  11.759 -0.0924  0.1664 -0.1591
 8296W        W28576  15.666  12.898   4.500 -0.1138  0.1426 -0.0198
 8297W        W28577  17.194  17.044  11.810 -0.0839  0.3046  0.1115
 8298W        W28578   2.623   6.575   0.555 -0.1121  0.0407  0.0179
 8299W        W28579   1.091  13.437  12.756  0.3319 -0.0216 -0.0819
 8300W        W28580  14.946  17.401   2.639  0.0394  0.1453 -0.0128
 8301W        W28581   1.215   8.634   1.715 -0.1437 -0.2843 -0.1226
 8302W        W28582   4.056  16.596  14.926 -0.2173 -0.1934  0.1120
 8303W        W28583  16.117  17.517   0.102  0.0469  0.2857 -0.2649
 8304W        W28584  14.349  12.849  13.383 -0.0756  0.2430 -0.0949
 8305W        W28585  10.737   2.843   4.222 -0.1234 -0.0399 -0.2286
 8306W        W28586  14.710   6.297   1.873 -0.0409  0.0862 -0.4284
 8307W        W28587   9.463   4.251  14.344  0.0707 -0.2359 -0.0159
 8308W        W28588   2.773  10.408  14.832  0.3003  0.0771  0.1944
 8309W        W28589   0.062  14.633   4.332 -0.2703 -0.0227  0.0863
 8310W        W28590   0.017  16.535   1.763 -0.0769  0.0198  0.0260
 8311W        W28591   4.006  18.138   2.757 -0.0681 -0.0475  0.0107
 8312W        W28592  14.015  12.852   2.028  0.0280 -0.2665 -0.2070
 8313W        W28593   2.222  10.790  14.008 -0.0117 -0.4321  0.1223
 8314W        W28594   2.763  13.576   0.107  0.0313 -0.1298 -0.2344
 8315W        W28595  17.997   1.300  13.401 -0.1301 -0.0009 -0.1985
 8316W        W28596   2.890  11.036   1.977 -0.1804  0.2167  0.0678
 8317W        W28597  10.734   8.194   2.315  0.3253  0.0596  0.4531
 8318W        W28598   4.224   5.045  13.756 -0.2040  0.0401  0.1560
 8319W        W28599  16.457  11.210   2.010 -0.2687 -0.0693  0.1828
 8320W        W28600  12.481  10.855   1.206 -0.0407 -0.4149 -0.0676
 8321W        W28601  10.244   2.872   2.911 -0.1483  0.0111  0.0328
 8322W        W28602  11.622   9.843  12.135  0.0335 -0.2248 -0.2854
 8323W        W28603  12.480   4.788   4.089 -0.2131  0.2474  0.1678
 8324W        W28604   2.139   0.534   1.989  0.0322 -0.0310 -0.0465
 8325W        W28605   7.395   7.901   4.501  0.3267  0.2328  0.0391
 8326W        W28606   2.051  11.601   2.178  0.1451 -0.2453 -0.0055
 8327W        W28607   7.716   3.018   2.541  0.1147  0.0378  0.3136
 8328W        W28608  11.704   1.907  13.840  0.4856 -0.0292  0.1793
 8329W        W28609  12.636   1.018  13.398 -0.3290  0.1230  0.1323
 8330W        W28610   0.045   1.847  11.666  0.0808  0.1111  0.0415
 8331W        W28611   4.976  14.090   2.366  0.0914  0.4354  0.1303
 8332W        W28612  14.587   9.091   3.625 -0.1014  0.0412  0.1859
 8333W        W28613  17.810  11.901  14.212 -0.3337  0.2494  0.3199
 8334W        W28614   6.755  14.100   2.967  0.1559 -0.0414  0.1982
 8335W        W28615  10.150   8.443  14.669 -0.0962 -0.0480 -0.1743
 8336W        W28616   7.421  10.214   3.784  0.0575 -0.1256 -0.0808
 8337W        W28617   3.396   0.098  14.036  0.1767 -0.0112  0.2290
 8338W        W28618   3.883  18.327   0.029 -0.0712 -0.0150  0.0947
 8339W        W28619   9.145   1.249  13.505  0.0792 -0.2099  0.0144
 8340W        W28620  12.649   8.780  13.378 -0.1263  0.1542  0.0751
 8341W        W28621   9.713   3.737  13.524 -0.0162  0.1631  0.0593
 8342W        W28622   7.695  16.411  12.889 -0.0222  0.2209  0.0459
 8343W        W28623  11.864  13.661   3.167  0.1830 -0.1112  0.2474
 8344W        W28624  17.435   7.192  14.957 -0.0716  0.0697  0.0473
 8345W        W28625  14.253   2.092   3.729 -0.0660 -0.1455 -0.2634
 8346W        W28626   9.289   0.116  11.945  0.1559 -0.2371 -0.1349
 8347W        W28627  15.389   0.886   3.975  0.0476 -0.3844  0.3180
 8348W        W28628   0.315  11.130   1.986 -0.1977 -0.1551 -0.1345
 8349W        W28629  15.149  15.158   3.058  0.1572 -0.2257 -0.0619
 8350W        W28630   7.723  14.583  12.048  0.0711  0.1945 -0.0261
 8351W        W28631  14.247   9.285   2.730  0.0440  0.0368  0.2594
 8352W        W28632  15.556  16.432   1.021  0.0936  0.2278 -0.2064
 8353W        W28633   7.356  10.677   0.052 -0.2299 -0.1612 -0.1425
 8354W        W28634   3.751  18.306  13.449 -0.1271 -0.1474 -0.1911
 8355W        W28635  18.206  13.042   1.019 -0.0201 -0.0498  0.0783
 8356W        W28636  14.222   3.307   4.062 -0.1001 -0.1052 -0.0581
 8357W        W28637  15.086  18.323  12.399  0.0177  0.0547 -0.2601
 8358W        W28638  15.619   7.397   1.026  0.2628  0.0082 -0.1773
 8359W        W28639   5.454  14.126  12.354 -0.0420 -0.0581  0.2399
 8360W        W28640   7.625   3.820   0.171 -0.0932 -0.0095 -0.1641
 8361W        W28641  17.390  11.088  13.740 -0.2232 -0.1571  0.0276
 8362W        W28642   7.115   8.114   4.074  0.1682  0.2107 -0.0011
 8363W        W28643  14.299   1.817  14.137  0.0279  0.0084  0.1257
 8364W        W28644  14.030  14.792  13.458  0.1241 -0.2106 -0.0785
 8365W        W28645   6.949   9.257  13.428  0.2620  0.0021 -0.1405
 8366W        W28646  14.041   6.652  12.212 -0.1596  0.0583 -0.2928
 8367W        W28647   2.419  18.583   2.266 -0.0369  0.1169 -0.4460
 8368W        W28648   3.847   3.746  11.786 -0.2836  0.1084 -0.0578
 8369W        W28649   1.308   9.062  14.461  0.0527 -0.1597  0.0209
 8370W        W28650   8.573   7.384  12.886  0.1102 -0.1483  0.3379
 8371W        W28651  13.943   3.128  14.440  0.0361  0.4725  0.2711
 8372W        W28652  17.759  14.226   0.481  0.0777 -0.0475 -0.2364
 8373W        W28653  12.906   2.559  12.627  0.1057  0.1059 -0.2140
 8374W        W28654   4.737   4.529  14.217  0.2116  0.0555  0.1684
 8375W        W28655  11.607  14.495   3.205  0.0005 -0.0856 -0.1373
 8376W        W28656   6.258  12.567  11.944 -0.0053 -0.0162  0.2766
 8377W        W28657  16.724   0.458  14.239 -0.1150  0.0293  0.2062
 8378W        W28658   9.766   9.356   3.616 -0.1372 -0.1320 -0.0297
 8379W        W28659   9.614  14.303   0.427 -0.2416  0.1386  0.1892
 8380W        W28660  16.735   8.068   1.477 -0.0487  0.3205 -0.1295
 8381W        W28661   6.292   4.123   2.638  0.0405 -0.1856 -0.1121
 8382W        W28662   8.125   8.384   1.432 -0.1235  0.1826  0.0416
 8383W        W28663  18.413  12.604  12.275  0.1040 -0.3551  0.2694
 8384W        W28664  14.870  14.303  10.668  0.2733 -0.0554 -0.3671
 8385W        W28665  13.482  11.768   1.475  0.1471 -0.0968 -0.1957
 8386W        W28666  14.542   1.618   0.115 -0.2295 -0.1277  0.0611
 8387W        W28667   9.147  14.394   1.308  0.1677  0.0217  0.0276
 8388W        W28668   3.387  10.841  10.857  0.0838 -0.1041  0.1406
 8389W        W28669  15.001  11.054   1.290 -0.1555 -0.1317  0.0683
 8390W        W28670   6.349   1.720  14.591 -0.0046  0.1250 -0.1193
 8391W        W28671  18.279  17.180  11.415 -0.0329 -0.4445  0.0887
 8392W        W28672  15.419   2.879  12.751  0.2130 -0.1458  0.0575
 8393W        W28673  11.251   1.107  12.661  0.1412 -0.0638  0.0186
 8394W        W28674   3.050   6.859   0.546 -0.0522 -0.3909 -0.1816
 8395W        W28675   2.189   9.419   4.056 -0.1318  0.2015 -0.0717
 8396W        W28676  12.784   4.022  14.368 -0.2916  0.1515  0.2946
 8397W        W28677  18.718  16.286  15.139 -0.0993 -0.1483 -0.1239
 8398W        W28678  12.975  10.811  11.445  0.2082  0.1169  0.0436
 8399W        W28679   5.331   0.326   1.492  0.2617  0.2430 -0.0379
 8400W        W28680   5.090  15.966   2.284  0.0958  0.2006 -0.1083
 8401W        W28681   1.633   0.789   0.297  0.2251  0.1273  0.0832
 8402W        W28682  15.156   2.628   2.427  0.2808 -0.4988 -0.2883
 8403W        W28683   3.314  17.984  14.444 -0.1229  0.2669  0.1692
 8404W        W28684   8.554  16.186  10.612  0.1201  0.4598 -0.2361
 8405W        W28685  15.478  12.017  12.176 -0.0282  0.2948 -0.0871
 8406W        W28686   7.970  18.377  12.279  0.1963 -0.0023 -0.1132
 8407W        W28687   4.608  12.835  12.323 -0.3008 -0.0280  0.0873
 8408W        W28688   1.685   6.874   1.626  0.1433 -0.1032 -0.0767
 8409W        W28689  10.976  15.040   0.379  0.1300 -0.0078  0.0160
 8410W        W28690  11.733  17.766   0.507  0.1460 -0.2170  0.1741
 8411W        W28691   2.302  16.277   3.781 -0.0952 -0.4236 -0.1547
 8412W        W28692  17.220   7.514   3.027 -0.1606 -0.0201  0.0781
 8413W        W28693  12.304   1.160   1.945 -0.0047  0.0136  0.4857
 8414W        W28694  17.009  12.853  14.335  0.0336 -0.0826  0.0217
 8415W        W28695  14.257   1.404   3.805  0.0290  0.0301 -0.5068
 8416W        W28696  15.725   9.682   0.836  0.0535 -0.2381 -0.1233
 8417W        W28697  15.674  11.663   2.325  0.2753  0.3550  0.2570
 8418W        W28698   7.389   6.743  13.134 -0.0083 -0.0047 -0.0451
 8419W        W28699   3.773   9.090  11.932  0.1899 -0.0540 -0.1502
 8420W        W28700   7.204  17.605   1.894 -0.0646 -0.2596 -0.2962
 8421W        W28701  17.692   9.238  12.038  0.0597  0.2459 -0.0565
 8422W        W28702   8.810   1.525   2.869  0.0723  0.3307 -0.0432
 8423W        W28703  18.328   1.245  11.987  0.0634  0.2132  0.0947
 8424W        W28704  10.576  13.643   3.244  0.1329 -0.0311 -0.0904
 8425W        W28705   8.752  12.311   1.912  0.1687  0.0427  0.3207
 8426W        W28706  16.294  16.465  11.019 -0.4453 -0.1236 -0.0278
 8427W        W28707  16.270  17.452  11.154 -0.0711  0.2109 -0.0833
 8428W        W28708  18.021   6.771   4.035 -0.0336 -0.1807 -0.0658
 8429W        W28709   6.046   5.453  15.272 -0.2571 -0.3276  0.0574
 8430W        W28710  16.734   3.861  11.329  0.1832 -0.4847 -0.1417
 8431W        W28711   7.522   1.695  11.963 -0.1044  0.2025 -0.0418
 8432W        W28712   5.543  13.411   5.213  0.0447 -0.2149  0.1825
 8433W        W28713   0.008  14.308   3.935 -0.0291  0.0246 -0.0404
 8434W        W28714   6.366   9.262  11.808  0.1156 -0.1824  0.2465
 8435W        W28715   1.751   5.762   3.632 -0.1658 -0.0811  0.0806
 8436W        W28716   0.082   7.092   0.748 -0.2122  0.0455 -0.0932
 8437W        W28717   2.805  10.170   3.942  0.3030 -0.1787 -0.0292
 8438W        W28718  10.285   0.821  13.707  0.2003 -0.4256 -0.2476
 8439W        W28719   9.360   0.635  13.089 -0.1002  0.0676  0.0960
 8440W        W28720   3.176  12.878  13.120  0.1623 -0.2398  0.1440
 8441W        W28721   9.190   9.597   2.140 -0.1576 -0.0250 -0.0502
 8442W        W28722   8.610  14.213  11.934  0.0667 -0.1738 -0.1114
 8443W        W28723   0.269   0.254   1.213 -0.0055 -0.3501  0.0023
 8444W        W28724  17.156  10.768  12.192  0.0607 -0.0373  0.0221
 8445W        W28725   5.447   4.119   4.502  0.1779 -0.1197  0.0315
 8446W        W28726   0.947   1.056   1.412  0.0128  0.0825  0.3157
 8447W        W28727   1.315   6.804  13.197 -0.0220 -0.3073  0.0768
 8448W        W28728   1.290  15.275  14.769  0.1367  0.1827  0.3868
 8449W        W28729  14.734   4.444  12.736 -0.3867  0.0878 -0.3873
 8450W        W28730   1.001  17.535  13.293  0.1323 -0.2771 -0.2946
 8451W        W28731  15.900   7.718   1.481  0.0662  0.0333 -0.0089
 8452W        W28732  16.424  13.082  14.769  0.0990 -0.0858 -0.0342
 8453W        W28733  12.388   5.486   1.137 -0.1833 -0.1871  0.0951
 8454W        W28734   5.601  12.366  12.907  0.3306  0.0518 -0.1741
 8455W        W28735  11.382   1.955  14.628  0.0089  0.1908 -0.2917
 8456W        W28736   8.303  16.009   0.331  0.3138 -0.3066  0.1533
 8457W        W28737  15.609  15.716  12.897 -0.2780 -0.1951  0.1110
 8458W        W28738  11.336   7.671  12.829 -0.0500  0.0757 -0.0167
 8459W        W28739   3.200  13.274   2.518 -0.1748  0.3575  0.1409
 8460W        W28740   4.536   1.684  10.835  0.2380 -0.2893 -0.2053
 8461W        W28741   9.841   0.709   3.674  0.0323  0.3943  0.2030
 8462W        W28742   7.160   2.987   4.362  0.1020 -0.0861  0.1506
 8463W        W28743  15.191  14.980  13.027  0.1766  0.0054 -0.2509
 8464W        W28744   1.515   4.469   1.736 -0.0881 -0.3059 -0.0024
 8465W        W28745   7.178  10.298   1.410 -0.3368  0.1382  0.0445
 8466W        W28746   2.844  11.032   1.057 -0.1910  0.2252  0.1310
 8467W        W28747   6.943  12.870   1.742 -0.0907 -0.2547  0.1282
 8468W        W28748  16.986  17.585   4.092  0.2346  0.0300  0.0910
 8469W        W28749  18.382   0.246  14.901  0.0106  0.0308  0.3898
 8470W        W28750   3.608   9.930   1.620  0.1152 -0.1848  0.0807
 8471W        W28751  11.245  18.281  11.381 -0.0678  0.0457 -0.1316
 8472W        W28752  16.605   9.173   3.430  0.3542 -0.2571  0.1270
 8473W        W28753  13.924   9.636   0.982 -0.2055 -0.0224  0.0097
 8474W        W28754  12.977   3.728   0.907 -0.1853 -0.1645  0.1839
 8475W        W28755  16.045   5.634  15.017 -0.0775  0.3124  0.0546
 8476W        W28756  10.824  16.660  13.215 -0.0493  0.0138 -0.0800
 8477W        W28757   3.706  17.956   1.822 -0.0482  0.3386  0.1424
 8478W        W28758   3.264   5.953  14.927 -0.1255  0.2502 -0.1919
 8479W        W28759   0.324  16.047  12.327  0.3117 -0.3387 -0.1887
 8480W        W28760  14.122  18.417   2.052 -0.0648 -0.0164 -0.1699
 8481W        W28761   1.714  15.282   0.749  0.2226  0.3249  0.1461
 8482W        W28762  17.718   4.511  14.471  0.3140 -0.1651  0.1180
 8483W        W28763  12.963  17.340   2.255 -0.0644 -0.1730 -0.0400
 8484W        W28764   8.445  13.728   1.268 -0.0643  0.3716 -0.1494
 8485W        W28765   7.544   4.381  14.136  0.0729 -0.1764 -0.2082
 8486W        W28766   6.782  15.589   3.006  0.1330  0.1254  0.0342
 8487W        W28767   5.792  15.709   3.173  0.1339 -0.0143  0.2632
 8488W        W28768   0.330  18.704  11.781 -0.1878  0.0144  0.4129
 8489W        W28769  11.765  12.835  12.455  0.2709 -0.2603  0.2848
 8490W        W28770  17.546   7.300  11.040 -0.0607 -0.0129 -0.1953
 8491W        W28771  18.065  13.614   3.723  0.1157  0.0054 -0.0662
 8492W        W28772   3.485   3.684   1.548 -0.0034  0.0485 -0.0484
 8493W        W28773   0.422   3.400  11.596 -0.0891 -0.0273 -0.2098
 8494W        W28774  12.491   6.272   4.301  0.0224  0.0280 -0.0963
 8495W        W28775  11.302   2.032  11.197  0.2278  0.2303  0.0569
 8496W        W28776   0.063   6.196   4.091  0.0786  0.1235 -0.0256
 8497W        W28777   7.385  11.744  10.312  0.1107  0.1726  0.0225
 8498W        W28778   4.490   3.984  14.985  0.0101 -0.0623  0.2583
 8499W        W28779   3.586  12.920   3.929  0.2010  0.0671  0.0398
 8500W        W28780   8.927   8.577   0.330 -0.1511 -0.0043 -0.0372
 8501W        W28781  15.210   4.228  12.828 -0.2175 -0.0707  0.1671
 8502W        W28782   9.770  11.254   1.645  0.0408  0.1070  0.0689
 8503W        W28783  17.959   4.923  15.094 -0.0312 -0.5399 -0.0248
 8504W        W28784   2.839   7.809  14.164 -0.1956 -0.0491 -0.4190
 8505W        W28785  15.478  10.780   2.984 -0.0597  0.0984 -0.1764
 8506W        W28786  18.554   7.250  10.005 -0.4496  0.1049 -0.0084
 8507W        W28787   9.503   0.925  11.554 -0.1343  0.0047  0.2298
 8508W        W28788   7.653  10.262  14.044  0.2274 -0.1289  0.2585
 8509W        W28789   7.107  13.350   2.814  0.2831 -0.3568 -0.0869
 8510W        W28790  15.363  15.883   3.538 -0.2397 -0.0635  0.3327
 8511W        W28791  11.620   2.485  12.348 -0.2175 -0.2148  0.0251
 8512W        W28792   8.502   1.443  11.050  0.0681 -0.2266  0.0198
 8513W        W28793  17.035  14.549  14.510 -0.1456 -0.1678 -0.1246
 8514W        W28794   8.358   2.493  12.054  0.2461  0.0883  0.0408
 8515W        W28795  10.493   4.175   1.670 -0.4492 -0.0218  0.1122
 8516W        W28796  16.952  12.129  13.893  0.1684  0.2260  0.1671
 8517W        W28797   2.529  18.416   3.441  0.0488  0.0122 -0.2834
 8518W        W28798   6.881   5.477   1.465  0.1210  0.1931  0.0742
 8519W        W28799  15.802   4.450  11.468  0.1023  0.1632 -0.3083
 8520W        W28800  16.563  16.147  11.213 -0.0864  0.0193  0.0907
 8521W        W28801   2.021  11.945  12.023  0.0764  0.1950 -0.0326
 8522W        W28802   9.320  15.721   4.956 -0.1587 -0.0626 -0.0328
 8523W        W28803  16.479  16.251  14.816  0.0852  0.1367  0.0782
 8524W        W28804   0.051  16.939   0.919 -0.2312 -0.2055  0.1457
 8525W        W28805   8.298  11.745   3.507 -0.1083  0.1393  0.2098
 8526W        W28806   9.387  10.142   2.729 -0.1155 -0.2470  0.1276
 8527W        W28807  17.192  13.413   0.141  0.2798 -0.0207  0.4082
 8528W        W28808   4.502  12.425   4.025  0.0087  0.0564 -0.2366
 8529W        W28809   1.734   7.765   0.829  0.3687 -0.0455  0.0477
 8530W        W28810  11.996  13.997  14.435  0.0392  0.2185 -0.0348
 8531W        W28811  13.031  15.936   0.865  0.1587 -0.2661 -0.1832
 8532W        W28812  16.066   1.197  11.022 -0.0073  0.1461  0.1654
 8533W        W28813   5.808   2.493  12.360  0.0827  0.2301 -0.3264
 8534W        W28814   8.743   0.402  15.102 -0.2413  0.2058  0.0945
 8535W        W28815  13.291   9.209  11.535 -0.2670  0.1021 -0.0924
 8536W        W28816  15.133   1.858  12.697 -0.2098  0.0044 -0.0868
 8537W        W28817   9.922   0.141  13.134 -0.1741 -0.0866 -0.0600
 8538W        W28818   4.946  10.443  14.081  0.0267 -0.1982  0.0336
 8539W        W28819  14.483  15.150  14.837 -0.2868 -0.0039 -0.0358
 8540W        W28820   2.891   0.237  12.942 -0.3271 -0.1018  0.0725
 8541W        W28821   1.922   2.362  10.785  0.1882 -0.1251 -0.0247
 8542W        W28822  13.669   7.125   1.336 -0.0577 -0.2170  0.1867
 8543W        W28823  12.336  14.410  13.231 -0.0731  0.0640 -0.0881
 8544W        W28824   7.327   5.254  15.197  0.1428  0.2641 -0.1762
 8545W        W28825   2.099   8.324  13.206  0.0829 -0.0942  0.1377
 8546W        W28826   6.034   5.746   4.282 -0.2529  0.0678 -0.3209
 8547W        W28827  10.328  16.827  13.345 -0.1160  0.1443  0.2585
 8548W        W28828  11.851  17.805   3.908  0.1055  0.1054 -0.2010
 8549W        W28829  15.130  16.871   4.727 -0.1023 -0.1117 -0.2357
 8550W        W28830   5.132  15.777   1.311 -0.1473 -0.1739  0.2988
 8551W        W28831   8.421  15.392  11.116  0.2645  0.0085 -0.1425
 8552W        W28832   9.161  12.674   3.367  0.1616  0.1529 -0.2054
 8553W        W28833   9.820   5.134   1.409  0.0827  0.0147  0.0018
 8554W        W28834  13.247  10.299   4.138 -0.1696  0.1220  0.2074
 8555W        W28835  17.399  17.846   4.315 -0.0128 -0.1173  0.1790
 8556W        W28836   5.402   1.954  14.281 -0.3567 -0.0785 -0.3427
 8557W        W28837  14.563   6.668   0.164  0.1665 -0.0039  0.2420
 8558W        W28838   8.422  15.482  14.245 -0.0328 -0.1356 -0.0785
 8559W        W28839   5.722   0.650   1.582 -0.0089  0.2789  0.3237
 8560W        W28840   9.386  12.197  15.296 -0.0611 -0.2081  0.0562
 8561W        W28841   6.514   1.434   1.472  0.0940 -0.1997  0.1861
 8562W        W28842   8.566   1.856  13.192  0.1613  0.3145  0.0241
 8563W        W28843  18.628   2.495  14.959  0.0933  0.4606 -0.0840
 8564W        W28844  11.412   8.308  11.560  0.0530  0.0090  0.0368
 8565W        W28845  10.659   3.134   0.187  0.2232  0.0756 -0.0809
 8566W        W28846  10.975   9.969   0.385 -0.1000 -0.0871  0.0011
 8567W        W28847   0.060   7.248  12.195  0.0712 -0.0575 -0.1137
 8568W        W28848   4.763   5.615   2.644  0.2111  0.1659  0.0535
 8569W        W28849   1.846  17.966   1.772  0.0241 -0.2567  0.1445
 8570W        W28850   2.618  14.063  11.811 -0.0766 -0.0109 -0.0571
 8571W        W28851  13.361  14.814   2.215  0.0707 -0.0673 -0.2647
 8572W        W28852  10.908   6.225  12.615 -0.1178  0.0254  0.1634
 8573W        W28853   0.373  14.639  14.181 -0.0386  0.0804  0.1424
 8574W        W28854   0.674   9.130  11.748  0.0388 -0.1854  0.1093
 8575W        W28855   6.313   5.535  13.801  0.0749  0.0801  0.0388
 8576W        W28856   0.178   2.689   3.104 -0.1187 -0.1250 -0.1305
 8577W        W28857  15.128   1.305   0.905  0.1786 -0.0468  0.2965
 8578W        W28858  15.106  16.226  14.704 -0.0165  0.1447  0.1345
 8579W        W28859   2.392   5.605  12.181  0.0685  0.0763 -0.0718
 8580W        W28860   3.231   4.917  12.018 -0.0081 -0.1816  0.2027
 8581W        W28861  11.648  18.481  11.093 -0.2819  0.0436  0.1228
 8582W        W28862   8.711  11.363   3.417  0.0099  0.1284 -0.0443
 8583W        W28863   4.179   7.500  14.228 -0.1696  0.3300  0.0132
 8584W        W28864   2.385   4.214  14.422 -0.1311 -0.1477 -0.0030
 8585W        W28865   7.608   5.043  14.667  0.0525  0.0431  0.1681
 8586W        W28866  15.252   6.525   0.980 -0.2393 -0.0724  0.3443
 8587W        W28867  14.515   1.498  11.886 -0.2205 -0.1319 -0.2341
 8588W        W28868   4.095  11.569  15.323  0.0617 -0.1124 -0.0506
 8589W        W28869   0.958  18.359   2.261 -0.0841 -0.0775  0.0038
 8590W        W28870   3.909  17.385   1.760 -0.2141 -0.0651 -0.0721
 8591W        W28871  17.576   7.007  11.872 -0.2726 -0.1433  0.3986
 8592W        W28872  18.715  13.746  12.566  0.1081  0.0092  0.0246
 8593W        W28873   8.948   1.194  11.047  0.0174 -0.1590  0.2929
 8594W        W28874  11.742   0.661  14.264  0.0161  0.1630  0.2461
 8595W        W28875   9.071   8.388   0.768 -0.2020 -0.1413  0.2346
 8596W        W28876   7.813  18.347   3.430 -0.1816 -0.0416 -0.2594
 8597W        W28877   4.590   7.581   4.619 -0.1886 -0.5645  0.3096
 8598W        W28878   7.618   2.058   2.248  0.2317  0.2160 -0.0333
 8599W        W28879  17.098   6.520  11.369  0.0808 -0.1315  0.3413
 8600W        W28880  11.422   8.649   1.617 -0.2804  0.0538 -0.2680
 8601W        W28881   1.878   4.234   3.355  0.3852  0.0040 -0.2273
 8602W        W28882  11.770   9.545   2.050  0.2900 -0.0939 -0.0479
 8603W        W28883   5.863   8.555   3.596 -0.1092 -0.3000 -0.4065
 8604W        W28884   0.179  10.201  15.231 -0.0955 -0.1543  0.1296
 8605W        W28885  11.811   2.067  12.638 -0.3554 -0.1554  0.1838
 8606W        W28886   1.508   4.939   4.547 -0.2097  0.0471  0.2158
 8607W        W28887   9.347  11.703  14.374  0.0243  0.1662 -0.0764
 8608W        W28888  13.622  16.755   1.607 -0.0177 -0.1079 -0.2606
 8609W        W28889   2.920  10.568  15.257  0.1635 -0.1450 -0.1732
 8610W        W28890   6.522  16.459   3.205  0.0253  0.2577  0.0189
 8611W        W28891   0.492   4.819   0.280  0.1653  0.0565  0.0792
 8612W        W28892   0.736  12.013  12.072 -0.0003  0.2999 -0.0429
 8613W        W28893  17.310  10.183  13.015  0.2465  0.1288  0.1137
 8614W        W28894   0.822  17.648  12.474 -0.1254 -0.2264  0.1382
 8615W        W28895  14.612  14.618  11.053  0.1160  0.0510 -0.0069
 8616W        W28896  18.061   4.368   4.718  0.1426  0.1023 -0.1172
 8617W        W28897   5.238   9.314   4.330  0.1897 -0.1443  0.0589
 8618W        W28898   2.599   8.447   1.720  0.0333 -0.1595 -0.0951
 8619W        W28899  16.329   4.303   2.546  0.0150  0.0418 -0.0371
 8620W        W28900  12.098   4.978   1.911  0.1393 -0.2559  0.0055
 8621W        W28901  11.911  12.302  12.089 -0.1993 -0.1578 -0.2032
 8622W        W28902   1.309  15.205   3.426  0.2531  0.1380 -0.0623
 8623W        W28903  10.301   1.073   2.799  0.0598 -0.1637 -0.3219
 8624W        W28904   1.718   7.052   2.758  0.2484  0.0632  0.1837
 8625W        W28905  17.022   2.693   3.900  0.0309  0.4141  0.0534
 8626W        W28906   9.562  18.538  13.476  0.0468  0.2498  0.0284
 8627W        W28907   0.816   5.114   1.672 -0.4238  0.0442  0.0288
 8628W        W28908  11.231  17.157  12.619  0.0469  0.0390  0.1715
 8629W        W28909  16.633   2.311  11.787  0.2642 -0.0373  0.3485
 8630W        W28910  10.730  15.537   0.866 -0.1178 -0.2893  0.0950
 8631W        W28911  17.624  15.735  14.298  0.1494 -0.0916  0.0290
 8632W        W28912   0.423   7.842   0.529  0.0017  0.0346 -0.1368
 8633W        W28913  12.411  11.293  11.572  0.3227 -0.0857  0.0279
 8634W        W28914   4.277   2.340  13.635 -0.1459  0.1591  0.1428
 8635W        W28915   7.449  10.985  12.060 -0.2321 -0.2025 -0.0187
 8636W        W28916  14.983   2.426  14.469 -0.1946 -0.4778  0.2617
 8637W        W28917  17.745   7.576  12.181  0.1520 -0.0697 -0.4860
 8638W        W28918  18.064  13.083   2.028 -0.0702  0.2634 -0.0378
 8639W        W28919   4.792   0.783   3.356  0.1209  0.2264 -0.0444
 8640W        W28920  15.569  15.478  14.063 -0.1312  0.0512 -0.4208
 8641W        W28921   9.320   4.273   2.808  0.1911  0.0132 -0.1118
 8642W        W28922   2.723  15.281  13.094  0.2588  0.0581  0.0728
 8643W        W28923  10.874   9.259   2.212  0.2941  0.3209 -0.1052
 8644W        W28924   8.311   6.975   3.399  0.0869 -0.1384  0.0883
 8645W        W28925   7.289  17.523   0.933 -0.1688  0.2429 -0.2317
 8646W        W28926  13.798  12.017   2.692  0.0403 -0.0829 -0.2150
 8647W        W28927  10.247   0.170   0.040  0.1720 -0.1345  0.0727
 8648W        W28928  13.629   5.312  11.597  0.3507  0.1619 -0.1885
 8649W        W28929   7.411  11.085  15.192 -0.1273 -0.0791  0.0406
 8650W        W28930   4.378  11.038  11.009  0.0994  0.1876 -0.0198
 8651W        W28931   8.611   0.797   3.963 -0.1953  0.0076  0.0365
 8652W        W28932  10.663  11.316  11.166 -0.1415 -0.0979 -0.2568
 8653W        W28933   2.300   1.169   1.808  0.2858  0.0712  0.1599
 8654W        W28934   8.132  12.766  14.731  0.2178 -0.2193  0.2288
 8655W        W28935   9.079  18.605  15.385 -0.2485 -0.0803 -0.1504
 8656W        W28936   9.740  12.697   1.264 -0.3439  0.0711  0.0395
 8657W        W28937  14.513  11.019  11.050 -0.1236  0.0965 -0.2753
 8658W        W28938  13.292  16.994   2.328 -0.1851 -0.1541 -0.1310
 8659W        W28939   0.174  18.734  13.500  0.1251 -0.0317 -0.1095
 8660W        W28940  12.325  16.669  11.952  0.3811 -0.0923 -0.0175
 8661W        W28941  10.325   7.060   1.712  0.2112 -0.0723  0.2300
 8662W        W28942   0.259  16.046   0.667  0.0677 -0.1129 -0.0742
 8663W        W28943  13.403  13.485   1.401 -0.3564 -0.2247  0.0464
 8664W        W28944   1.924   2.682   3.855 -0.0181 -0.1171 -0.2294
 8665W        W28945  16.551   7.439  13.195 -0.1460  0.1907  0.5985
 8666W        W28946  15.991  16.256   0.707 -0.0372  0.1096  0.3398
 8667W        W28947   2.142  14.511   1.885 -0.1962 -0.2878 -0.0698
 8668W        W28948   3.471  12.325   3.854  0.1015  0.0748 -0.4953
 8669W        W28949   0.212   6.025   3.323 -0.0177 -0.1885  0.1318
 8670W        W28950   0.341   5.780  13.115 -0.2675  0.1155 -0.0454
 8671W        W28951   7.029  10.443   0.955  0.0050  0.2345 -0.1619
 8672W        W28952   6.156   1.942   0.972  0.1231 -0.3366  0.1094
 8673W        W28953   6.553   2.272  11.113 -0.2383  0.1143 -0.1826
 8674W        W28954   8.810   9.580   0.250 -0.1696 -0.0810  0.2466
 8675W        W28955  14.997  11.966  14.450  0.0236  0.1211 -0.0355
 8676W        W28956  14.195  14.990  12.952 -0.0605  0.1343  0.1847
 8677W        W28957  17.594  15.156  11.886 -0.0783 -0.1703  0.3303
 8678W        W28958  11.270   5.330  12.513  0.3335 -0.0021 -0.0635
 8679W        W28959   3.941   0.427   0.334  0.0176 -0.2981  0.0446
 8680W        W28960  11.240   6.924   0.144 -0.2293 -0.0709  0.3172
 8681W        W28961  13.880  15.173  13.689 -0.1396 -0.2644  0.0850
 8682W        W28962  14.067   2.868   2.869  0.1506 -0.1644 -0.0314
 8683W        W28963   0.552  14.006   3.135 -0.0400  0.2678  0.1066
 8684W        W28964   8.466  14.117  14.468  0.0409 -0.2285 -0.0281
 8685W        W28965   2.637   9.142   4.097 -0.0064  0.0514 -0.1416
 8686W        W28966   8.608  14.922  11.113  0.2120  0.0535 -0.0841
 8687W        W28967   3.893   8.959   0.733 -0.2266  0.0380 -0.1855
 8688W        W28968   1.220   9.226   1.254  0.1466 -0.0719  0.0043
 8689W        W28969   7.556  12.830   0.097  0.0027  0.0491 -0.1899
 8690W        W28970  11.688  15.414  10.946  0.0599 -0.0628 -0.1050
 8691W        W28971   3.042  17.404   1.905 -0.0080 -0.0581 -0.0847
 8692W        W28972  16.854   0.726  11.258  0.2324  0.0679 -0.2650
 8693W        W28973  10.854  13.226   4.016  0.1120 -0.1649 -0.0179
 8694W        W28974   3.433  17.937   9.671 -0.0256 -0.4822 -0.1614
 8695W        W28975   3.880  10.283   2.524 -0.1351 -0.1474  0.4184
 8696W        W28976   2.181   4.445   1.258  0.2391  0.2225 -0.1082
 8697W        W28977   3.395  16.821  13.121  0.0714 -0.0526 -0.3639
 8698W        W28978   0.707  12.164   1.873 -0.0179  0.1461 -0.1206
 8699W        W28979  17.615   6.330  11.251  0.1420 -0.0461  0.0158
 8700W        W28980   6.533   1.543   1.000 -0.0493 -0.0563  0.2366
 8701W        W28981   0.784  10.918  13.484  0.4663  0.4043 -0.1668
 8702W        W28982  12.940   1.299  14.394 -0.0770 -0.1249  0.4151
 8703W        W28983   7.060  17.397   0.006 -0.1112 -0.4304  0.2085
 8704W        W28984   8.239   2.156  12.915 -0.1293 -0.1085 -0.0121
 8705W        W28985   9.685  13.841  14.900  0.1130 -0.1407 -0.1352
 8706W        W28986   6.383   4.532   2.099  0.0131  0.1287 -0.5152
 8707W        W28987  17.828   1.042   4.546 -0.0946  0.1499 -0.2375
 8708W        W28988  10.103   9.699  11.840  0.1840 -0.0668  0.1098
 8709W        W28989   7.388  14.843   0.262  0.2519 -0.0428  0.2426
 8710W        W28990  17.718   6.209   1.133 -0.0345  0.0558 -0.1231
 8711W        W28991  15.909   6.883   4.491 -0.3700 -0.0700 -0.0646
 8712W        W28992   4.111   3.064   3.054 -0.0551  0.0436  0.0902
 8713W        W28993  14.074  18.219   0.661 -0.2039 -0.1267  0.0568
 8714W        W28994   6.760  12.580   2.077 -0.1155 -0.3914  0.1120
 8715W        W28995   0.721   7.036  11.492  0.1104 -0.0049  0.1380
 8716W        W28996  14.972   7.450   0.972  0.0539 -0.0721 -0.0270
 8717W        W28997   9.097   3.454  11.202 -0.6126 -0.0423 -0.0064
 8718W        W28998   5.221  13.566   3.913 -0.0393  0.0286 -0.1077
 8719W        W28999   5.085   3.182   1.867 -0.2084  0.0704 -0.3255
 8720W        W29000   1.054   6.769  11.893 -0.1007  0.0076  0.1359
 8721W        W29001   1.801  17.126   3.733 -0.0719 -0.2220  0.0172
 8722W        W29002  12.338   1.054  11.804  0.2096  0.2925 -0.0070
 8723W        W29003  15.574   6.113   0.187  0.0008 -0.1515 -0.0438
 8724W        W29004  18.285   5.143  14.626  0.2366  0.0313  0.2091
 8725W        W29005   2.262  15.481  13.010 -0.5546 -0.0096 -0.3303
 8726W        W29006  10.207  15.295  11.622  0.0168 -0.1341 -0.0099
 8727W        W29007  14.508   0.266   4.849 -0.2562 -0.1160  0.0376
 8728W        W29008  10.343   5.611  13.790  0.1061 -0.1107  0.0931
 8729W        W29009   8.613   9.661  14.017 -0.1173 -0.1227  0.0957
 8730W        W29010  16.547   1.847   4.062 -0.1353  0.3126 -0.4320
 8731W        W29011  17.708  15.878   3.045 -0.1550 -0.0212  0.2405
 8732W        W29012  14.712   0.181   0.025 -0.2713 -0.0992 -0.1717
 8733W        W29013   0.354   0.262   3.281  0.1615  0.1391 -0.1175
 8734W        W29014  17.960   1.034   2.345  0.0155  0.1486 -0.1349
 8735W        W29015  13.943   9.681  14.291  0.0539  0.0114  0.1395
 8736W        W29016   5.483   1.334  13.461  0.0593 -0.1526  0.2422
 8737W        W29017   5.544   6.467   2.902  0.0855 -0.4815 -0.0117
 8738W        W29018  12.161   7.941  12.480  0.2054 -0.1316  0.2384
 8739W        W29019   8.824   6.747   3.796  0.0551  0.0809 -0.0543
 8740W        W29020   8.141  13.082   3.222 -0.0298 -0.1130  0.1315
 8741W        W29021   5.814   8.216   1.158  0.1609  0.1984 -0.4461
 8742W        W29022  16.194   1.968   3.103 -0.1704 -0.2785 -0.1207
 8743W        W29023   6.953  15.038  15.262  0.2417 -0.0899  0.4089
 8744W        W29024  13.324   5.909  13.920 -0.3199  0.0066  0.0817
 8745W        W29025   8.588  17.538   9.813 -0.0945 -0.0291 -0.1448
 8746W        W29026  13.901  13.124  13.943 -0.2742 -0.1392  0.1469
 8747W        W29027   3.850  11.137  14.544 -0.1183 -0.0340 -0.1870
 8748W        W29028  16.045  13.418   3.452 -0.0229 -0.0484  0.0809
 8749W        W29029   8.256  11.696  12.803 -0.1363 -0.0481  0.2503
 8750W        W29030  10.277  11.792  12.188 -0.2572  0.1230  0.2194
 8751W        W29031  12.172   8.905  13.629 -0.0872  0.0353  0.0266
 8752W        W29032  18.639   8.161   2.219  0.0719 -0.3472 -0.0432
 8753W        W29033   7.413   7.190   1.911  0.1928  0.1687  0.0624
 8754W        W29034  11.172  14.724  11.994  0.3952 -0.1569 -0.2114
 8755W        W29035   8.741   4.317  14.179 -0.3931 -0.2609  0.3882
 8756W        W29036   5.696   3.453   3.026  0.0092  0.2315 -0.0864
 8757W        W29037  13.430   7.292  14.651  0.2385 -0.3304  0.1932
 8758W        W29038  11.203   8.208   1.413 -0.2757 -0.0401  0.0716
 8759W        W29039  10.588   7.846   3.540 -0.0661  0.1426  0.1962
 8760W        W29040   4.816   0.852   2.374  0.0598  0.0501  0.1210
 8761W        W29041   9.128  15.585   3.796  0.3456  0.1982  0.0875
 8762W        W29042  14.860   5.083  13.306  0.0901 -0.1848  0.3720
 8763W        W29043   9.634   5.947  12.970 -0.2144  0.0238  0.0805
 8764W        W29044   1.217   7.712  12.653  0.1116 -0.1211 -0.0436
 8765W        W29045  17.420  13.987   0.166  0.0518  0.0550  0.1143
 8766W        W29046   8.844   6.270  14.228 -0.1099 -0.2054  0.1690
 8767W        W29047  12.775   1.817  11.597  0.2024 -0.2221 -0.1683
 8768W        W29048  11.191  11.841  11.292 -0.1291  0.0047  0.0278
 8769W        W29049  11.204  13.899  12.590 -0.1897 -0.1158 -0.1628
 8770W        W29050   3.691   9.642   4.092  0.0830  0.0207  0.2208
 8771W        W29051   3.143   1.128   2.288  0.0625 -0.0404 -0.0944
 8772W        W29052   4.610  18.661  15.124  0.3185 -0.0689 -0.3430
 8773W        W29053   4.860  16.101  14.471  0.3330 -0.0966  0.1345
 8774W        W29054   6.577  11.486   2.242  0.0608 -0.0748 -0.0487
 8775W        W29055   4.657  14.457  15.260 -0.1699 -0.1572 -0.0507
 8776W        W29056  17.066   3.792   0.086 -0.1784  0.0428 -0.1268
 8777W        W29057   8.882  10.142   4.454  0.1234 -0.0984 -0.1650
 8778W        W29058  14.359  13.399  13.945 -0.0263  0.3976 -0.1697
 8779W        W29059  14.714   7.331   2.355 -0.0260  0.0803  0.0631
 8780W        W29060  15.788  14.815  12.839  0.1221  0.1260  0.0826
 8781W        W29061   6.085  12.331   1.539 -0.0272  0.0147 -0.0954
 8782W        W29062   6.346  12.490  14.537  0.3396 -0.0382 -0.0025
 8783W        W29063  13.477   2.964  14.781 -0.2501 -0.0260  0.3827
 8784W        W29064   0.150  16.650   3.431 -0.1498  0.4197 -0.0466
 8785W        W29065   2.421   2.295   3.123  0.1727 -0.1206  0.1300
 8786W        W29066  14.396   9.527  12.431 -0.3364  0.0132 -0.0729
 8787W        W29067   8.228  13.515  15.155 -0.1874 -0.1382 -0.0932
 8788W        W29068  10.708  18.175  12.322 -0.3342  0.0418  0.1168
 8789W        W29069   8.129  16.710   0.745  0.4898 -0.5636  0.0738
 8790W        W29070   8.815  11.588  14.525 -0.6025 -0.2331  0.0585
 8791W        W29071  17.913  15.411  13.365 -0.1859 -0.2680  0.1442
 8792W        W29072  14.918  18.472  11.430  0.0086 -0.0292  0.2645
 8793W        W29073  14.284  14.570  12.259  0.0765 -0.0774  0.1439
 8794W        W29074  11.684  17.647   2.356  0.2331  0.0195 -0.0768
 8795W        W29075   2.049  11.700  13.788  0.1349  0.0918 -0.2336
 8796W        W29076   4.798   9.060   0.920  0.3725 -0.1403  0.1838
 8797W        W29077   8.494  13.194   0.099  0.0758  0.0606 -0.0578
 8798W        W29078   3.554  18.668  13.127 -0.1926 -0.0388  0.0028
 8799W        W29079   8.452   9.992   0.482  0.1226 -0.0476 -0.1919
 8800W        W29080  16.605  17.078  12.174  0.0091 -0.0961 -0.1588
 8801W        W29081   9.867  10.073   2.501 -0.0500 -0.0927  0.1847
 8802W        W29082   4.710  11.678  12.986 -0.1139  0.1848  0.3066
 8803W        W29083   3.154   2.236   3.631 -0.1858 -0.0444 -0.0486
 8804W        W29084  11.842   7.853   3.825  0.0638  0.0559 -0.1921
 8805W        W29085  12.312   9.946   4.667 -0.2269  0.0792  0.2966
 8806W        W29086  17.731   9.141   2.693 -0.1496  0.1074  0.2303
 8807W        W29087   3.904  18.192   2.257  0.1361 -0.4977  0.3437
 8808W        W29088  16.561   1.855   2.733  0.0301  0.0277 -0.1669
 8809W        W29089   8.381  14.689  12.878  0.0076  0.1715 -0.2768
 8810W        W29090  15.077  17.787  14.581 -0.1378 -0.3065 -0.1799
 8811W        W29091   7.866  11.933   1.803  0.2815  0.1098 -0.4025
 8812W        W29092  11.282   1.161   4.421  0.2114 -0.1850 -0.0753
 8813W        W29093   2.715  10.091   1.494 -0.1257  0.1602 -0.1447
 8814W        W29094   5.847  15.137  14.488 -0.0893 -0.1136  0.3904
 8815W        W29095  11.959   9.320  14.495 -0.0414  0.1101 -0.1489
 8816W        W29096  16.355  15.317   4.307 -0.0904 -0.1050  0.0433
 8817W        W29097   8.218  10.706   4.365  0.1214 -0.2594 -0.1635
 8818W        W29098  18.700  17.486   2.280 -0.0875 -0.2242  0.1491
 8819W        W29099  13.346  12.004  12.501  0.0379  0.0479  0.2736
 8820W        W29100   5.822  14.419  11.501  0.1028  0.1140  0.1034
 8821W        W29101   5.129   2.604  11.352  0.0739  0.0036 -0.0532
 8822W        W29102   3.540  10.802  13.814 -0.2422 -0.0599  0.2334
 8823W        W29103   7.328  13.747  15.314 -0.2590 -0.2566 -0.1885
 8824W        W29104   2.258   7.492  11.470 -0.2222 -0.0014 -0.1643
 8825W        W29105  17.816  15.810  12.414  0.1264 -0.0091 -0.0042
 8826W        W29106   7.467   3.404   1.399 -0.2097  0.0745  0.1661
 8827W        W29107   5.720  18.553   1.179  0.1225 -0.3695  0.0570
 8828W        W29108  17.278   1.968   2.267 -0.0521  0.1919 -0.0647
 8829W        W29109  16.472   7.102  12.451  0.3336 -0.0964  0.1281
 8830W        W29110   6.445   7.807   4.594 -0.1775  0.0531 -0.1346
 8831W        W29111   8.463   7.337  13.943  0.0443  0.0603 -0.2574
 8832W        W29112   8.934   9.435   2.788 -0.0816  0.0759 -0.1516
 8833W        W29113  10.896   3.187  11.442  0.0559 -0.1481 -0.1926
 8834W        W29114  11.831  14.702  13.303  0.2453  0.1089 -0.0610
 8835W        W29115   0.327   5.286  11.152  0.1472 -0.1618 -0.0346
 8836W        W29116   9.979   6.604   3.112  0.1321  0.4875 -0.1674
 8837W        W29117   7.491  14.177  15.149 -0.0806 -0.0263 -0.0181
 8838W        W29118   8.142   2.329  11.598  0.1718  0.0991  0.1298
 8839W        W29119  14.948  17.301   3.165  0.0125 -0.0830 -0.0627
 8840W        W29120  10.298   0.093  11.334  0.0123  0.2316 -0.0816
 8841W        W29121   9.210   7.961  11.047  0.1116  0.0383  0.0427
 8842W        W29122   0.822   3.029  11.705  0.2695  0.0321 -0.0074
 8843W        W29123   7.846   5.201  11.087  0.0753 -0.4625 -0.1138
 8844W        W29124  13.365  17.706  10.549  0.0581  0.1769  0.4160
 8845W        W29125   9.099   0.835   9.747  0.0103 -0.1192  0.1049
 8846W        W29126   4.199  18.351   9.812  0.1357  0.1125 -0.1160
 8847W        W29127   7.677   3.633   0.767 -0.2444  0.2803  0.0919
 8848W        W29128  13.304   8.399   4.541 -0.0831  0.1293 -0.2490
 8849W        W29129   2.855   5.611  14.936 -0.0420  0.0939  0.1077
 8850W        W29130  13.367   5.494   0.624  0.0682  0.0031  0.0730
 8851W        W29131  11.444   0.193   1.986 -0.2048  0.0672 -0.1073
 8852W        W29132   6.897   6.435   1.762  0.2406 -0.0200  0.3539
 8853W        W29133  17.178   2.596  13.422 -0.0542  0.0088 -0.2132
 8854W        W29134   9.765   0.384   4.528 -0.4147  0.0319  0.0657
 8855W        W29135   8.287   2.603  14.927  0.0746 -0.3560 -0.1126
 8856W        W29136  15.830  15.590  14.895 -0.0077  0.0041 -0.4603
 8857W        W29137   1.118  16.982   0.186  0.2910 -0.1024  0.0313
 8858W        W29138  11.505   4.431  11.622 -0.0685 -0.0767 -0.4857
 8859W        W29139  15.671  18.662  13.049  0.0436  0.3629 -0.1321
 8860W        W29140   5.036  15.227   4.224 -0.0099 -0.2711 -0.0192
 8861W        W29141  10.349   7.351   1.308 -0.1229 -0.0184  0.1384
 8862W        W29142  17.901   7.693  11.739 -0.3028  0.3580 -0.1706
 8863W        W29143  12.500  17.054   3.832 -0.0902  0.1007 -0.2805
 8864W        W29144   7.682  13.431   0.576  0.0025  0.0973  0.1521
 8865W        W29145  11.808  10.000   2.815  0.1520 -0.0262  0.1414
 8866W        W29146  11.831   2.204   1.848  0.0397 -0.0555 -0.0144
 8867W        W29147   1.070   5.003   2.561 -0.2029 -0.1133  0.1394
 8868W        W29148   0.750  15.211  14.655 -0.4027 -0.4805 -0.0612
 8869W        W29149   7.290   7.212   1.386  0.3519 -0.2103 -0.1149
 8870W        W29150   7.647  11.543   2.071  0.2727  0.1959 -0.0069
 8871W        W29151  18.463   0.219  14.380 -0.1565  0.0165  0.0887
 8872W        W29152   0.339  11.624   1.969 -0.2593 -0.0310  0.1333
 8873W        W29153   5.902   0.532  15.039 -0.1481 -0.0487 -0.3248
 8874W        W29154   8.565   5.612  13.380  0.0587  0.0127  0.0848
 8875W        W29155   2.371   3.217  12.780 -0.4686 -0.2519  0.1837
 8876W        W29156   2.101   4.341   0.438 -0.1733 -0.0296 -0.1435
 8877W        W29157  13.639   7.933  15.358 -0.1824 -0.0904  0.0345
 8878W        W29158  16.621  10.804   1.617  0.2467  0.4731  0.4588
 8879W        W29159  16.022   1.428  11.915  0.0954  0.0253 -0.0038
 8880W        W29160  13.115   8.676  11.527  0.2236  0.0471 -0.4540
 8881W        W29161  16.602   3.817   2.898 -0.0883 -0.0400  0.3732
 8882W        W29162   5.519   0.138  12.382 -0.0956  0.1954  0.2811
 8883W        W29163   3.508  17.672   4.036 -0.2165  0.0487 -0.2078
 8884W        W29164  14.674   2.234   2.432 -0.0879  0.2123  0.1697
 8885W        W29165  17.272  10.670  11.092 -0.2898 -0.0560 -0.0768
 8886W        W29166   3.893  14.846   3.131 -0.1420  0.0804  0.0964
 8887W        W29167   8.877  13.532   0.279  0.1167 -0.0115  0.3646
 8888W        W29168  11.842   0.885  11.970  0.0352 -0.1761  0.0967
 8889W        W29169   8.098   6.201   1.060 -0.2341 -0.0688 -0.0950
 8890W        W29170   3.693   8.684  14.388  0.0215  0.1357  0.3431
 8891W        W29171   3.663   9.490  10.828 -0.1066 -0.0552 -0.1634
 8892W        W29172  18.392   2.100   1.469 -0.1027 -0.1593 -0.0892
 8893W        W29173   1.713   4.599   3.092 -0.1495 -0.0540 -0.3193
 8894W        W29174  18.177   8.318  11.931 -0.0510  0.1418  0.1077
 8895W        W29175  15.580  17.978  14.898 -0.2767  0.1730  0.0048
 8896W        W29176   2.746   8.383  10.934  0.0324 -0.1907 -0.0931
 8897W        W29177  16.306  12.943   3.367 -0.0437 -0.2397 -0.1062
 8898W        W29178   9.574   5.852  14.185  0.1427  0.1392  0.0322
 8899W        W29179   4.470   0.225   3.552  0.3058  0.0105  0.0266
 8900W        W29180   3.066   1.362   3.964 -0.0485  0.2722 -0.2072
 8901W        W29181  16.493   0.569  12.714 -0.0765  0.0965 -0.1052
 8902W        W29182   3.281   8.808  14.614  0.2167 -0.0307 -0.2046
 8903W        W29183  17.369   0.628   0.826  0.0162  0.0614  0.1599
 8904W        W29184  10.641   1.404  14.336 -0.2276  0.0971 -0.1434
 8905W        W29185  17.117   5.759  11.309 -0.4319  0.0369  0.0248
 8906W        W29186  10.763   7.918   1.455  0.3285  0.3589 -0.1648
 8907W        W29187   6.818  14.416   0.282  0.0641 -0.1247  0.1620
 8908W        W29188   6.218   0.541  13.121  0.1910 -0.0756 -0.0811
 8909W        W29189  15.410   0.567  12.370  0.1496  0.2755  0.2431
 8910W        W29190   9.919   1.469   0.018 -0.0461  0.1639  0.0615
 8911W        W29191   5.130   4.222   3.313  0.0866  0.1080 -0.0306
 8912W        W29192   9.250  17.650  15.313 -0.1150  0.1429  0.3640
 8913W        W29193   5.537  10.898  12.354  0.0000  0.1290 -0.0139
 8914W        W29194  18.017  11.738  11.972  0.2133 -0.2142 -0.0650
 8915W        W29195  13.957   8.034  12.579  0.0441 -0.1978  0.0758
 8916W        W29196   1.811   4.158   3.903 -0.3275 -0.2148  0.0653
 8917W        W29197   9.723   8.821  13.808 -0.3156  0.0159  0.0346
 8918W        W29198   3.901   4.371   0.473  0.2245  0.2932 -0.0288
 8919W        W29199   1.282   2.179  13.807  0.3287 -0.3129  0.0758
 8920W        W29200   4.606  17.628  13.310  0.2067  0.2131  0.1191
 8921W        W29201   3.522   1.545   4.110 -0.1990  0.0213 -0.0432
 8922W        W29202   5.249   3.861   3.682  0.2503 -0.1278  0.4103
 8923W        W29203   7.479   1.646   3.083  0.2224  0.0803 -0.1359
 8924W        W29204   5.076  16.725   1.523  0.2332  0.0144  0.1799
 8925W        W29205  14.181   7.369   3.612 -0.2613  0.1031  0.2442
 8926W        W29206  15.460  15.209  15.037  0.1533 -0.0234 -0.0607
 8927W        W29207   7.690   8.382   1.704 -0.2011  0.1517  0.2055
 8928W        W29208   7.474   0.738   3.997 -0.1917 -0.2901  0.0786
 8929W        W29209   5.115   9.444  14.874 -0.1519 -0.0700 -0.2483
 8930W        W29210   1.950  15.578   3.711 -0.0608  0.2053  0.1079
 8931W        W29211  16.193  11.363   3.287  0.0212 -0.0942 -0.1886
 8932W        W29212   3.638  10.343  14.007  0.1158 -0.0288  0.1527
 8933W        W29213   8.110   5.210  11.505  0.1363 -0.0787 -0.0095
 8934W        W29214  18.012  16.127   0.259 -0.0802 -0.3062  0.3505
 8935W        W29215   9.803  17.743  13.870 -0.0787 -0.0914  0.1576
 8936W        W29216  12.460  15.827  11.293 -0.2008 -0.3085 -0.0879
 8937W        W29217  10.804  11.059  12.414  0.0150  0.0234  0.1634
 8938W        W29218  13.987  14.740  12.542 -0.3187  0.0589  0.2338
 8939W        W29219  12.543  14.255   4.596  0.0931 -0.3737  0.1283
 8940W        W29220   3.704  12.848  14.855  0.0413  0.2116 -0.2375
 8941W        W29221  11.325   6.576   4.869 -0.0898 -0.2242 -0.0330
 8942W        W29222   1.984  17.037   2.392 -0.0346  0.1225 -0.2074
 8943W        W29223  15.098  16.912   1.411 -0.0893 -0.1545  0.2601
 8944W        W29224  12.485  15.669   2.267 -0.1641  0.1232  0.1441
 8945W        W29225  17.636   8.721  13.754 -0.2141 -0.0629 -0.1051
 8946W        W29226  18.078  11.734   2.817 -0.1908  0.3193  0.0247
 8947W        W29227  16.390   0.058  13.577 -0.1088 -0.2484  0.2035
 8948W        W29228  17.246   6.559  12.325  0.2568  0.2109 -0.0616
 8949W        W29229  12.903  17.547  13.351  0.0918 -0.0565 -0.0274
 8950W        W29230   3.093   3.789   2.983 -0.1542  0.2544 -0.2525
 8951W        W29231  16.489   8.923  12.690 -0.0673 -0.0369 -0.1607
 8952W        W29232  10.240  18.597  13.472  0.1309  0.0153 -0.0309
 8953W        W29233  11.041   2.592  15.025  0.1623  0.1980 -0.1708
 8954W        W29234  17.573   4.596   4.740  0.0890  0.0158 -0.0023
 8955W        W29235  12.734   1.757   3.197  0.0504  0.1092  0.0051
 8956W        W29236  14.447   4.814  12.486 -0.0728 -0.2198  0.0758
 8957W        W29237  17.316  13.628  12.148 -0.2248  0.0414 -0.0701
 8958W        W29238   7.926  11.176  11.915 -0.0281 -0.1729  0.0264
 8959W        W29239   1.000   1.394  12.633 -0.1646 -0.0032  0.0057
 8960W        W29240  13.801  11.101  13.432  0.1095  0.1976 -0.0432
 8961W        W29241   5.569  10.110  15.276 -0.1127 -0.0811 -0.0887
 8962W        W29242  11.797   9.839  13.656 -0.0925 -0.0986  0.1045
 8963W        W29243   9.141  17.860   0.960  0.0930  0.0204 -0.3302
 8964W        W29244  12.161   6.951  13.821 -0.0148 -0.0344 -0.0882
 8965W        W29245   4.863   5.353  14.647 -0.2529  0.0357 -0.0208
 8966W        W29246   2.215   1.428   3.994 -0.0771  0.0231  0.3116
 8967W        W29247   2.130   7.690  15.107  0.1558 -0.0729 -0.1866
 8968W        W29248  15.548   9.256  14.813 -0.1888 -0.2113 -0.0099
 8969W        W29249   5.676  10.876  11.847  0.2705  0.2402  0.1657
 8970W        W29250  10.692   0.861  13.343 -0.1979 -0.0750  0.1855
 8971W        W29251  11.556  11.728  15.040 -0.2829 -0.2267 -0.0731
 8972W        W29252   2.293   4.564  11.745 -0.0877 -0.2026  0.2647
 8973W        W29253   2.997   1.283  12.643  0.1088 -0.0052  0.0083
 8974W        W29254  10.105  17.823   0.375  0.3450  0.0630 -0.1302
 8975W        W29255  16.329  10.207  12.660  0.2467  0.1298  0.2170
 8976W        W29256   0.615   2.249   0.052 -0.2604  0.2979 -0.1994
 8977W        W29257   4.979   0.292  14.897  0.0676 -0.1167  0.1658
 8978W        W29258  15.843  16.118   0.270  0.2030  0.1652 -0.1391
 8979W        W29259   6.896   5.601  13.669 -0.0338  0.2770 -0.2176
 8980W        W29260   5.870   7.974   3.098  0.1850  0.1713 -0.0901
 8981W        W29261   3.537   4.687  11.645  0.1776 -0.2159  0.0734
 8982W        W29262  16.982   7.464  11.692  0.1228 -0.1455  0.2511
 8983W        W29263   0.638  17.121   0.063 -0.2166  0.0298 -0.1767
 8984W        W29264  17.623   0.336  13.263  0.0313  0.1311  0.0883
 8985W        W29265  13.199  11.276   3.049 -0.1869 -0.2207 -0.0098
 8986W        W29266  15.493  16.497  12.596  0.3918  0.0239  0.1136
 8987W        W29267   4.532   1.007   0.614  0.3676 -0.0354 -0.0100
 8988W        W29268  17.583  17.489  13.059  0.0205  0.2010  0.0906
 8989W        W29269   0.730  16.373   4.118 -0.0909  0.2825  0.0312
 8990W        W29270   4.211   0.708  12.888 -0.0008  0.0605 -0.1621
 8991W        W29271  11.123   3.751  13.612  0.2801 -0.0939 -0.0734
 8992W        W29272  14.608   4.840   4.461  0.0727  0.0397 -0.3009
 8993W        W29273  15.528   0.159  14.881  0.0820  0.1780 -0.1185
 8994W        W29274  15.204  17.615  13.404 -0.4649  0.1900 -0.0250
 8995W        W29275   6.404  16.782  14.130  0.1741 -0.1566 -0.2091
 8996W        W29276   7.367   1.049  13.220  0.2603  0.1865  0.1414
 8997W        W29277  12.677  14.644  11.937  0.4134  0.1719 -0.0452
 8998W        W29278  11.369   4.329   0.511  0.2480  0.1843  0.1512
 8999W        W29279   3.836   1.330   4.468 -0.0664  0.0999 -0.0518
 9000W        W29280  11.505  18.118  14.626  0.2473 -0.0306 -0.0131
 9001W        W29281  13.632   5.832  12.347  0.1292 -0.0398  0.0451
 9002W        W29282  10.105  16.056   0.158  0.2174  0.0929  0.3910
 9003W        W29283   6.312   1.055  14.054  0.1901 -0.1946 -0.3936
 9004W        W29284   1.004   4.752   3.420  0.0366  0.0474  0.1784
 9005W        W29285  10.473  18.431  10.593  0.1085 -0.1466 -0.0345
 9006W        W29286   7.455   7.990   1.403 -0.1461  0.0182 -0.0180
 9007W        W29287   5.946  16.308   1.864  0.2189 -0.2263 -0.1358
 9008W        W29288   5.600   1.446  10.174 -0.1120 -0.0563  0.3645
 9009W        W29289  10.921   1.814   1.685  0.0078  0.1503 -0.1416
 9010W        W29290   0.710  18.490  14.110 -0.1072  0.2680  0.0530
 9011W        W29291  14.493  10.914   3.375  0.2292 -0.0310  0.1779
 9012W        W29292  12.604   0.665   1.252 -0.0407  0.2762  0.0516
 9013W        W29293  12.300  14.349   4.148  0.1965  0.1133  0.0338
 9014W        W29294  10.488   9.442  11.581 -0.1893  0.0284 -0.0922
 9015W        W29295   3.155   3.824   1.860  0.2724  0.0222  0.2561
 9016W        W29296  14.508   9.114   0.278 -0.0208 -0.2622 -0.0294
 9017W        W29297   0.469   8.712   1.094  0.0777 -0.2069  0.0898
 9018W        W29298   0.715   6.024  13.426 -0.0304 -0.1832  0.3483
 9019W        W29299   4.410   1.542   0.764 -0.0721  0.1298 -0.0247
 9020W        W29300   4.186  11.741  14.798 -0.2331 -0.0081 -0.0227
 9021W        W29301   4.935  14.233   3.402  0.0844  0.1549  0.1438
 9022W        W29302  18.263  11.136  12.450 -0.0992  0.1197  0.2152
 9023W        W29303   4.063   4.223  13.862  0.0747 -0.1995 -0.4208
 9024W        W29304   8.223  15.205   2.994 -0.1055  0.2080  0.0247
 9025W        W29305   6.063   3.150   2.383 -0.1552 -0.2339  0.0153
 9026W        W29306  18.434   1.935  14.646 -0.2374 -0.0314  0.0561
 9027W        W29307  14.844   1.087  14.871  0.0134  0.1209 -0.1295
 9028W        W29308  15.207   3.941  12.365  0.1481 -0.0473  0.1375
 9029W        W29309   2.403   7.169   2.084  0.2384 -0.0786  0.1016
 9030W        W29310   0.151   2.238  14.540 -0.0534  0.0852  0.0775
 9031W        W29311  14.975   5.215  11.373 -0.0948  0.2181  0.1196
 9032W        W29312  11.706   7.655   0.097 -0.0021  0.1508  0.2995
 9033W        W29313   1.880   9.741   3.888  0.3706  0.1307  0.0945
 9034W        W29314   1.195   3.211  14.449 -0.0250  0.0923  0.0330
 9035W        W29315  14.562  10.846   1.756  0.0231  0.1823  0.0523
 9036W        W29316  10.456   4.112  11.956  0.0059 -0.0830  0.3580
 9037W        W29317  13.458   7.594   4.641 -0.0432 -0.0848  0.2133
 9038W        W29318   2.351   4.816   1.592 -0.2082 -0.1951 -0.1346
 9039W        W29319  10.786  11.844   2.635  0.0608  0.1325  0.0771
 9040W        W29320  11.796   2.670  14.344  0.2692  0.0595 -0.3261
 9041W        W29321   5.355  16.986   3.667 -0.0423  0.2116 -0.0200
 9042W        W29322   0.064  18.324  13.167  0.0164 -0.2719  0.1501
 9043W        W29323  11.254  17.190   3.316 -0.0067 -0.0610  0.0895
 9044W        W29324   9.813   7.130  14.407 -0.2466 -0.2579  0.2045
 9045W        W29325   0.381  14.056   0.609 -0.1532  0.0048  0.4864
 9046W        W29326   7.153  14.165  12.738  0.1331  0.0162  0.1941
 9047W        W29327  15.440   8.365  13.140  0.0048 -0.1958 -0.0446
 9048W        W29328  13.898  11.826  13.747  0.0879 -0.0866  0.0766
 9049W        W29329  14.954  13.962   3.573  0.0374  0.1811  0.0934
 9050W        W29330  14.429   2.117   4.989  0.0460  0.0605  0.0753
 9051W        W29331  15.269  16.967  14.143  0.0714 -0.0348  0.0825
 9052W        W29332  10.126  18.158   3.152 -0.0712  0.0345  0.3643
 9053W        W29333   2.963  13.606  14.796 -0.1343 -0.2074 -0.4237
 9054W        W29334  14.732  14.680   3.882  0.3105 -0.0728 -0.0103
 9055W        W29335  14.897  18.288   2.329 -0.1438  0.1328  0.0350
 9056W        W29336   9.265   3.123   3.262  0.0317 -0.0696  0.2545
 9057W        W29337  18.657  11.583  14.444  0.1460  0.2337 -0.1275
 9058W        W29338   1.503   0.440   1.258  0.2321 -0.2744  0.2561
 9059W        W29339   7.531  14.366   2.020 -0.0024 -0.1614 -0.3037
 9060W        W29340   6.830   2.076   3.372 -0.0090  0.0311  0.2611
 9061W        W29341   2.107   3.763  11.229  0.0571  0.3428 -0.4299
 9062W        W29342  13.444   9.014   2.151  0.0434 -0.0547 -0.2288
 9063W        W29343   4.545   6.750  13.421 -0.3304 -0.0361 -0.0270
 9064W        W29344   9.343  11.796  13.834  0.0607 -0.0667 -0.0004
 9065W        W29345   7.205   0.764  11.744 -0.2655 -0.0007  0.1618
 9066W        W29346  10.773  18.414  11.327  0.2655  0.1489  0.1850
 9067W        W29347   4.244  16.164  13.928 -0.0808  0.0149  0.1916
 9068W        W29348   2.704  16.213  13.861 -0.2114 -0.2530  0.1307
 9069W        W29349   1.846   2.718   3.336  0.1654  0.2851 -0.1769
 9070W        W29350  17.872   3.648  11.689  0.0345 -0.2035  0.1442
 9071W        W29351   5.099   8.676  14.542  0.1712  0.1404  0.0601
 9072W        W29352   1.461   2.988   0.556 -0.0594 -0.1706  0.3095
 9073W        W29353  15.060  11.872   2.311  0.1512 -0.1055 -0.2096
 9074W        W29354   9.359   0.677   4.478  0.2433  0.2082 -0.0651
 9075W        W29355   5.411  11.056   3.813 -0.3076 -0.0541 -0.0265
 9076W        W29356  15.110  10.903   2.633  0.3109  0.0679  0.0510
 9077W        W29357   3.074  15.106   3.958 -0.1151 -0.2409  0.0422
 9078W        W29358   3.521  13.593   5.036 -0.0844  0.2367  0.0536
 9079W        W29359   4.349   8.084   1.151 -0.0203 -0.1067  0.0995
 9080W        W29360  12.053   6.791  12.210 -0.0400 -0.2473  0.1660
 9081W        W29361   8.253   6.739  12.106 -0.0924 -0.2114 -0.3683
 9082W        W29362   9.728  15.374   3.622  0.1360 -0.1809 -0.3263
 9083W        W29363  10.406   2.602  11.004 -0.0222  0.1164 -0.0014
 9084W        W29364   3.036  11.330  12.584  0.0447 -0.0018 -0.1144
 9085W        W29365   9.284   9.388   3.208  0.0084 -0.1190 -0.0238
 9086W        W29366   3.878   1.823  11.606  0.0155  0.2622 -0.2176
 9087W        W29367   4.580   4.363  13.749  0.1706 -0.0099 -0.1981
 9088W        W29368  12.905   0.116   0.370  0.0196 -0.7443 -0.2784
 9089W        W29369   1.950  12.215   1.070 -0.0416 -0.4453 -0.0881
 9090W        W29370   1.265   3.904  11.203 -0.2524 -0.0330 -0.3004
 9091W        W29371  18.671   4.030  12.168 -0.3037  0.0532 -0.0494
 9092W        W29372  13.641   5.749  11.823 -0.1952 -0.4513  0.0266
 9093W        W29373   4.275   2.605  12.499 -0.1603  0.1221 -0.2894
 9094W        W29374  14.604  17.008   2.478 -0.0814  0.0404 -0.0245
 9095W        W29375  15.905  12.785   1.198  0.0379 -0.2644  0.5789
 9096W        W29376   5.303   6.708  13.239 -0.0581  0.3474  0.0299
 9097W        W29377  12.638   9.780   2.380 -0.2142  0.0913  0.1816
 9098W        W29378   0.766  18.403  11.788  0.1524  0.1877  0.3308
 9099W        W29379  18.399  13.104  14.427  0.1292 -0.3513  0.0899
 9100W        W29380   4.062   5.761  14.815  0.2508 -0.0892  0.1950
 9101W        W29381  14.947  16.696  11.551  0.1653 -0.1060  0.0351
 9102W        W29382  14.167  17.391  14.303  0.1021 -0.0980 -0.1354
 9103W        W29383  12.400  17.026   2.520  0.3193  0.2419 -0.1960
 9104W        W29384   4.654  17.689  11.896  0.0408  0.1442  0.1839
 9105W        W29385   5.976  14.924   0.784  0.3993  0.0103 -0.1375
 9106W        W29386  11.750  10.526   1.075  0.2887  0.1490  0.0002
 9107W        W29387  11.252  13.543   3.817  0.0381  0.1468  0.0180
 9108W        W29388   2.647  14.636   1.717  0.0188  0.1854 -0.3269
 9109W        W29389   8.277  16.236   3.230 -0.0529  0.3590  0.4480
 9110W        W29390   0.969  18.244   3.493  0.1459 -0.1683 -0.1268
 9111W        W29391  17.522  14.560   2.754  0.2596 -0.0071  0.1891
 9112W        W29392   8.814   8.070  14.939 -0.2100 -0.0236  0.0592
 9113W        W29393  12.994  16.383   2.870 -0.0561 -0.1285  0.0412
 9114W        W29394  13.971  18.410  13.889 -0.2234  0.0375 -0.0135
 9115W        W29395  18.476   6.214   3.619 -0.2125  0.0867  0.0663
 9116W        W29396  12.581   2.862   4.082  0.2317 -0.1675 -0.3069
 9117W        W29397   0.186  12.170   1.839 -0.2628 -0.1214  0.1148
 9118W        W29398   6.025  13.693   3.305 -0.3439  0.2525  0.1183
 9119W        W29399   7.595   7.894  12.381 -0.1999 -0.2290 -0.0644
 9120W        W29400   3.094  16.765   3.931  0.0350 -0.0633 -0.1956
 9121W        W29401  14.603   3.400   4.353  0.0493 -0.3614 -0.0192
 9122W        W29402  11.034   6.927  13.104  0.1996  0.0910 -0.1273
 9123W        W29403   4.324  14.565  11.022 -0.1764  0.2432 -0.1741
 9124W        W29404   1.443  16.209   3.464  0.0447  0.1004 -0.0705
 9125W        W29405  17.089  13.629   1.491 -0.0349  0.2267  0.0128
 9126W        W29406  10.837  12.725   3.465 -0.0398  0.1224 -0.1907
 9127W        W29407  10.067  12.930  11.251  0.1032  0.0201  0.0630
 9128W        W29408   9.888  18.413  11.368 -0.0305 -0.1780  0.0284
 9129W        W29409   5.872   9.764  15.024 -0.1437 -0.0812 -0.0088
 9130W        W29410   3.004   8.899   3.866  0.0888 -0.0049 -0.0518
 9131W        W29411   0.476   8.427  13.692 -0.0514 -0.0687 -0.1499
 9132W        W29412  18.737   3.028  11.717 -0.0401 -0.0554  0.0469
 9133W        W29413   0.021   7.479   1.150 -0.1051  0.1684  0.2758
 9134W        W29414   8.465  12.717   2.724  0.0217 -0.0055  0.1402
 9135W        W29415   0.328   1.364   3.953 -0.0540  0.3340 -0.3416
 9136W        W29416  15.991   4.940   3.195  0.1559 -0.1240  0.1098
 9137W        W29417   6.588  11.303   4.466  0.1009  0.2234  0.1070
 9138W        W29418  14.835   6.186   5.716 -0.0121 -0.3955  0.0384
 9139W        W29419  14.509  14.271  11.432 -0.1957  0.0500 -0.2355
 9140W        W29420   8.593   4.039   3.804 -0.1094 -0.1912  0.0723
 9141W        W29421  16.728  16.674   3.764  0.0214 -0.0707 -0.0064
 9142W        W29422  16.217  17.008  12.573 -0.2948 -0.3793 -0.2969
 9143W        W29423  12.406  15.337  11.316 -0.0370  0.0659 -0.1251
 9144W        W29424  15.778  17.386  12.815 -0.0922 -0.0965  0.2265
 9145W        W29425  18.424   8.583  12.289 -0.1136  0.0224  0.2541
 9146W        W29426   1.948   1.683   0.717 -0.0659  0.0343  0.2584
 9147W        W29427   7.134  18.711   2.963 -0.1333  0.0897  0.2794
 9148W        W29428   7.839   2.513  14.741  0.1338 -0.0025 -0.0431
 9149W        W29429  15.540  11.876  15.044 -0.0050 -0.2567 -0.1907
 9150W        W29430  13.314   2.273  13.482  0.0049 -0.3176 -0.1277
 9151W        W29431  14.287  13.192  12.926 -0.2887 -0.1660 -0.2210
 9152W        W29432   2.711   2.159  11.846  0.3843  0.2596 -0.1676
 9153W        W29433  10.064  11.489  15.038  0.0382 -0.0914 -0.2834
 9154W        W29434  10.622   1.270   3.177 -0.0583 -0.0616  0.2690
 9155W        W29435   7.427  18.495   1.715 -0.1763  0.1890  0.1924
 9156W        W29436   2.684  10.587   4.237 -0.2647 -0.2371 -0.1241
 9157W        W29437  11.958   1.731  13.000 -0.1861  0.1319  0.1458
 9158W        W29438  10.917   6.825  11.168 -0.0989 -0.0544  0.0661
 9159W        W29439   7.658   0.921   3.145 -0.1939 -0.1312 -0.2394
 9160W        W29440  17.582   5.097   3.188  0.1147 -0.0655  0.1601
 9161W        W29441   4.514  15.072  12.243 -0.2724 -0.1534  0.0245
 9162W        W29442   4.194  17.546  13.574 -0.1586  0.2954  0.0180
 9163W        W29443  10.697  18.007  15.278  0.1280  0.1345 -0.4132
 9164W        W29444  14.716  17.266   0.665 -0.1255 -0.0678  0.0594
 9165W        W29445  10.469  15.907  14.089 -0.1741 -0.1060  0.0917
 9166W        W29446   5.415  10.415  14.853  0.0383  0.2646  0.2910
 9167W        W29447   3.697  11.840  12.243 -0.3238  0.2681  0.1125
 9168W        W29448  13.646   2.197   1.594 -0.2606  0.2754  0.1089
 9169W        W29449  18.516   0.576  15.232  0.0766 -0.2602  0.1237
 9170W        W29450   6.331  14.407   3.565 -0.0246 -0.3195  0.0407
 9171W        W29451   9.054  18.344  10.931  0.0394  0.0338 -0.1633
 9172W        W29452  12.282  10.599   0.113 -0.2216  0.0453 -0.2380
 9173W        W29453  13.564   5.020   2.869  0.1343  0.0135 -0.1867
 9174W        W29454   6.169   1.558   2.728  0.0229  0.1228  0.3379
 9175W        W29455  18.590   0.595   3.514  0.1606  0.1904 -0.2117
 9176W        W29456   4.637  17.019  10.045 -0.0612 -0.0953 -0.3623
 9177W        W29457  13.668   6.225  12.004 -0.0886 -0.2109  0.1484
 9178W        W29458  16.829  15.810   0.561 -0.2123  0.1032  0.0741
 9179W        W29459  18.317   4.965   5.935 -0.1420  0.2588 -0.0248
 9180W        W29460  18.278  16.549  11.834  0.0494  0.0585  0.0005
 9181W        W29461   5.007   0.435  11.877 -0.5016 -0.1155 -0.2167
 9182W        W29462   3.047  16.431  15.237 -0.1280 -0.1245  0.0964
 9183W        W29463  13.966   4.663   2.146 -0.1669 -0.0135 -0.1836
 9184W        W29464   4.416   4.120  12.630  0.0855  0.0957 -0.3491
 9185W        W29465  16.461  17.009  13.532  0.3372 -0.0063 -0.0077
 9186W        W29466  14.336  16.951   3.325 -0.3993 -0.0045  0.1441
 9187W        W29467  10.621   8.078  13.155  0.0484 -0.5103 -0.1867
 9188W        W29468  16.720  10.357   1.824 -0.1171  0.1995  0.2958
 9189W        W29469   8.628   1.932  12.454 -0.0717 -0.1957 -0.2363
 9190W        W29470  10.485   8.566  11.840 -0.1826 -0.0504  0.1230
 9191W        W29471   9.536  12.223  11.817 -0.0655  0.2857  0.0613
 9192W        W29472  11.206  17.615  13.309 -0.2460  0.3334 -0.2914
 9193W        W29473  11.104  13.590  13.483  0.0557 -0.2766 -0.2165
 9194W        W29474   3.241   6.939  11.948  0.0201  0.3331 -0.1670
 9195W        W29475  10.403  10.587  15.333  0.2762  0.1717  0.0812
 9196W        W29476  18.035  14.452   4.679  0.0481 -0.2255 -0.1058
 9197W        W29477  13.111   4.317  14.901 -0.0700 -0.1188  0.0967
 9198W        W29478  11.080  14.069   2.838 -0.0688 -0.2150  0.1745
 9199W        W29479   4.575   6.197  11.204 -0.0583  0.1808 -0.0478
 9200W        W29480   3.483   5.081   2.799  0.1042 -0.1734  0.1228
 9201W        W29481  11.885  17.722  14.643  0.1227  0.2476  0.0413
 9202W        W29482   1.998   6.042  14.456 -0.0778 -0.1440 -0.1114
 9203W        W29483   6.874  13.685   3.726  0.0596 -0.1080  0.2013
 9204W        W29484  11.232  10.969  12.205  0.0787  0.5231  0.1263
 9205W        W29485   8.598  11.596   1.289 -0.2145  0.1865 -0.0793
 9206W        W29486   8.479   0.325   0.350  0.0787 -0.0569  0.1695
 9207W        W29487   7.135  12.713  15.034 -0.0062 -0.0371  0.1245
 9208W        W29488   6.114   0.300  11.607  0.0345 -0.2448 -0.1627
 9209W        W29489   7.956  17.194   2.256 -0.0345 -0.0071 -0.1717
 9210W        W29490  12.309   9.652   0.367  0.0396 -0.0346 -0.2799
 9211W        W29491   3.190   9.809   3.818  0.0591  0.0695 -0.2589
 9212W        W29492   1.910   5.433  11.967  0.0301 -0.1023  0.1479
 9213W        W29493   7.821   0.773  15.200  0.2631  0.2359  0.1335
 9214W        W29494  12.557   3.222  13.868 -0.0847 -0.0253 -0.0152
 9215W        W29495  17.788  14.146   3.709  0.1656  0.2062 -0.1599
 9216W        W29496   1.202   1.297   1.943  0.1175 -0.2132  0.4995
 9217W        W29497  17.956  16.456  14.785 -0.0681 -0.0734  0.1610
 9218W        W29498  15.444  11.135  14.617  0.2829  0.2956  0.1109
 9219W        W29499   7.276   8.193  14.235  0.2012  0.1329 -0.1507
 9220W        W29500   1.725  16.161  14.409  0.0644 -0.2722  0.1000
 9221W        W29501  11.844  12.944  11.779  0.0008  0.0452  0.1780
 9222W        W29502  15.883   4.098   3.424  0.3092 -0.1434 -0.0493
 9223W        W29503  10.942   1.305   3.550 -0.2318 -0.1180 -0.2988
 9224W        W29504   6.271  10.422  11.878 -0.1827  0.2033  0.1204
 9225W        W29505  11.105   0.118   3.611  0.0380 -0.0592 -0.2701
 9226W        W29506  14.244  17.209  15.007  0.1308  0.3441  0.1735
 9227W        W29507  13.648   9.407   4.421 -0.0530  0.1606  0.0244
 9228W        W29508   6.555  16.332  14.014  0.2866 -0.1103 -0.3227
 9229W        W29509  16.876   4.025  11.742 -0.4369  0.0809 -0.3082
 9230W        W29510  14.007  14.997  12.000  0.1115 -0.0898 -0.1201
 9231W        W29511  18.551  13.552   2.732 -0.0146 -0.0831 -0.3860
 9232W        W29512   3.521   3.716  14.905  0.3141  0.0139  0.0525
 9233W        W29513   6.995   1.371  14.503  0.1010 -0.2505 -0.0198
 9234W        W29514  11.573   5.722  15.060  0.1940  0.4322  0.0512
 9235W        W29515   4.675  18.442  12.878 -0.1373  0.1452  0.4777
 9236W        W29516  16.636   1.561   9.872  0.0431  0.1071 -0.0826
 9237W        W29517   7.251   4.322   1.088 -0.0870 -0.0385 -0.1348
 9238W        W29518   6.712   6.805   4.530 -0.2096 -0.0831 -0.1408
 9239W        W29519   7.863   7.795  15.303 -0.0726 -0.2820 -0.2635
 9240W        W29520  17.957   2.748  13.778 -0.0887 -0.1501  0.0843
 9241W        W29521   7.783  15.956  12.624 -0.1115  0.1015 -0.1484
 9242W        W29522   1.278   2.358  14.687  0.0984  0.1535  0.0206
 9243W        W29523   1.381   0.761   5.036 -0.2503 -0.0592  0.0784
 9244W        W29524   3.382  16.054   3.332  0.1559  0.0899 -0.1976
 9245W        W29525   7.573  13.205   3.033  0.1357 -0.1988  0.3473
 9246W        W29526   2.816   3.437  14.122 -0.0884  0.3347  0.3284
 9247W        W29527  18.253   1.065  15.122  0.1829  0.0265 -0.1933
 9248W        W29528  14.017   5.526  13.487  0.1388  0.0364 -0.0081
 9249W        W29529  15.026   1.083   3.114  0.1252 -0.0518  0.1056
 9250W        W29530   5.049  11.350  11.546  0.1659 -0.0678 -0.0705
 9251W        W29531  15.529  11.079  15.331  0.2309 -0.0802  0.1814
 9252W        W29532   9.314   7.243   0.128 -0.1690  0.0689  0.2000
 9253W        W29533  10.291  17.371   3.938  0.2802  0.4695 -0.1280
 9254W        W29534  13.772  16.091  14.946 -0.0799  0.1557 -0.0803
 9255W        W29535  16.000  12.149  11.908 -0.0545  0.0441 -0.0594
 9256W        W29536  12.576  18.356  11.874  0.1272  0.3515 -0.1482
 9257W        W29537   9.150   7.400  12.986 -0.0102  0.1228  0.0048
 9258W        W29538   6.759   3.856   2.717 -0.0048  0.2343  0.2497
 9259W        W29539   5.098  15.511  11.507  0.0818 -0.1421  0.2217
 9260W        W29540  10.104  17.685   2.903  0.1980  0.1480  0.1083
 9261W        W29541  11.081   9.332   2.791 -0.0658  0.3629 -0.2215
 9262W        W29542   5.799  14.140  13.655  0.1296 -0.1703 -0.0925
 9263W        W29543   3.269  13.759  12.860 -0.3443  0.0865 -0.0702
 9264W        W29544  13.304  18.045  10.943 -0.0468 -0.0108 -0.0412
 9265W        W29545   2.507   2.936   2.110 -0.1176 -0.3761  0.2830
 9266W        W29546   0.844  11.256  12.824 -0.0254  0.0133 -0.3628
 9267W        W29547  10.726  14.451   0.195 -0.3983 -0.2192 -0.2015
 9268W        W29548   3.110   6.262  12.158  0.0764  0.1987  0.3371
 9269W        W29549   8.221  16.678  12.242 -0.1268 -0.0495  0.0367
 9270W        W29550   7.623  15.454   1.779  0.1162 -0.1421 -0.2302
 9271W        W29551   6.710  18.586  13.455 -0.0824 -0.1605 -0.0843
 9272W        W29552  14.883   7.030   0.050  0.1889 -0.2617 -0.3374
 9273W        W29553   5.657   4.394  12.085  0.2513  0.2464 -0.3124
 9274W        W29554  11.112   4.811  11.600 -0.0322  0.0943  0.0318
 9275W        W29555   4.804  13.666   2.996 -0.2894  0.0570 -0.0362
 9276W        W29556  11.249   8.774  11.827 -0.1028 -0.2221  0.0238
 9277W        W29557  11.860   1.837   1.064  0.0432 -0.2117  0.0033
 9278W        W29558  15.859  11.368   4.376 -0.0980 -0.0075 -0.0346
 9279W        W29559   0.585   5.129   2.609 -0.0243 -0.1788  0.4219
 9280W        W29560  17.495   0.159  11.678  0.0419 -0.2300  0.0985
 9281W        W29561  18.584   5.136   3.065 -0.3165  0.1632 -0.1305
 9282W        W29562  17.678   4.327   0.909 -0.1338 -0.1354  0.2967
 9283W        W29563   4.575  10.272   3.722 -0.2652 -0.0631 -0.3032
 9284W        W29564  11.969  18.570   0.286 -0.1000  0.0907 -0.2454
 9285W        W29565  12.240  14.880   0.737 -0.1814  0.1367 -0.1162
 9286W        W29566   0.124  14.662  13.424 -0.1110 -0.0290  0.0999
 9287W        W29567   0.097  11.711   1.013 -0.0702 -0.3019  0.1092
 9288W        W29568  18.691  14.626  12.952 -0.0343 -0.1627 -0.0922
 9289W        W29569   5.091   7.570  11.102  0.0397 -0.0093 -0.1739
 9290W        W29570   3.159  12.501  14.021 -0.0637 -0.4704  0.0692
 9291W        W29571  13.226  16.038   2.321 -0.1892 -0.1973 -0.0493
 9292W        W29572   1.663   5.082   0.316  0.1962 -0.2094  0.1372
 9293W        W29573   5.462  11.300   0.452  0.0976  0.0928  0.3641
 9294W        W29574  14.280   8.797   2.855  0.0539 -0.0230 -0.3106
 9295W        W29575   8.335  11.555  11.352  0.0147 -0.2288  0.0028
 9296W        W29576   1.920   9.125   3.812  0.3924 -0.0531 -0.0521
 9297W        W29577   8.665   9.188  13.225  0.0170 -0.0263  0.0200
 9298W        W29578  11.352   9.054  13.598 -0.0024 -0.3035 -0.4321
 9299W        W29579  12.945   8.515   2.848  0.1042  0.4993  0.0659
 9300W        W29580   7.007   3.421  13.292  0.0325 -0.1004 -0.0565
 9301W        W29581   6.865  10.544  13.298 -0.2140 -0.1197 -0.0030
 9302W        W29582  11.311  10.898  13.144  0.1099  0.2960  0.0388
 9303W        W29583  13.449  14.356  14.225  0.0260  0.1112 -0.0115
 9304W        W29584   7.675   2.549  13.600  0.6737 -0.0236  0.0183
 9305W        W29585   3.125   3.491   0.242  0.2591  0.0081 -0.2681
 9306W        W29586  17.236  10.633  13.554  0.2386  0.1704  0.0111
 9307W        W29587   7.538  15.830   1.449 -0.0193 -0.1652  0.3208
 9308W        W29588  12.189  16.486  13.442 -0.3008  0.0660  0.1473
 9309W        W29589   1.087  14.976   1.422 -0.2067 -0.2765  0.0254
 9310W        W29590  14.611  10.281   0.729 -0.1542 -0.0082  0.0004
 9311W        W29591  14.078  16.984   5.280 -0.1391  0.1614  0.1755
 9312W        W29592   6.882   7.424  15.101 -0.1387  0.0342 -0.0577
 9313W        W29593   5.676   0.763   3.180 -0.0048  0.1185 -0.3192
 9314W        W29594  10.519   9.919   0.695  0.0820 -0.0557 -0.1656
 9315W        W29595   0.254   9.124  12.002  0.2044  0.4372  0.1609
 9316W        W29596  16.557  16.295   3.516 -0.0219 -0.0032  0.0982
 9317W        W29597  16.778   3.578  12.519  0.0970  0.1411  0.2012
 9318W        W29598  14.986  11.501  14.593  0.1065 -0.0754 -0.0731
 9319W        W29599  13.283  12.387   4.944  0.1446  0.1657  0.2195
 9320W        W29600  18.079  14.753  11.585  0.0153  0.0399 -0.1387
 9321W        W29601   3.450   9.887   2.215  0.0469 -0.0547  0.1910
 9322W        W29602  12.133  13.333   4.301 -0.1338  0.2670 -0.0211
 9323W        W29603   1.178   4.250   2.037  0.0111 -0.2288  0.0884
 9324W        W29604   9.679  14.966   1.810 -0.1368 -0.2937  0.0707
 9325W        W29605   5.602  17.493  10.970 -0.3148  0.3781  0.0440
 9326W        W29606   7.839   9.169   0.281  0.0040 -0.0132  0.3111
 9327W        W29607   9.288   1.132   0.766 -0.1042 -0.0413 -0.2160
 9328W        W29608  11.628   9.215   2.918  0.1010 -0.0854  0.0251
 9329W        W29609   8.455  13.020   4.531 -0.0543  0.3176 -0.0015
 9330W        W29610  12.291  11.733  14.061 -0.2531  0.1526 -0.1107
 9331W        W29611  14.717   7.753  14.962  0.0970  0.1527 -0.2695
 9332W        W29612   4.827   2.215   2.771 -0.2988  0.0541 -0.1337
 9333W        W29613   8.620   2.087   1.544  0.0362 -0.1370  0.5077
 9334W        W29614   0.326   9.823   4.418  0.4426 -0.1757 -0.0856
 9335W        W29615  13.274   9.083  13.196 -0.2049  0.1838  0.0136
 9336W        W29616   6.947   4.830  12.173 -0.0752  0.1775  0.1247
 9337W        W29617  17.762   8.108   0.058 -0.2501  0.2611  0.0490
 9338W        W29618  16.645  12.324  13.560 -0.3538  0.2080  0.5201
 9339W        W29619  16.701  16.981  11.698  0.1465 -0.0926 -0.1270
 9340W        W29620  18.472  10.851   3.003 -0.1015  0.0032  0.2880
 9341W        W29621   9.668   3.713  14.999  0.3179  0.2273  0.1202
 9342W        W29622  15.960  12.575  13.152  0.2482 -0.0698 -0.0518
 9343W        W29623   9.838  13.574   2.358 -0.2417  0.1998  0.0002
 9344W        W29624   8.619  13.925   3.488 -0.0747  0.1116  0.0556
 9345W        W29625   6.907  17.030   1.821 -0.0450 -0.0580  0.0472
 9346W        W29626  14.261   8.933  14.577  0.2424 -0.2640  0.2754
 9347W        W29627   5.012  14.943  11.832 -0.1268 -0.0034 -0.0162
 9348W        W29628  15.367   8.952  13.088 -0.0735  0.1428  0.1804
 9349W        W29629   8.042   0.408   4.529  0.0775 -0.2095  0.2632
 9350W        W29630   3.866   6.398  12.644 -0.0448 -0.2175 -0.2369
 9351W        W29631  13.454   3.701  15.006  0.2627  0.2631 -0.0459
 9352W        W29632  17.912   5.724   0.903  0.2097 -0.0741 -0.4249
 9353W        W29633   0.261  10.571   0.148 -0.0218  0.0022 -0.0005
 9354W        W29634   8.630   2.185   3.546  0.3313  0.0608  0.1344
 9355W        W29635   7.778   7.362   1.141 -0.1812 -0.0835  0.2277
 9356W        W29636  16.375  13.615   1.994  0.3621 -0.2152  0.2430
 9357W        W29637  10.884   0.056  14.719  0.1735 -0.0289 -0.0775
 9358W        W29638  12.858  15.553  11.566 -0.2260  0.1047 -0.3245
 9359W        W29639  10.897   4.023   0.348 -0.0307 -0.2572  0.0385
 9360W        W29640  15.824  17.306  10.786 -0.0312 -0.1575  0.1972
 9361W        W29641  16.985   4.198   1.377 -0.0843 -0.0547  0.0453
 9362W        W29642   1.675   2.951   2.956 -0.1971  0.0584  0.1641
 9363W        W29643   2.672   1.976  14.714  0.0946 -0.0794 -0.0513
 9364W        W29644   9.481  10.597  13.106 -0.0145  0.1273  0.2477
 9365W        W29645   3.351   1.381  14.804 -0.1868  0.1144  0.0983
 9366W        W29646   9.585   9.085   0.769 -0.0831  0.0404  0.2284
 9367W        W29647   1.195   5.488   0.891  0.2860 -0.0658  0.0610
 9368W        W29648  17.165  10.136  11.076 -0.1879  0.0568  0.0400
 9369W        W29649  12.836   4.038  12.451  0.1641 -0.1087 -0.0547
 9370W        W29650   4.256  18.337  14.112  0.0637  0.2327  0.0837
 9371W        W29651  13.496  13.885  13.573 -0.3222 -0.1935 -0.1202
 9372W        W29652  12.660   7.002  12.701 -0.4304  0.0505 -0.0024
 9373W        W29653   6.394  14.112   3.991 -0.1803 -0.0645 -0.5126
 9374W        W29654  18.113   5.879   0.438  0.1369  0.2904  0.0735
 9375W        W29655   0.089   4.345  10.877  0.0040  0.1409 -0.0477
 9376W        W29656   7.216  16.696  13.068  0.0153  0.0781  0.1334
 9377W        W29657  14.755  13.519   2.478  0.1797 -0.1650 -0.1059
 9378W        W29658   8.680  16.613   2.932  0.0034  0.0801  0.1156
 9379W        W29659   1.159  17.885   4.369  0.3717  0.0546 -0.0515
 9380W        W29660  10.064   6.041   1.966  0.0665 -0.0062  0.0028
 9381W        W29661   3.118  12.400   9.814 -0.2289 -0.2842  0.1758
 9382W        W29662   0.725   3.403  12.085 -0.0553 -0.0053 -0.1172
 9383W        W29663   0.705   6.862  12.491 -0.0611 -0.0722  0.1399
 9384W        W29664   3.207   0.560  13.917  0.2168  0.0044  0.0258
 9385W        W29665  12.502  15.126  14.433  0.1692 -0.0190  0.0775
 9386W        W29666  18.688  15.481  14.028 -0.1378  0.0517 -0.0641
 9387W        W29667   1.867  10.160   1.748 -0.1112  0.1183  0.1541
 9388W        W29668  14.114  10.114  14.099  0.0609 -0.3391 -0.2821
 9389W        W29669  18.102   2.901  14.977 -0.2692  0.4061  0.0014
 9390W        W29670  15.342   1.461  12.415 -0.1727  0.0676  0.0393
 9391W        W29671  16.846  11.689  12.752  0.2205  0.1855  0.1414
 9392W        W29672  12.998  15.014   0.211  0.0514 -0.1953  0.0760
 9393W        W29673   1.447   1.297   2.363  0.1926 -0.0165 -0.1609
 9394W        W29674   8.148   7.617   1.015 -0.0247  0.2043  0.1852
 9395W        W29675  11.478   9.856   1.147 -0.1155 -0.1467  0.1619
 9396W        W29676   5.115   7.891  12.964 -0.2791  0.0788  0.1292
 9397W        W29677  17.644  11.277   5.174 -0.0292 -0.1886  0.3041
 9398W        W29678  16.699   9.475   1.276 -0.0102 -0.0636  0.2381
 9399W        W29679   0.471  15.462  11.887 -0.1146  0.1516 -0.2459
 9400W        W29680  17.499   2.425   1.483  0.3729  0.0786  0.3699
 9401W        W29681  16.601  13.217  11.778  0.3425  0.0758  0.1501
 9402W        W29682   3.861   2.400  12.411  0.0604 -0.0090  0.1325
 9403W        W29683   9.118  15.156  13.833  0.0811 -0.0523 -0.0118
 9404W        W29684   4.238   1.434  14.571  0.2657 -0.1040 -0.3932
 9405W        W29685  12.486  15.295   2.613  0.0028 -0.1632 -0.0048
 9406W        W29686  16.172   8.785   4.096 -0.2050 -0.1145 -0.0648
 9407W        W29687   7.511   2.932  11.551  0.0866 -0.0587 -0.0255
 9408W        W29688   7.904   9.344  15.194  0.0100  0.0116 -0.1686
 9409W        W29689   8.555   6.159   2.736 -0.1083  0.1967  0.0686
 9410W        W29690   1.668   1.456  15.334 -0.2755 -0.0187 -0.3188
 9411W        W29691   9.165  14.963  14.983 -0.2038 -0.3380 -0.4114
 9412W        W29692  11.561   7.737  13.281  0.0018  0.0741  0.0072
 9413W        W29693  11.290   2.698  14.487  0.0629 -0.0373  0.2465
 9414W        W29694   7.836  11.692   4.763 -0.1221  0.0481 -0.0172
 9415W        W29695  17.368   8.193  13.863 -0.0326 -0.0231 -0.0328
 9416W        W29696  18.732   5.821  11.538  0.2285  0.0109  0.2159
 9417W        W29697  12.451   6.940   2.198 -0.0144  0.0841 -0.1024
 9418W        W29698  14.297   6.581   1.737  0.1597 -0.0539 -0.1614
 9419W        W29699  15.483  18.354  15.191 -0.1412 -0.2184 -0.0927
 9420W        W29700  17.782   5.167  13.673 -0.0811 -0.0407 -0.0209
 9421W        W29701   5.136   0.936  15.292 -0.2797 -0.0856 -0.2652
 9422W        W29702   8.642  17.832  12.644 -0.0219  0.2942 -0.0201
 9423W        W29703  13.150  14.148  11.235 -0.1840  0.1612 -0.1284
 9424W        W29704   9.010  11.541   4.154 -0.1528 -0.0404  0.2626
 9425W        W29705   3.309   0.617  11.935 -0.2095  0.3606 -0.0688
 9426W        W29706  10.535  17.316  13.958 -0.4500 -0.0865 -0.0587
 9427W        W29707  18.118   4.043   1.840  0.1595 -0.1180  0.2017
 9428W        W29708   3.572   6.819  13.362  0.0971 -0.1838 -0.1271
 9429W        W29709   6.852   7.151   1.080 -0.0942  0.2499  0.0126
 9430W        W29710  11.697   2.025   0.478 -0.1642  0.1673 -0.0463
 9431W        W29711  14.286  15.982  14.512 -0.1399 -0.2638  0.0787
 9432W        W29712  15.794  13.621   4.759 -0.3262 -0.1449 -0.3692
 9433W        W29713   9.893  11.939  12.481 -0.5648 -0.1266  0.0525
 9434W        W29714   8.216  17.855  12.341  0.1550 -0.3869  0.1188
 9435W        W29715   1.766  12.699  12.703 -0.1741 -0.2521  0.0628
 9436W        W29716  11.048   2.074   2.169 -0.0105  0.2328  0.2922
 9437W        W29717  18.576   6.488  14.558 -0.0632  0.2928 -0.0512
 9438W        W29718   4.069  12.338   3.194 -0.0180 -0.0396 -0.0694
 9439W        W29719   8.534  10.484   1.336 -0.0081  0.0101 -0.0989
 9440W        W29720   3.791   5.961  10.086  0.0995 -0.2358  0.1495
 9441W        W29721  18.019   2.629   2.187  0.3996 -0.1435  0.1726
 9442W        W29722  18.346  13.200   4.262  0.0494  0.0848  0.0256
 9443W        W29723   4.228   7.980   2.043 -0.0561  0.0194 -0.2556
 9444W        W29724  13.783   8.478  13.487 -0.0483  0.1493 -0.0369
 9445W        W29725  11.212  15.752   1.334 -0.0225 -0.0081  0.1372
 9446W        W29726  17.615   3.453   3.683  0.3456  0.1171 -0.0173
 9447W        W29727  10.603   0.941  11.518  0.0845 -0.2473  0.0651
 9448W        W29728  15.546  14.239  11.665 -0.1446  0.2882 -0.1552
 9449W        W29729  12.449   2.485   4.994  0.2988 -0.1601 -0.1082
 9450W        W29730  13.805  12.435   4.218  0.1338 -0.1433  0.1077
 9451W        W29731  13.265   6.518   3.843  0.2075  0.2706 -0.1532
 9452W        W29732   8.499  13.898   0.247  0.0949 -0.0499  0.2420
 9453W        W29733  18.502  18.220   0.721  0.1804 -0.0828 -0.2502
 9454W        W29734  18.036   9.892  13.690  0.1547 -0.0918 -0.1234
 9455W        W29735   3.556  16.730  13.625 -0.0636  0.0872  0.1230
 9456W        W29736  16.852   1.725   0.556  0.0106 -0.1047 -0.1347
 9457W        W29737   2.430   9.450  13.690 -0.1747  0.0906  0.0725
 9458W        W29738   4.542   9.103   4.596  0.1694  0.1665  0.0786
 9459W        W29739  11.002  17.258  11.146  0.3648 -0.1125  0.1699
 9460W        W29740   2.001   1.212  13.734  0.1333  0.1235 -0.0897
 9461W        W29741  15.768  11.820   3.853  0.1157 -0.0663 -0.0842
 9462W        W29742   8.604  15.196   2.421 -0.0304 -0.2001  0.1318
 9463W        W29743  11.007  12.412  12.117  0.1433 -0.4412  0.1264
 9464W        W29744   5.489  13.106  12.380 -0.0032 -0.1870 -0.2815
 9465W        W29745  10.441  11.978  14.030  0.0428  0.2136  0.0271
 9466W        W29746   4.301   5.630   1.670 -0.0024 -0.0749 -0.0916
 9467W        W29747   8.893   1.583  10.737 -0.0536 -0.2563 -0.0275
 9468W        W29748  11.546  12.399  14.004 -0.1620  0.1993 -0.2177
 9469W        W29749  14.069  18.299  10.246 -0.0672  0.0869  0.3436
 9470W        W29750  17.649   3.114  15.217  0.3268 -0.0624 -0.0891
 9471W        W29751   4.335   2.914   3.953 -0.0805  0.1941 -0.0465
 9472W        W29752  11.447  10.851   4.580  0.1243  0.0227 -0.0302
 9473W        W29753  10.870   6.890   4.017 -0.0182  0.0367 -0.0382
 9474W        W29754  10.833   4.018   1.306 -0.2891 -0.4260 -0.1372
 9475W        W29755  12.386   8.462  14.561  0.2151  0.1789  0.0264
 9476W        W29756  15.944   9.788  14.212 -0.3021  0.0962  0.0480
 9477W        W29757   6.641   6.074  12.850 -0.2596  0.0192  0.2256
 9478W        W29758  13.855  13.260   4.019 -0.2257 -0.0502  0.0347
 9479W        W29759   6.044  13.698  13.147 -0.0342 -0.0215  0.3961
 9480W        W29760  12.536   9.275  14.280 -0.1221 -0.1201 -0.0710
 9481W        W29761  12.844  13.103   2.683  0.2132  0.0518  0.1744
 9482W        W29762  13.367   7.055   2.581  0.1547 -0.1010 -0.0819
 9483W        W29763  10.536  16.257   2.093  0.0106 -0.0349  0.1970
 9484W        W29764  17.566   8.352   5.042  0.1048  0.0663 -0.0818
 9485W        W29765  10.723  15.691  13.209  0.1183  0.0310 -0.3026
 9486W        W29766  14.852  18.408  12.832  0.2167  0.0708 -0.0104
 9487W        W29767  12.546  14.257   2.805  0.2468 -0.1882  0.1709
 9488W        W29768  17.278   8.065   3.644  0.1231  0.1865 -0.0427
 9489W        W29769  11.203   7.464   4.419  0.3362 -0.2134 -0.0359
 9490W        W29770  13.099   5.940   1.479  0.1954  0.3580  0.2612
 9491W        W29771  18.183   9.940  15.011  0.0374 -0.0689  0.1110
 9492W        W29772  11.390  10.360  12.986 -0.0835  0.2318  0.0053
 9493W        W29773   0.345   4.569  12.665  0.0222 -0.2699  0.0700
 9494W        W29774   2.600  12.969   1.107 -0.0851 -0.2525  0.1496
 9495W        W29775   3.328   6.553   2.473  0.0283 -0.2375 -0.1424
 9496W        W29776   3.979  13.440   5.182  0.1080  0.0346 -0.1425
 9497W        W29777  11.859  14.199  13.058 -0.0309  0.0157  0.1216
 9498W        W29778  10.256   6.983  14.591 -0.0848  0.2367  0.0111
 9499W        W29779   6.345  17.803  11.390 -0.1269  0.0068  0.2604
 9500W        W29780  15.095   8.117   4.370  0.0428  0.0553  0.0025
 9501W        W29781   9.576   2.110  13.394  0.2909 -0.1950  0.1034
 9502W        W29782  16.915   3.350  14.606 -0.0067 -0.2665 -0.1244
 9503W        W29783   4.664  13.160  12.995 -0.2289 -0.1069 -0.2065
 9504W        W29784  11.179  10.337   1.219 -0.2244 -0.3318  0.3099
 9505W        W29785  14.899  10.542  14.066 -0.2316 -0.0952 -0.2040
 9506W        W29786  16.602   7.879  14.118  0.1909  0.1087  0.0159
 9507W        W29787   1.486  12.145   1.432  0.1676 -0.0609 -0.1505
 9508W        W29788   6.362  12.181  14.979 -0.3432 -0.0026 -0.1397
 9509W        W29789   1.426   6.355   0.960 -0.2038  0.3427  0.0559
 9510W        W29790  18.147   8.467  13.723 -0.0877  0.1345  0.0467
 9511W        W29791  11.417   0.591  11.187  0.1742 -0.2025  0.3275
 9512W        W29792  14.940   4.774  13.738 -0.0831 -0.2907  0.2027
 9513W        W29793  17.254   0.439  14.233 -0.2713  0.0010  0.0859
 9514W        W29794   5.004  11.780  14.987 -0.0950  0.0261 -0.0774
 9515W        W29795  16.387  12.278   0.248  0.5091 -0.0819 -0.0314
 9516W        W29796   1.883  10.171  13.645 -0.0076 -0.0437  0.2691
 9517W        W29797   8.491   7.716   5.177  0.0063 -0.0653 -0.3056
 9518W        W29798  18.140   7.928   1.376 -0.0484 -0.2403  0.0605
 9519W        W29799   3.870  16.309  12.452 -0.1443  0.0967  0.0600
 9520W        W29800   1.986  18.315  14.423  0.2682 -0.0034  0.0989
 9521W        W29801   7.138  16.725  11.189 -0.1493 -0.1453 -0.0234
 9522W        W29802   9.815  11.732  14.538 -0.1709  0.1027 -0.0402
 9523W        W29803   7.232  15.700   0.533  0.1000  0.0197 -0.0534
 9524W        W29804   2.907  17.103   2.253 -0.0329 -0.0584 -0.0175
 9525W        W29805   9.058  10.544   0.268 -0.4156  0.0972 -0.3517
 9526W        W29806  11.489   0.850  13.849 -0.0327  0.1453  0.2272
 9527W        W29807   6.479   5.718  14.687 -0.1745  0.0954  0.1012
 9528W        W29808  12.843  12.310   4.560 -0.3086  0.2726  0.0145
 9529W        W29809   0.278  11.248  11.923  0.1511 -0.0106  0.0232
 9530W        W29810   7.348  15.321  11.696 -0.0446  0.2741 -0.2178
 9531W        W29811   4.738   0.481  13.548  0.0722 -0.2880  0.2668
 9532W        W29812  17.443   4.936  13.952  0.0532  0.1927 -0.1189
 9533W        W29813   7.230  17.829  14.726  0.2618  0.2532  0.2776
 9534W        W29814  11.072   4.853   2.366  0.3981 -0.2041 -0.3213
 9535W        W29815   3.973  14.291   2.000  0.2778 -0.0195  0.3503
 9536W        W29816   6.823  11.978  10.973 -0.3075  0.1047  0.1355
 9537W        W29817   3.350   5.816  10.988  0.0067  0.2981  0.0596
 9538W        W29818   5.931   0.907  12.867 -0.1908 -0.0179 -0.3062
 9539W        W29819  17.354  14.174   3.022  0.1542  0.3217 -0.0765
 9540W        W29820   4.535   4.515  11.848 -0.0592 -0.2980 -0.0804
 9541W        W29821  17.768   3.297   2.619  0.1501 -0.0167  0.0294
 9542W        W29822   0.885  11.310   5.020  0.3044 -0.0179 -0.0328
 9543W        W29823   1.033   4.351  13.255 -0.0642 -0.1195  0.2006
 9544W        W29824  12.020  12.285   2.105 -0.0192  0.1075  0.5070
 9545W        W29825   7.659   9.198   1.116 -0.0200 -0.1037  0.0670
 9546W        W29826  11.506   2.468   4.086 -0.2130 -0.1854 -0.4207
 9547W        W29827   3.782   0.545  11.727 -0.1489  0.1043 -0.0685
 9548W        W29828  11.331  13.227  11.513  0.0240  0.0855  0.3096
 9549W        W29829  12.332  14.735  14.907 -0.2094 -0.2327  0.3169
 9550W        W29830  13.859   8.906  12.788 -0.2825 -0.0946  0.1224
 9551W        W29831  18.368   9.595  14.642 -0.1164 -0.0049  0.2408
 9552W        W29832  17.842   2.028  13.139 -0.2071  0.1073  0.0308
 9553W        W29833   6.642   3.396  14.021 -0.0400 -0.0747 -0.0903
 9554W        W29834   2.781   0.591  11.986 -0.1358  0.4011  0.0897
 9555W        W29835   8.366  12.021  14.421  0.0253 -0.5530  0.0273
 9556W        W29836  17.700   9.983   3.235  0.0317 -0.0236 -0.0580
 9557W        W29837   2.538   1.851  10.992 -0.0650  0.1100  0.1796
 9558W        W29838  16.619   9.616   0.242  0.1476  0.0147  0.1147
 9559W        W29839   8.652   3.900   1.623 -0.0667  0.1718 -0.0562
 9560W        W29840   9.729  16.674   2.019 -0.0506  0.1125 -0.1522
 9561W        W29841  16.889  15.662  12.036 -0.2606 -0.3479 -0.5152
 9562W        W29842   6.282  14.765   3.969 -0.0387 -0.0867 -0.4772
 9563W        W29843  17.457   3.631   2.751  0.0903  0.0701 -0.5249
 9564W        W29844   5.568  10.421  13.969 -0.1609 -0.1425  0.0518
 9565W        W29845  12.265  11.823  12.709  0.0272  0.0132  0.0023
 9566W        W29846   5.270  12.028  12.803 -0.2208  0.0634 -0.0992
 9567W        W29847  10.312  13.716   0.732  0.0047 -0.1624  0.1364
 9568W        W29848   9.756   1.936  10.994 -0.0098  0.1569 -0.0394
 9569W        W29849   2.737   3.689   2.656 -0.1845  0.1245 -0.0439
 9570W        W29850   9.277  13.753  11.040 -0.0493  0.2296  0.3284
 9571W        W29851  16.026  14.802   3.300 -0.1559  0.1909  0.0815
 9572W        W29852  13.486  15.151   4.217  0.0124  0.0651  0.1733
 9573W        W29853   0.937  10.321   1.828 -0.0712 -0.2855 -0.0226
 9574W        W29854  12.649   7.960  12.566 -0.1207  0.0842  0.2309
 9575W        W29855   8.632  18.583  11.108 -0.0854 -0.3412 -0.1109
 9576W        W29856   5.927   8.292  11.545 -0.0263 -0.2315  0.1549
 9577W        W29857  11.568  14.162  14.182 -0.2284 -0.0193  0.3255
 9578W        W29858   1.065  16.032   2.606  0.2541  0.1888  0.1094
 9579W        W29859   2.438   8.024   1.995  0.0533 -0.2446  0.1896
 9580W        W29860  17.652   5.677  14.448 -0.0342 -0.0566 -0.0829
 9581W        W29861   4.662  15.529   4.226 -0.2455 -0.0254  0.0148
 9582W        W29862   9.992  13.447   9.866 -0.1351 -0.0089  0.0063
 9583W        W29863   2.502  16.274   3.311 -0.1110 -0.0106 -0.3103
 9584W        W29864  18.704   1.471   3.112 -0.3269  0.1106  0.4012
 9585W        W29865  16.511  14.127  13.314  0.1853  0.2281 -0.0906
 9586W        W29866   3.591  13.049   3.323 -0.0269  0.0624  0.2009
 9587W        W29867  14.807   4.791   0.507  0.3700 -0.0890  0.1071
 9588W        W29868  13.466   8.853  11.875 -0.0286  0.1635 -0.0182
 9589W        W29869  12.134   7.882   2.852  0.2362 -0.0245 -0.1082
 9590W        W29870  12.162  16.198  13.829 -0.4101 -0.0653 -0.1782
 9591W        W29871   5.950  16.469   0.879 -0.0112 -0.1143  0.1861
 9592W        W29872   7.326  12.093   2.740  0.1733 -0.0591  0.2369
 9593W        W29873   7.968  11.046   4.040 -0.2022  0.1474 -0.0446
 9594W        W29874  18.715  18.121  14.877  0.0125 -0.0209  0.2668
 9595W        W29875  13.964  16.125  13.664 -0.1385  0.0682  0.3151
 9596W        W29876   4.866  10.123   5.670 -0.1038  0.0769 -0.0871
 9597W        W29877  18.436   6.678  14.990  0.0525 -0.1266  0.2709
 9598W        W29878  13.211   2.971   1.893  0.2041  0.4125 -0.2627
 9599W        W29879   8.211   4.335  13.401  0.0141 -0.2844 -0.3023
 9600W        W29880   9.859   1.384  14.101  0.0086  0.0684  0.2848
 9601W        W29881  12.214  13.965   2.424  0.1681  0.1771  0.1598
 9602W        W29882   0.803   9.885  14.389 -0.2610  0.2514 -0.0835
 9603W        W29883  10.764   6.305   0.727 -0.1438 -0.1022 -0.0306
 9604W        W29884  14.672  15.928   4.356  0.0686  0.0447  0.0420
 9605W        W29885   0.457  15.585  14.748 -0.0297  0.0237  0.2010
 9606W        W29886  14.629   1.779  13.741  0.0986  0.1489  0.0396
 9607W        W29887   8.198  15.242  12.252 -0.2103 -0.1424  0.2973
 9608W        W29888  12.722   5.369  12.644 -0.0943  0.2494  0.0348
 9609W        W29889  14.155  13.607  11.874 -0.0627  0.1299 -0.1875
 9610W        W29890   5.209  15.813   1.854 -0.0539 -0.0298  0.2886
 9611W        W29891   1.537  10.705   1.056  0.2156 -0.1569  0.0232
 9612W        W29892   1.580   3.099   2.442 -0.1553  0.2389 -0.1413
 9613W        W29893   3.892  13.221   2.959  0.1556 -0.0555  0.1475
 9614W        W29894   1.146   0.254  13.584 -0.1246 -0.0972 -0.2203
 9615W        W29895   0.420   6.067   4.548  0.0855 -0.1518 -0.2710
 9616W        W29896  13.539   0.057  10.929  0.0370  0.3391  0.2178
 9617W        W29897  17.573   9.240  13.691  0.0399  0.3704  0.2014
 9618W        W29898  17.641   5.964   4.318 -0.2586 -0.0672  0.1393
 9619W        W29899   1.979   1.797   1.740  0.3761 -0.0478  0.0427
 9620W        W29900   1.291  14.672   2.716 -0.1657  0.1241  0.0582
 9621W        W29901  14.429  15.525   1.155 -0.3046  0.2073 -0.3463
 9622W        W29902   9.558   9.077  13.349  0.2022 -0.2255 -0.3383
 9623W        W29903   7.328  15.774  12.625 -0.0417  0.1631  0.0542
 9624W        W29904  16.830   4.540   5.908  0.2929 -0.1740 -0.0409
 9625W        W29905  18.291  15.173   2.656 -0.0961  0.2593 -0.1309
 9626W        W29906  16.017  10.450   1.221 -0.1129 -0.0238  0.0980
 9627W        W29907  18.006  17.869  11.852  0.2448  0.1557 -0.2105
 9628W        W29908   5.930  13.268   3.618  0.1445 -0.1417  0.2062
 9629W        W29909  12.517  11.713   1.541 -0.0097 -0.1318  0.1453
 9630W        W29910   4.890  15.094   2.874  0.2048  0.1439 -0.1748
 9631W        W29911  10.557   0.934  14.527 -0.1063 -0.1041  0.3746
 9632W        W29912   8.142  12.965   3.926  0.1047 -0.1345 -0.0014
 9633W        W29913   8.294   7.631   2.133  0.0750 -0.1607  0.1067
 9634W        W29914   5.515   4.018  14.710  0.1045  0.0414 -0.0500
 9635W        W29915   7.744  15.985   1.005  0.0482 -0.0351 -0.0385
 9636W        W29916  15.245  12.808  11.859  0.3965  0.3927 -0.1155
 9637W        W29917  12.895   8.585   2.089 -0.1264  0.2149 -0.3417
 9638W        W29918   9.504  15.553  14.395 -0.1842 -0.1961  0.1887
 9639W        W29919   3.217   3.887  11.778 -0.0026  0.1656 -0.0830
 9640W        W29920  16.841   5.896  15.031 -0.2608  0.0604 -0.0509
 9641W        W29921   0.034  13.773   1.878 -0.0704 -0.0216  0.1289
 9642W        W29922  14.896  14.810   0.274 -0.1798  0.0497  0.0019
 9643W        W29923  10.649   5.215  13.551  0.4748  0.0161 -0.1207
 9644W        W29924  13.851  17.025  14.010 -0.2432  0.1969 -0.2241
 9645W        W29925   7.343  18.250  10.425  0.3432  0.0554  0.2344
 9646W        W29926  12.561   1.949   0.968 -0.4728  0.0422 -0.1733
 9647W        W29927   2.769  11.063   4.295  0.0219 -0.1619  0.1485
 9648W        W29928   2.430  17.584   0.522 -0.0408 -0.1637 -0.1016
 9649W        W29929  13.508  16.902   4.060 -0.1180 -0.1678  0.2701
 9650W        W29930   8.026   1.804   1.238 -0.0271  0.2119 -0.1189
 9651W        W29931   7.982  13.766   0.903  0.0893  0.1198  0.0959
 9652W        W29932   5.520  13.558  11.645  0.0755  0.1595 -0.0954
 9653W        W29933   8.617   2.604   3.825 -0.0724  0.1758  0.1038
 9654W        W29934  10.268  11.711   0.062 -0.1799  0.3178  0.2490
 9655W        W29935  17.816  15.742  12.943 -0.0754  0.1490  0.2828
 9656W        W29936  16.672  13.345  12.625 -0.1288  0.1173  0.0044
 9657W        W29937   3.921  15.555   1.678 -0.0061  0.1845  0.0845
 9658W        W29938  13.271   4.559  12.887  0.4154 -0.1901 -0.0416
 9659W        W29939   8.957   2.879   0.404 -0.0019  0.1534 -0.0010
 9660W        W29940   7.138  10.161   2.931  0.1039 -0.0423  0.1155
 9661W        W29941  10.377   6.619  15.268  0.1636 -0.1556  0.2325
 9662W        W29942   5.296   8.922   0.951  0.2198 -0.1182 -0.2287
 9663W        W29943   0.030   7.775   1.966 -0.0067  0.1296  0.2037
 9664W        W29944   3.282  16.879  15.258 -0.0585 -0.2520  0.2310
 9665W        W29945  13.378  12.527  14.800 -0.3361  0.1008 -0.0470
 9666W        W29946  14.637   4.916   0.027  0.1070  0.2817  0.1695
 9667W        W29947  12.937  10.405  13.185 -0.0841  0.1208  0.0112
 9668W        W29948   4.684   9.469  13.230  0.0588  0.0155 -0.2663
 9669W        W29949   9.500  14.262   3.545  0.1655 -0.2847 -0.3942
 9670W        W29950   2.127  14.543  13.403  0.1985 -0.0237 -0.0221
 9671W        W29951  14.799   1.342   3.876 -0.0493  0.1099 -0.0278
 9672W        W29952  16.666   4.608   4.734 -0.0564 -0.2451  0.1106
 9673W        W29953  10.695  17.989   3.483 -0.0346 -0.0881 -0.1917
 9674W        W29954  14.238   1.029   0.123 -0.1506 -0.0469  0.1149
 9675W        W29955  11.827   3.178  14.569 -0.1214  0.0526  0.0437
 9676W        W29956   6.885  10.166  11.584  0.0512 -0.0353  0.2988
 9677W        W29957   9.656  16.936   0.714 -0.0490 -0.0100  0.0297
 9678W        W29958   0.714  15.400   4.294  0.0815 -0.0287 -0.0434
 9679W        W29959  15.556  16.003  11.341  0.0348  0.0900  0.1395
 9680W        W29960   2.234   1.902  15.057 -0.1348  0.1421 -0.1905
 9681W        W29961   5.029   4.116  11.860  0.1128  0.1202  0.0025
 9682W        W29962  13.149  16.784  12.445 -0.2249  0.1567 -0.0766
 9683W        W29963   0.401  16.876  13.556  0.2676 -0.0842 -0.0189
 9684W        W29964  18.151   0.002  12.099  0.1984 -0.0019  0.0968
 9685W        W29965  17.948  12.985  11.453 -0.0565 -0.1016  0.2419
 9686W        W29966  15.668  12.647   3.424  0.1104  0.0002 -0.0755
 9687W        W29967   0.212  10.870   4.097 -0.1821 -0.0994  0.1678
 9688W        W29968  11.978  17.048  11.980  0.0594  0.2976 -0.0442
 9689W        W29969   7.244  16.988   3.397 -0.0151 -0.0478  0.2686
 9690W        W29970   4.658  16.930   1.791 -0.3570 -0.5271  0.1993
 9691W        W29971   1.945   1.806   3.752 -0.0678  0.1998  0.1860
 9692W        W29972  14.672  11.471  13.229 -0.1095 -0.0235 -0.0392
 9693W        W29973  12.349   9.176   1.243 -0.0125 -0.3359 -0.0311
 9694W        W29974  12.045   5.076   0.439  0.2990 -0.2147 -0.0042
 9695W        W29975   6.301  15.952  14.286  0.0764 -0.0147  0.0663
 9696W        W29976  17.517  16.328  14.531 -0.0842  0.2215 -0.0292
 9697W        W29977  14.641   0.499   4.356  0.0985  0.1263  0.0391
 9698W        W29978   2.112   2.194  11.812  0.2562 -0.1297  0.0474
 9699W        W29979  14.922  17.320  13.023  0.4533  0.0624  0.0812
 9700W        W29980  18.711   9.758  12.646 -0.1332 -0.0793  0.1401
 9701W        W29981   3.517   3.248  13.495 -0.0974 -0.0696  0.2540
 9702W        W29982  16.434  15.772   1.732 -0.0033 -0.2245  0.0071
 9703W        W29983  13.324   3.015  12.044 -0.1567 -0.0077 -0.0506
 9704W        W29984   1.237  16.218  12.695  0.2155  0.2507  0.0708
 9705W        W29985  16.395  11.925  11.310  0.1613  0.0778 -0.1581
 9706W        W29986  16.762   2.792   0.064 -0.0411  0.0423 -0.0981
 9707W        W29987   7.009  13.300   1.313 -0.1575  0.0869 -0.2051
 9708W        W29988   0.512   8.252   4.450  0.5302 -0.0526 -0.0085
 9709W        W29989  18.685   1.525  14.337 -0.2083  0.0668  0.0636
 9710W        W29990  10.155  10.033   2.051  0.1530  0.0536 -0.0537
 9711W        W29991   3.376  18.412   2.259  0.1177  0.3764 -0.0255
 9712W        W29992   3.136  10.938  12.350 -0.2814  0.0262 -0.0613
 9713W        W29993   0.926  17.433   2.556 -0.0320  0.2177 -0.1469
 9714W        W29994   5.083   7.165  12.318  0.0487  0.0651 -0.0177
 9715W        W29995   3.433  10.042   2.725 -0.1809  0.4497 -0.2008
 9716W        W29996  15.139   1.677   3.576  0.2656 -0.0190  0.2047
 9717W        W29997   1.471  13.410   4.103 -0.0382 -0.1820  0.3441
 9718W        W29998   7.921   4.425   1.866  0.0178 -0.1020 -0.0796
 9719W        W29999  17.265   3.332   0.219  0.0861 -0.0361 -0.0858
 9720W        W30000   5.407   3.560   0.871  0.2220 -0.1454  0.0616
 9721W        W30001   2.878   9.527   2.832  0.2816 -0.1435  0.0002
 9722W        W30002   4.757  16.917   5.361 -0.3322  0.1370  0.1141
 9723W        W30003  11.560  14.642  14.481  0.1521  0.1673 -0.0605
 9724W        W30004   7.394   9.824   2.648 -0.1239 -0.0191  0.2500
 9725W        W30005   3.439  17.390  14.401  0.1236 -0.1463  0.0854
 9726W        W30006   6.087  12.325   2.562 -0.2869  0.0672 -0.0303
 9727W        W30007   8.950  17.656  13.024 -0.2048  0.0517 -0.2992
 9728W        W30008  10.841  14.306  14.976  0.0817  0.3269 -0.2351
 9729W        W30009  10.829   4.135   1.979 -0.0918  0.0329  0.2415
 9730W        W30010  16.818   3.100  12.266  0.1388 -0.1001 -0.0383
 9731W        W30011   1.218  13.044   3.525  0.0559  0.2423 -0.0678
 9732W        W30012  16.244  17.811   4.601  0.1300 -0.2371 -0.0530
 9733W        W30013  17.544  16.824   2.192  0.2134 -0.1720  0.0200
 9734W        W30014  13.957   9.875  14.787 -0.0512 -0.0778  0.0557
 9735W        W30015   9.285  16.222   2.579  0.2293 -0.0578 -0.0031
 9736W        W30016   9.361   0.637  12.558  0.1962 -0.0588 -0.0482
 9737W        W30017   3.895   6.688  11.729 -0.1442 -0.1012  0.1738
 9738W        W30018   8.464  11.139   4.267 -0.1739  0.2631  0.1076
 9739W        W30019   8.394  14.849   2.688  0.0471  0.2531  0.0030
 9740W        W30020  10.165   9.601  12.752 -0.4383 -0.0180  0.0625
 9741W        W30021   2.242  12.941   0.512  0.1709 -0.0575 -0.0044
 9742W        W30022   0.113  13.859   0.146 -0.0714  0.0524  0.1834
 9743W        W30023   4.924   2.482   2.339  0.2035 -0.0865 -0.0935
 9744W        W30024   3.261  11.629  11.114  0.1068  0.0812 -0.0625
 9745W        W30025  15.342   9.307   0.934 -0.1968  0.0540  0.0427
 9746W        W30026   6.351   1.183   1.878 -0.0055 -0.0865 -0.1020
 9747W        W30027   1.900   7.864  13.495 -0.2292  0.1598 -0.2036
 9748W        W30028  13.513  17.585   1.641  0.0424 -0.0072 -0.4138
 9749W        W30029  14.010  13.751  12.709  0.0429  0.1595  0.1559
 9750W        W30030   2.796  14.149   2.943  0.4749 -0.3151 -0.0786
 9751W        W30031   5.193   0.482  13.278  0.0701 -0.1016 -0.5029
 9752W        W30032   3.917   5.757   4.275 -0.2650  0.1051  0.1921
 9753W        W30033  14.593  10.140  13.992 -0.0637  0.0239  0.1261
 9754W        W30034  12.528  12.066   1.194  0.0514  0.1879  0.1395
 9755W        W30035  17.335  15.610   3.834 -0.0748  0.2476  0.0772
 9756W        W30036   1.555  15.330   3.918  0.1507  0.0038 -0.0261
 9757W        W30037  18.702  11.423   2.269  0.0110 -0.1151 -0.2430
 9758W        W30038  18.526   5.337   9.949 -0.0720 -0.1547  0.1924
 9759W        W30039   6.095   5.674  13.366  0.0133 -0.2566  0.0298
 9760W        W30040  18.371   3.635  12.197 -0.1067  0.4070  0.2689
 9761W        W30041   0.612   2.634  11.260 -0.1597  0.3264 -0.3372
 9762W        W30042  10.084   2.338  15.182  0.0437 -0.1407  0.1500
 9763W        W30043  13.606  15.620  13.918  0.0409  0.1835 -0.0497
 9764W        W30044  14.175   8.892  13.141  0.2572  0.3027 -0.0973
 9765W        W30045  10.600   9.369  12.925 -0.1191  0.1143 -0.1361
 9766W        W30046   1.433  11.178  13.832 -0.2373 -0.0591 -0.3088
 9767W        W30047  15.153   3.819   4.462  0.4552 -0.1446  0.0270
 9768W        W30048  10.839   1.916  13.403 -0.1272 -0.2062  0.1869
 9769W        W30049   7.629   4.160  14.601  0.2443 -0.1475  0.1955
 9770W        W30050  11.842   4.588   4.013 -0.1009 -0.1336  0.0341
 9771W        W30051  11.510  16.590   1.198  0.2544  0.3143  0.1648
 9772W        W30052   7.207   5.967  14.734 -0.0708  0.0472  0.0292
 9773W        W30053  13.512  16.159  13.527  0.1048  0.2188 -0.1533
 9774W        W30054   4.878  18.043  12.207  0.1038 -0.1325  0.0746
 9775W        W30055   9.583   7.662  12.984  0.1430 -0.1586  0.0244
 9776W        W30056  13.970   3.632  11.959  0.0146 -0.1564  0.0293
 9777W        W30057  14.661   4.832   1.956 -0.3365 -0.1654 -0.2005
 9778W        W30058  10.263  13.061  13.099  0.0809  0.1188 -0.1417
 9779W        W30059   9.417   3.258  11.514  0.1177 -0.0592  0.0766
 9780W        W30060  16.684   7.762  14.664  0.1112  0.4545  0.0292
 9781W        W30061   6.443  18.157  13.099  0.3090 -0.3811 -0.0521
 9782W        W30062   8.080  17.969   1.810 -0.1793 -0.2556 -0.0739
 9783W        W30063  14.420   2.270  12.981 -0.3542 -0.0027 -0.3704
 9784W        W30064  12.255  18.114   2.858  0.0304 -0.0607  0.1857
 9785W        W30065  11.487  12.580  14.730 -0.1609  0.0205 -0.2362
 9786W        W30066  10.113  17.818  12.959 -0.1582  0.2276  0.2268
 9787W        W30067  10.710  14.004   4.092 -0.0245 -0.1615  0.1059
 9788W        W30068   5.618  13.242  13.838 -0.0017 -0.1679  0.2436
 9789W        W30069   6.358   2.333   2.151  0.0321 -0.2905 -0.1502
 9790W        W30070   5.653  16.665  14.355  0.1944 -0.1196  0.4047
 9791W        W30071  17.663  13.212   3.804  0.0684 -0.1819  0.1520
 9792W        W30072  13.422   3.187   2.314  0.2628 -0.0648 -0.0542
 9793W        W30073  18.335  13.750   0.341  0.0508 -0.0066 -0.1008
 9794W        W30074   5.672   3.638  11.495 -0.1542  0.3801 -0.1648
 9795W        W30075  17.330   6.089  11.603  0.1501 -0.0927 -0.0462
 9796W        W30076   1.241   3.822  14.715 -0.1075  0.1293  0.1351
 9797W        W30077   2.789  17.017  13.963  0.0735  0.1584  0.0687
 9798W        W30078   2.656   0.069  11.225 -0.3315  0.1880 -0.2899
 9799W        W30079  18.363   3.554  13.964 -0.3398 -0.0657 -0.1226
 9800W        W30080  16.215   2.352   1.561 -0.1646 -0.2664 -0.1211
 9801W        W30081  17.447   3.417  11.947 -0.1391 -0.2780  0.0597
 9802W        W30082  13.690  11.945   4.029 -0.1256 -0.0991  0.0635
 9803W        W30083  13.883   7.568  14.546  0.2890  0.0145  0.0560
 9804W        W30084  17.189  11.574   1.443 -0.0900 -0.0727 -0.2714
 9805W        W30085  12.252   7.384   2.680 -0.0194 -0.0715 -0.1154
 9806W        W30086  15.508   3.308  11.792 -0.3010 -0.0009 -0.0755
 9807W        W30087  15.015  12.416   2.285 -0.0198  0.0732 -0.3515
 9808W        W30088  13.587  16.701  14.300 -0.0782  0.2014  0.0164
 9809W        W30089  12.921  18.344   2.693 -0.3893 -0.1376  0.3373
 9810W        W30090  14.896  15.492   1.545 -0.1720  0.0172  0.1383
 9811W        W30091  18.552   5.084   2.552 -0.0161  0.1080  0.2238
 9812W        W30092  13.951  12.803   0.145  0.1534  0.1383  0.0421
 9813W        W30093   3.060  17.015  12.725 -0.1739  0.0459  0.2220
 9814W        W30094   4.703   6.443  11.630 -0.1036 -0.4257 -0.0274
 9815W        W30095  12.431  17.960   0.080 -0.0094 -0.1137 -0.1139
 9816W        W30096  15.382  16.510   3.896 -0.3349  0.1108  0.1273
 9817W        W30097   3.035  17.775   4.015  0.2470 -0.4420 -0.0519
 9818W        W30098   4.456   4.999  11.451  0.0540  0.3751 -0.0446
 9819W        W30099   7.467  14.677   3.155  0.2708  0.4972 -0.0590
 9820W        W30100  14.061   0.787   0.638 -0.1073 -0.0862 -0.0698
 9821W        W30101  13.411  13.123   3.761  0.2321 -0.1615  0.0114
 9822W        W30102  12.104  11.862  11.898  0.2311  0.3406 -0.0631
 9823W        W30103   2.739  15.238  14.991  0.1286 -0.1053  0.0781
 9824W        W30104   1.374  15.808   3.919  0.2749  0.0054 -0.1705
 9825W        W30105  15.857  13.582   3.883 -0.0586  0.1376 -0.0973
 9826W        W30106  14.008   9.819   0.506 -0.0968 -0.1419  0.0232
 9827W        W30107   0.032  11.761  12.658  0.0428 -0.1285  0.0687
 9828W        W30108  11.257  12.516   3.651  0.0073  0.0666  0.3118
 9829W        W30109  11.304  10.866  15.390  0.0046 -0.1824 -0.1492
 9830W        W30110  18.450   6.197  12.558 -0.0633 -0.1431  0.0239
 9831W        W30111   1.799   3.518  15.389 -0.0311  0.0529  0.2541
 9832W        W30112  14.917  18.563   0.983 -0.0043 -0.0153  0.1252
 9833W        W30113  17.730  16.176   0.768 -0.1501  0.0265 -0.0236
 9834W        W30114   6.163   9.296   1.361 -0.0621 -0.1640 -0.0990
 9835W        W30115  14.841  17.169  12.504  0.2288  0.0076  0.3669
 9836W        W30116  18.720   2.564  11.566 -0.0915  0.1829  0.1091
 9837W        W30117   5.415  14.459   3.108  0.0407 -0.1303  0.0655
 9838W        W30118  11.782   8.820   3.561  0.1831 -0.3181  0.0879
 9839W        W30119   4.114   4.754   1.289  0.0746 -0.2069  0.0166
 9840W        W30120   2.019   5.226  12.416  0.1176  0.3593  0.0497
 9841W        W30121   0.477   9.619   1.730  0.2633  0.0574  0.1956
 9842W        W30122   5.733   6.985   3.779  0.1924 -0.0506  0.3277
 9843W        W30123   1.035  15.048   2.393  0.2361 -0.1749 -0.2487
 9844W        W30124  11.415   7.437   3.242 -0.3481 -0.1428 -0.1099
 9845W        W30125  16.867  10.945  13.708 -0.0424 -0.3161 -0.2307
 9846W        W30126   7.439  13.224  11.977 -0.1065  0.0448  0.1004
 9847W        W30127  15.899  13.516   0.054 -0.2119  0.1423  0.0301
 9848W        W30128   4.263   8.698   2.080 -0.2433  0.1318  0.0317
 9849W        W30129   2.499  16.394   1.896 -0.1324 -0.1778 -0.0276
 9850W        W30130  11.933  17.686  11.394  0.0521 -0.3341  0.2202
 9851W        W30131   5.554   0.152   2.420  0.1228 -0.1015  0.2016
 9852W        W30132  11.152   3.655   4.114  0.1388 -0.3088  0.4077
 9853W        W30133  18.368  11.659  12.307  0.0567 -0.1550 -0.2946
 9854W        W30134   0.246   8.807  14.138 -0.1044  0.1978  0.1648
 9855W        W30135   5.838   1.089  10.456  0.1252  0.0698 -0.0888
 9856W        W30136   6.716  15.137   1.584  0.0691 -0.1495  0.2252
 9857W        W30137  13.152   6.854  14.908 -0.0949 -0.2224  0.1761
 9858W        W30138   4.145  17.349   0.914  0.2573 -0.0572 -0.2802
 9859W        W30139   4.187   3.466  14.128  0.2071 -0.1169 -0.0125
 9860W        W30140   4.129  14.778  14.813  0.1463  0.1079 -0.2354
 9861W        W30141  15.367   3.507   1.611  0.1507 -0.3518 -0.0863
 9862W        W30142   9.065   3.667  12.826 -0.1028 -0.0059 -0.0668
 9863W        W30143  18.254   0.436  13.251  0.2698  0.0553 -0.0726
 9864W        W30144  11.705   5.599   4.226  0.0406 -0.0903 -0.0219
 9865W        W30145   0.336  17.559  12.595  0.0049 -0.0320  0.1284
 9866W        W30146   0.868   2.491   4.903 -0.0201 -0.2800  0.0729
 9867W        W30147  12.551   2.721   2.382 -0.0846 -0.2450 -0.1280
 9868W        W30148  12.531  10.261  12.010  0.1458 -0.0852 -0.1798
 9869W        W30149   8.278   2.502  14.374 -0.1472 -0.0545  0.4198
 9870W        W30150  12.141  17.323   9.912 -0.0012 -0.0757  0.3110
 9871W        W30151  12.728   4.266   3.339  0.0656 -0.0428 -0.0396
 9872W        W30152   5.267   7.177  11.349 -0.0317 -0.0916  0.0291
 9873W        W30153   3.442   5.423   3.511 -0.0605 -0.1128  0.0669
 9874W        W30154  17.649  17.333   3.466  0.1415  0.0642  0.0301
 9875W        W30155   1.150   2.235   2.455  0.0900 -0.0739  0.0415
 9876W        W30156   5.183   7.168  13.618  0.0781 -0.1847 -0.0454
 9877W        W30157   2.637   4.084   1.251  0.0739  0.1499  0.1722
 9878W        W30158   8.646   8.230  12.859  0.0428 -0.1906  0.1594
 9879W        W30159  10.019  13.863  12.152 -0.0380  0.2465 -0.0156
 9880W        W30160  14.273   2.084  12.528 -0.1224  0.1288 -0.0325
 9881W        W30161  18.536  13.953   1.425 -0.1475  0.1499 -0.2295
 9882W        W30162   7.943   0.971   0.653 -0.3123  0.0043 -0.2275
 9883W        W30163  11.707  11.417   4.134 -0.0318  0.0506  0.1438
 9884W        W30164  17.803  14.396  13.480  0.3015  0.0675 -0.1042
 9885W        W30165  13.350  18.027  13.192  0.1585  0.2008  0.0581
 9886W        W30166  15.511  14.254  14.630  0.0814 -0.1822 -0.1629
 9887W        W30167   3.779  17.498  13.907 -0.1263  0.4166  0.1640
 9888W        W30168   1.659  13.416  11.677 -0.2420  0.0868 -0.4816
 9889W        W30169  18.393  10.020   0.774  0.2558  0.1296  0.1890
 9890W        W30170   9.379  10.582   1.203  0.2156  0.0104 -0.1857
 9891W        W30171   3.045   1.781  15.015 -0.4745 -0.1269 -0.2510
 9892W        W30172  15.559  12.385   1.131  0.1983 -0.0166 -0.2559
 9893W        W30173  14.420  12.493   0.452  0.1140  0.0981 -0.1161
 9894W        W30174  16.637  17.651  13.444 -0.2625 -0.1277 -0.0371
 9895W        W30175   7.307  12.659  14.027 -0.0861 -0.0091  0.1496
 9896W        W30176  18.370  14.131  14.759  0.1834  0.2046 -0.0630
 9897W        W30177  18.252   0.121   2.792  0.0195  0.0616  0.1047
 9898W        W30178   5.135  10.948  12.777 -0.1951  0.0252 -0.1015
 9899W        W30179  10.005   2.481   0.371  0.0722 -0.1345 -0.0140
 9900W        W30180   5.832  12.090   1.977  0.2062 -0.4952  0.0436
 9901W        W30181  12.182   4.717  12.034  0.1866 -0.1486 -0.0696
 9902W        W30182  18.651  11.385  11.032 -0.0909 -0.1633 -0.3476
 9903W        W30183   1.155   9.224  12.821 -0.0043 -0.1572  0.2546
 9904W        W30184   6.941   6.667   4.107  0.2089  0.0055 -0.1504
 9905W        W30185   3.460  17.111   1.715 -0.0052 -0.3063 -0.0477
 9906W        W30186   4.525  10.549   3.314  0.3962  0.2240 -0.3006
 9907W        W30187   5.466   6.968  13.975 -0.1418 -0.0220 -0.0781
 9908W        W30188   6.407   6.409  15.147 -0.1883  0.0077 -0.2682
 9909W        W30189  16.973   2.148   4.023 -0.1199 -0.0953 -0.1942
 9910W        W30190  17.155   4.865   2.553  0.0086 -0.2391  0.1021
 9911W        W30191   2.725  13.253   1.574 -0.0009 -0.4927  0.2604
 9912W        W30192  12.564  18.542  12.611 -0.1524  0.0451  0.1206
 9913W        W30193   5.579   3.288   2.161  0.4133  0.0245  0.0745
 9914W        W30194   4.395   1.176   2.955 -0.3647 -0.2783  0.0478
 9915W        W30195   6.213   0.281  14.040  0.0351  0.0050  0.0261
 9916W        W30196  12.049  17.145  14.086 -0.0130  0.1203 -0.1369
 9917W        W30197  11.715  10.485  11.569  0.4554  0.0067 -0.1621
 9918W        W30198  17.623   5.893  14.967 -0.0397  0.2345  0.2886
 9919W        W30199  11.701  17.873  12.982 -0.0561 -0.0293 -0.2992
 9920W        W30200  13.024   3.520   1.381 -0.1249 -0.0958 -0.1492
 9921W        W30201  12.832   8.406  14.800 -0.4170 -0.0190  0.2820
 9922W        W30202   5.917   0.597  10.577  0.2794 -0.0672  0.0938
 9923W        W30203  13.648  15.280   2.226  0.1660  0.2395  0.1887
 9924W        W30204  18.031   7.686   4.455  0.0152  0.0630 -0.2790
 9925W        W30205   4.492   5.384  13.061 -0.0678  0.0168  0.0916
 9926W        W30206   2.419  14.143  12.559 -0.0362 -0.6007 -0.2300
 9927W        W30207  12.766   7.192   2.903  0.0836  0.0930  0.1790
 9928W        W30208  11.329   1.906   3.931 -0.1475  0.0806 -0.2266
 9929W        W30209   1.576   5.682   1.398 -0.2077 -0.1923  0.1591
 9930W        W30210   7.067  10.817  12.913  0.0728 -0.0159 -0.2214
 9931W        W30211   2.026  13.868   1.960 -0.2429  0.1089  0.0917
 9932W        W30212  11.632   5.187   3.846 -0.0074  0.0913  0.2465
 9933W        W30213  15.524  18.335  11.381 -0.2533  0.2685 -0.2699
 9934W        W30214   4.556  10.446  10.350  0.3326 -0.2095  0.1068
 9935W        W30215  16.740   8.853   1.140 -0.1849  0.4611 -0.0221
 9936W        W30216   2.760  17.877  12.560  0.0829 -0.0798  0.1691
 9937W        W30217   9.360  12.752   2.451 -0.1952 -0.0584 -0.2205
 9938W        W30218   8.646   3.258  11.977 -0.0479 -0.2770 -0.0766
 9939W        W30219  17.600  10.919   1.557  0.2349 -0.1157 -0.2633
 9940W        W30220   0.499   4.595  15.166  0.1165  0.2311 -0.0919
 9941W        W30221   3.545   8.079   1.904 -0.2223 -0.2985  0.2070
 9942W        W30222  18.549  15.587   0.870  0.0669  0.0040 -0.2430
 9943W        W30223  16.982  15.948  14.033  0.0031 -0.2868  0.0013
 9944W        W30224  13.970  16.549  11.914 -0.2241  0.0162  0.0479
 9945W        W30225   5.537   5.335  15.249  0.0430 -0.1343  0.1605
 9946W        W30226   0.184  14.491   0.891 -0.2454  0.1834 -0.4153
 9947W        W30227   3.915   0.109  13.384 -0.0556 -0.1730 -0.1938
 9948W        W30228  17.428   1.883  13.978 -0.0892  0.0483  0.1782
 9949W        W30229  12.008   3.682   1.613  0.0775 -0.0750 -0.0344
 9950W        W30230  14.548  11.746  11.706 -0.1248  0.0391 -0.1291
 9951W        W30231  16.608   6.395   0.635 -0.1722 -0.0612 -0.1336
 9952W        W30232   5.862   9.668   2.930  0.1305 -0.1913 -0.2837
 9953W        W30233   4.415  18.457   3.064 -0.1360 -0.1325 -0.0442
 9954W        W30234   2.675   3.299   4.087  0.2178  0.0915  0.2590
 9955W        W30235  14.099   4.600  12.067 -0.0105  0.0822  0.1071
 9956W        W30236   3.447   0.181  13.539  0.2963  0.0648  0.1434
 9957W        W30237  10.593  14.600  12.648 -0.2519  0.3310 -0.1240
 9958W        W30238   6.546  18.502   0.047 -0.1675 -0.1790 -0.1916
 9959W        W30239   3.129   7.066  12.971 -0.4110 -0.0583  0.0431
 9960W        W30240   1.029  16.131   3.120 -0.1898  0.1055 -0.0473
 9961W        W30241  14.384  10.553  14.142 -0.0857 -0.0685 -0.0963
 9962W        W30242   3.327  17.658  13.176 -0.1805 -0.1331  0.1883
 9963W        W30243   2.650   5.796   5.267  0.1525  0.0312 -0.1016
 9964W        W30244   8.673  15.918   3.297  0.3238  0.1660 -0.1549
 9965W        W30245   7.837  10.886  12.339  0.0953 -0.1526  0.0134
 9966W        W30246  10.064  16.847  11.336 -0.0533 -0.1100  0.0176
 9967W        W30247   2.557   3.124  13.284  0.2069  0.5166  0.4076
 9968W        W30248  14.336  10.446  12.187 -0.2430  0.2857 -0.1930
 9969W        W30249   7.856   6.767   3.343  0.2406 -0.0647 -0.0853
 9970W        W30250  18.340   6.020  13.732 -0.1219 -0.0177 -0.0155
 9971W        W30251   7.730   9.994  11.045  0.0113 -0.1769 -0.2546
 9972W        W30252  18.665  17.949   2.112 -0.1603  0.0137 -0.1731
 9973W        W30253  16.408   3.324  13.874  0.2912 -0.2047  0.0910
 9974W        W30254  16.290   2.339  12.128  0.0832  0.0129 -0.0800
 9975W        W30255   3.509  10.435   0.877  0.0286 -0.0094  0.0413
 9976W        W30256  18.363   6.286   5.101 -0.2848  0.1310 -0.0083
 9977W        W30257  15.274  17.410  14.370  0.0835  0.0512 -0.2564
 9978W        W30258   4.980   2.656  11.837  0.2326  0.1005  0.1381
 9979W        W30259  12.851   5.117   1.203 -0.1642  0.1786 -0.0752
 9980W        W30260  14.794   5.255   2.234 -0.1225 -0.0166  0.1114
 9981W        W30261   5.418   4.548   0.822  0.0241  0.1195 -0.0585
 9982W        W30262   7.547  16.098  13.854 -0.2835  0.0956  0.0586
 9983W        W30263   9.168  13.585  12.067 -0.0831 -0.1162  0.1124
 9984W        W30264  17.581   3.186  12.741  0.0135  0.1693  0.1638
 9985W        W30265  18.081   4.357   0.572 -0.2189 -0.3335  0.1499
 9986W        W30266   8.699  13.562   2.644  0.3132  0.0501 -0.2024
 9987W        W30267   9.410   0.646  11.104 -0.0239 -0.1249 -0.2197
 9988W        W30268  16.368  16.279  13.721  0.0604 -0.0495  0.0744
 9989W        W30269  11.585  13.274  12.034 -0.0290  0.0214 -0.2235
 9990W        W30270   7.351   2.020   4.561 -0.0150  0.3753 -0.0546
 9991W        W30271   6.183   5.412  14.357 -0.1013  0.1846 -0.0395
 9992W        W30272  15.974  10.880   0.969 -0.1431  0.1356 -0.0995
 9993W        W30273   4.559  13.637  11.642  0.0384  0.2286 -0.1820
 9994W        W30274  10.278   1.741   1.870  0.1073 -0.1564  0.1491
 9995W        W30275   4.687   1.156  12.921  0.0966  0.0487  0.2540
 9996W        W30276   9.950  10.962  12.429 -0.0450 -0.1200 -0.0085
 9997W        W30277   3.786  15.415  13.196  0.0422 -0.2146 -0.0763
 9998W        W30278  15.338  11.588   1.038 -0.1150  0.2298 -0.0463
 9999W        W30279  11.837   8.623   4.002 -0.3504 -0.0518 -0.0174
10000W        W30280  15.930   9.896  12.639 -0.1631  0.1352  0.1775
10001W        W30281  13.280   6.688   1.232  0.2639  0.0696  0.0743
10002W        W30282   7.092  14.187   0.694 -0.0935 -0.1995 -0.3090
10003W        W30283   5.816  14.593  14.710  0.1467  0.0780  0.0420
10004W        W30284   0.409  18.290  15.001 -0.2578  0.1430  0.0327
10005W        W30285  10.238   5.370  12.268 -0.1603 -0.3676 -0.0158
10006W        W30286   1.495  11.655  12.665  0.0179 -0.0730  0.1235
10007W        W30287  12.537  13.308   0.256 -0.0762  0.1709 -0.1140
10008W        W30288   9.338  14.682   3.024 -0.0226  0.2294 -0.2304
10009W        W30289  12.781   7.733  11.832  0.2058  0.0205 -0.0817
10010W        W30290   2.222   3.225   0.104  0.0838 -0.3282 -0.0929
10011W        W30291  18.563   1.911   1.013  0.1038 -0.0174  0.3245
10012W        W30292   7.330   8.914  14.715  0.0687 -0.0645 -0.0362
10013W        W30293   4.297   5.890  12.051  0.4702  0.0341 -0.3111
10014W        W30294   9.834   5.683  13.772  0.0413  0.0120 -0.1125
10015W        W30295  10.788   7.447  13.995 -0.2693  0.1317  0.3030
10016W        W30296  11.304  11.527  13.086  0.0495 -0.1128 -0.2420
10017W        W30297  12.807  10.636   4.335 -0.2020  0.2081  0.1586
10018W        W30298  10.359  14.781   2.505  0.2304 -0.0338 -0.2167
10019W        W30299   0.751  18.614   0.617  0.2137 -0.0707  0.1677
10020W        W30300  13.309  11.857   2.557 -0.0554 -0.0225 -0.0115
10021W        W30301   8.750   4.038   2.223  0.0583  0.1708 -0.0606
10022W        W30302  11.299   2.570   1.347  0.0712  0.0058 -0.0036
10023W        W30303  18.449   2.882  12.964  0.2372 -0.4138  0.2773
10024W        W30304   4.884   8.882   4.245 -0.1633  0.1070 -0.0377
10025W        W30305   4.442  10.413  13.380 -0.4327  0.1998  0.1517
10026W        W30306  11.945  14.638   0.992 -0.1617 -0.0144  0.2963
10027W        W30307  11.449   4.172   2.672  0.1994 -0.0862 -0.2871
10028W        W30308  15.161   6.818   1.380 -0.0052 -0.0774 -0.0529
10029W        W30309  10.228  11.083   4.070 -0.1619  0.0438 -0.1745
10030W        W30310  16.252   7.446   3.587  0.1239  0.2167 -0.2150
10031W        W30311   3.927   7.175  13.236 -0.0417 -0.2394  0.1071
10032W        W30312  13.983   5.416   1.716  0.1782  0.1245 -0.0959
10033W        W30313   3.653   8.145  11.496 -0.2511 -0.2994  0.0930
10034W        W30314   0.378  17.023   3.075 -0.0354 -0.0526  0.0080
10035W        W30315  13.850  17.605  11.761  0.1701  0.4492  0.0109
10036W        W30316   6.139  14.236   1.163 -0.4162 -0.1105  0.2248
10037W        W30317  12.075   6.780   3.550  0.1726  0.1128  0.2192
10038W        W30318  15.461  12.441   4.445 -0.1719 -0.0246 -0.4161
10039W        W30319  10.398  10.295  12.534  0.2067  0.0498  0.0469
10040W        W30320   0.697   1.695   4.028  0.2403  0.1458 -0.1815
10041W        W30321   1.357  11.559  11.546 -0.3865 -0.0696 -0.3553
10042W        W30322   9.074   4.022   1.879  0.1074  0.2787 -0.1666
10043W        W30323   0.323  14.167  14.028 -0.1564  0.1119 -0.0709
10044W        W30324   9.921   6.333  12.950  0.0500  0.0907  0.0565
10045W        W30325  14.218  14.692   0.839  0.0187 -0.1737  0.2007
10046W        W30326  10.649  17.863  12.814  0.0455 -0.2302  0.0171
10047W        W30327   4.361   8.720  15.118 -0.4745 -0.1332  0.1329
10048W        W30328  18.036   9.781   1.716 -0.1812 -0.1570  0.1707
10049W        W30329   3.484   3.729  13.536  0.1732 -0.2125  0.2972
10050W        W30330  14.345  13.672   1.094  0.0017  0.1916  0.2188
10051W        W30331  10.660   6.834  14.847 -0.0662 -0.1764  0.1696
10052W        W30332   5.206   8.146  13.431  0.0774  0.0010  0.1573
10053W        W30333   8.216   8.115   2.304 -0.0874  0.0389 -0.1690
10054W        W30334   8.118   9.022  12.270 -0.0261  0.0564  0.1420
10055W        W30335   5.773  16.895  11.630 -0.0563 -0.2161  0.2523
10056W        W30336  10.256  17.000  14.261  0.0369 -0.0139 -0.0870
10057W        W30337  16.133   0.662   3.240  0.2351  0.0737 -0.1937
10058W        W30338  12.732   4.277  13.861 -0.0585  0.1953  0.1707
10059W        W30339  10.440  12.724  14.366  0.0100  0.1240  0.1765
10060W        W30340   6.630   0.577  13.428 -0.2183  0.1848  0.0992
10061W        W30341  13.490   0.263  12.652 -0.0371  0.2545 -0.1656
10062W        W30342   4.497  11.889   3.881 -0.2041 -0.0560  0.0157
10063W        W30343   5.473  12.611  12.102  0.2219  0.4010 -0.3071
10064W        W30344   9.788   5.180  14.893  0.0622 -0.2092  0.2068
10065W        W30345  13.027   6.054   3.608 -0.0254  0.0567 -0.0474
10066W        W30346  11.851  14.595  11.264 -0.1667  0.0950 -0.1294
10067W        W30347   3.232   2.799   1.393 -0.0792 -0.2915 -0.1366
10068W        W30348   1.237   6.935   2.905 -0.1960 -0.2185  0.1297
10069W        W30349   8.830   3.661  14.069  0.1163 -0.2162 -0.2926
10070W        W30350   3.317   5.359   0.160 -0.2347 -0.3533 -0.2349
10071W        W30351  12.430  14.181   0.128 -0.4113  0.0778 -0.0337
10072W        W30352   5.088  15.179   0.818 -0.3092  0.0155 -0.1254
10073W        W30353  10.551  17.646  14.366 -0.0382 -0.4014  0.0258
10074W        W30354   4.896  13.084   0.027  0.1532  0.3026  0.1061
10075W        W30355  18.356   5.181  10.395  0.2266 -0.0335  0.1180
10076W        W30356  15.290   6.011  14.516 -0.2605  0.2715  0.0530
10077W        W30357  16.072   7.654   0.075 -0.1475  0.3068  0.0326
10078W        W30358  13.480   8.037   1.609 -0.2041  0.0551  0.0034
10079W        W30359  10.125   5.630   2.231  0.0301 -0.2326  0.2416
10080W        W30360   3.622   1.922  15.093 -0.1980 -0.1317 -0.1069
10081W        W30361   0.397  14.264  15.387  0.2551 -0.1936  0.1129
10082W        W30362   2.391   1.252  13.406  0.0833  0.1363  0.1484
10083W        W30363   7.613   3.798   3.326 -0.2317 -0.0576  0.1489
10084W        W30364   4.534   5.800  13.366 -0.3936  0.2065  0.0691
10085W        W30365   5.701   1.318   0.403 -0.0463 -0.4325  0.1540
10086W        W30366   8.503  13.697   0.739  0.1375  0.0387  0.0540
10087W        W30367  15.932  15.116  11.379  0.0122  0.2713 -0.1550
10088W        W30368  13.206   8.289  14.466  0.0974  0.4143 -0.2356
10089W        W30369  15.597   6.857   1.147  0.2081 -0.0721 -0.0287
10090W        W30370  12.619  17.002  11.126 -0.2879 -0.1807  0.0961
10091W        W30371   6.786   6.272  14.515 -0.3713  0.1085  0.1872
10092W        W30372   1.927  11.105  13.771 -0.0380 -0.0224 -0.0043
10093W        W30373  12.025   5.946  14.927 -0.1269  0.2965 -0.3062
10094W        W30374  15.288   3.232  14.878 -0.2159  0.3726 -0.1658
10095W        W30375   0.044   4.252  11.740 -0.1402  0.1675 -0.0718
10096W        W30376   0.547   2.459   1.089  0.2788  0.0197  0.0939
10097W        W30377  18.019   4.120   1.263 -0.0790  0.0227  0.1491
10098W        W30378  17.532   4.605   3.954 -0.0627 -0.0041 -0.2940
10099W        W30379  16.897  11.845   0.580  0.1437  0.0354  0.2271
10100W        W30380  11.442   6.200  12.683  0.0053  0.2542 -0.2325
10101W        W30381  17.324  12.149   1.800  0.0933 -0.1934  0.1601
10102W        W30382  15.293   3.878   1.032 -0.1958 -0.1742 -0.1177
10103W        W30383  11.830   3.528   0.157  0.1170  0.3091  0.2358
10104W        W30384   8.765   8.804  14.083  0.1751  0.0508 -0.1101
10105W        W30385   1.542  14.652   1.276 -0.1117  0.1174  0.2615
10106W        W30386  18.156   5.955   4.243 -0.1553 -0.2766 -0.1297
10107W        W30387  15.815  13.491  13.159 -0.0488  0.0520 -0.3446
10108W        W30388   7.571  18.606  11.308 -0.1422  0.0901 -0.0937
10109W        W30389  13.257   9.745   0.681 -0.0860 -0.0580 -0.1520
10110W        W30390   1.539  14.845   3.097 -0.0449  0.0711  0.3479
10111W        W30391   8.169  12.629  12.485 -0.1907  0.0437 -0.0800
10112W        W30392  18.421   3.577   1.709 -0.1302 -0.1865 -0.0888
10113W        W30393   4.663  16.616   0.781 -0.2551  0.1611  0.0279
10114W        W30394  17.573  16.999  11.272 -0.0105  0.0860  0.0188
10115W        W30395   5.862  11.348   3.702 -0.3589 -0.0646 -0.2915
10116W        W30396  11.700   3.035  13.578  0.2053  0.1796 -0.1629
10117W        W30397   3.161  13.440   1.534 -0.0114  0.0134 -0.0921
10118W        W30398   9.077   8.614   2.386  0.1359  0.2039 -0.1554
10119W        W30399   0.977   0.670   4.262  0.1732 -0.2601  0.0604
10120W        W30400   8.560   1.725   3.814  0.0959  0.1200 -0.1581
10121W        W30401   5.522   0.430   2.827 -0.1076  0.1598  0.0463
10122W        W30402   4.238   4.311  14.702 -0.2244 -0.1658 -0.0757
10123W        W30403  10.119   8.174   3.241 -0.1295 -0.2424  0.1601
10124W        W30404  15.337   6.721   3.473  0.1785 -0.1804 -0.2218
10125W        W30405  15.269   3.931  13.267  0.1829  0.0956 -0.4120
10126W        W30406  17.671  15.765  13.559  0.0738  0.2146 -0.0013
10127W        W30407   6.520  12.896   3.345  0.2242 -0.2717  0.1656
10128W        W30408   5.481  11.752  12.384 -0.4033  0.0700  0.1155
10129W        W30409  12.695  15.710   1.167 -0.2125 -0.1425 -0.1770
10130W        W30410  17.627   1.788  12.628  0.1783 -0.1850  0.2553
10131W        W30411   8.994  13.012  14.464  0.0977 -0.1530  0.3298
10132W        W30412  13.267  10.283   2.681  0.0929 -0.0827 -0.1450
10133W        W30413   4.464   4.763   0.947  0.2208 -0.2615  0.0443
10134W        W30414  15.858  10.302  12.872 -0.0108  0.1897 -0.0470
10135W        W30415  14.991   0.991   1.806  0.0696 -0.2506  0.0905
10136W        W30416   3.552   2.459   1.039  0.1342 -0.0403  0.1505
10137W        W30417  12.436   8.729  14.103  0.0503 -0.1741  0.1589
10138W        W30418  10.257   1.237   1.939 -0.0282 -0.4800 -0.1360
10139W        W30419   6.745   5.212  11.798 -0.4816  0.3230  0.0931
10140W        W30420   6.646  10.987   4.015  0.0044 -0.2090 -0.0083
10141W        W30421   6.498  11.992  14.495 -0.1195  0.2690 -0.0586
10142W        W30422  12.969   0.752   3.459  0.1368 -0.1998  0.1401
10143W        W30423  12.927  14.068  15.357 -0.0108  0.0215 -0.0391
10144W        W30424   9.018   0.830   1.389  0.0189 -0.0248  0.0638
10145W        W30425  14.340   7.453  11.807 -0.1913  0.0018  0.0099
10146W        W30426  16.890   1.820   1.052  0.1921  0.3006 -0.1335
10147W        W30427   9.602   9.076  14.366 -0.3828 -0.2142 -0.0950
10148W        W30428  14.739  10.651   1.274  0.1904  0.0988 -0.0482
10149W        W30429   2.170  13.615  11.762 -0.1341  0.0368 -0.0591
10150W        W30430  17.104   9.320  14.492 -0.1973  0.2176  0.0513
10151W        W30431  13.586  10.061  13.489 -0.2972  0.4247  0.0435
10152W        W30432   8.245   7.271  14.795 -0.0706  0.0487  0.2567
10153W        W30433  15.082  11.117   3.147  0.1035  0.0465  0.2982
10154W        W30434   5.194   2.355  13.987 -0.0036 -0.1485 -0.0335
10155W        W30435   8.834  12.856   0.352  0.1698  0.1466  0.4673
10156W        W30436   1.402  15.168  12.430  0.4325  0.0932 -0.0334
10157W        W30437  12.728  14.268   1.923 -0.4135  0.2281  0.1970
10158W        W30438  10.930  17.425   1.161  0.0793  0.3425 -0.3385
10159W        W30439   3.942   4.083  14.385 -0.0865 -0.0158 -0.1405
10160W        W30440  12.964   8.196   3.263 -0.1719  0.1140 -0.1929
10161W        W30441   0.001  12.754  13.695  0.1634  0.2850  0.0010
10162W        W30442  12.103   0.619  13.897  0.1127 -0.2786  0.3540
10163W        W30443  16.710  12.909   2.476  0.0953  0.0847  0.1497
10164W        W30444  18.540   1.372   2.410 -0.0134  0.1378 -0.0542
10165W        W30445   8.403   9.577   0.820  0.1143  0.1969 -0.1129
10166W        W30446  13.095   4.468  12.312 -0.0513  0.0228  0.0976
10167W        W30447   4.187   2.155   3.668 -0.3890 -0.0405  0.0547
10168W        W30448   0.677   7.456  13.744 -0.0076 -0.2437  0.0951
10169W        W30449   8.652  11.100  10.467  0.1940 -0.0203 -0.2600
10170W        W30450  12.949  15.882  12.429  0.1408 -0.3033 -0.3167
10171W        W30451   0.639   0.880  12.092 -0.2474 -0.2597  0.0311
10172W        W30452  16.668  17.609  10.898  0.2453  0.0465 -0.2258
10173W        W30453  10.045  10.759   1.184 -0.0514 -0.1114  0.1460
10174W        W30454   1.831  11.145  11.128  0.1978  0.1837 -0.0582
10175W        W30455   4.282   8.452  12.103 -0.1375  0.1369 -0.1897
10176W        W30456   5.872   8.684   2.547 -0.1540 -0.1583  0.1723
10177W        W30457   2.244   0.798  13.561 -0.0301 -0.3184  0.0986
10178W        W30458   2.689   9.822  14.642 -0.0416  0.3078 -0.0169
10179W        W30459   2.254  15.491  12.169  0.0689 -0.1367 -0.3344
10180W        W30460   0.846   5.999  11.754 -0.0075 -0.0240 -0.4092
10181W        W30461  12.720  14.306  13.801 -0.0282  0.0105 -0.0587
10182W        W30462   3.979   8.294   2.883  0.1332  0.2053  0.0747
10183W        W30463  15.743   3.404  15.038  0.0065  0.1914  0.0092
10184W        W30464  13.763  18.083   1.026 -0.0962 -0.0241 -0.2916
10185W        W30465   4.095  18.411  13.082  0.0377  0.2390  0.4005
10186W        W30466   9.580   4.048  15.357 -0.2035 -0.1880 -0.1446
10187W        W30467  13.986  10.769   3.342 -0.2102  0.0851  0.2041
10188W        W30468  14.478   3.852  11.385  0.0220 -0.4857  0.3083
10189W        W30469   7.322   1.381   4.921 -0.3299 -0.0185  0.2246
10190W        W30470   5.904   1.933   3.490  0.1726 -0.4707 -0.0012
10191W        W30471  14.689  14.577   1.162  0.1468  0.4288 -0.2464
10192W        W30472  13.072   6.161  11.551  0.2800 -0.0799  0.2028
10193W        W30473   7.701   8.214  13.144 -0.2298 -0.2690  0.3676
10194W        W30474   2.866   2.920  14.182  0.1098  0.1989 -0.5796
10195W        W30475  13.967   8.674  11.784 -0.1051  0.0945  0.2125
10196W        W30476   8.269   7.723  13.670  0.0811 -0.1070  0.0084
10197W        W30477   2.154   1.554  14.578  0.0952  0.1835 -0.0534
10198W        W30478   7.076  14.284   1.308 -0.1673 -0.2231 -0.0730
10199W        W30479  15.473   2.336   2.874 -0.0091  0.2153 -0.0200
10200W        W30480   2.871  16.311   1.001  0.0415  0.1688 -0.1477
10201W        W30481  18.229  15.418   1.493  0.0271  0.0085  0.1786
10202W        W30482   3.512   8.642  11.340 -0.3537 -0.1282 -0.1531
10203W        W30483   2.373   8.536  14.030 -0.1408 -0.2559 -0.0643
10204W        W30484  11.470  10.104  11.708  0.1638  0.3636 -0.2041
10205W        W30485  12.547  16.793  13.306 -0.0428  0.1389  0.0900
10206W        W30486   7.132   6.462  14.817 -0.2341 -0.1640  0.1238
10207W        W30487  16.799   8.135   3.784 -0.1787  0.1309  0.1496
10208W        W30488   8.205  16.631  15.049  0.1081  0.0975 -0.4241
10209W        W30489   1.646  18.690   1.839 -0.3009 -0.1948  0.4263
10210W        W30490   6.029   9.503  13.655  0.1167  0.1930  0.2255
10211W        W30491   0.330   8.502   2.244 -0.0836  0.0510 -0.1086
10212W        W30492  16.710  15.133  15.056 -0.2331  0.5072  0.2390
10213W        W30493   5.772   8.009   3.886  0.6148 -0.1070 -0.2937
10214W        W30494   1.244   8.075   3.632 -0.1916  0.2178 -0.0320
10215W        W30495   1.136   4.782  12.629 -0.0377  0.2115  0.2823
10216W        W30496  15.426  17.235   3.275 -0.1443  0.0425 -0.2227
10217W        W30497  17.367  15.574  13.044 -0.0951  0.0322  0.1163
10218W        W30498  17.108   9.804  12.781  0.0316  0.0620 -0.1491
10219W        W30499  15.410   6.748   0.064 -0.1819 -0.1508  0.2261
10220W        W30500   5.750  11.353  12.706 -0.1274  0.0890 -0.0622
10221W        W30501   9.553  15.923   1.595 -0.0337 -0.0422 -0.2494
10222W        W30502   7.228  14.801  14.436  0.0736 -0.2784  0.0347
10223W        W30503   5.455   9.374   2.913 -0.0492 -0.2840 -0.0582
10224W        W30504  10.031  12.033   4.170  0.0553 -0.0709  0.0104
10225W        W30505   1.652  13.682  13.818  0.2207 -0.0766 -0.1446
10226W        W30506   0.999  18.094  13.473  0.2999 -0.2685 -0.2644
10227W        W30507   4.885   1.125   2.784  0.2468 -0.0177  0.0922
10228W        W30508  14.211   7.679   4.184 -0.0057 -0.0911 -0.0207
10229W        W30509  15.101  16.669  12.358  0.1014  0.3714 -0.2056
10230W        W30510   2.318   6.662  13.193 -0.0262 -0.0123  0.3000
10231W        W30511  14.775  14.832   2.982 -0.0332  0.2141 -0.0375
10232W        W30512   2.490  10.109   0.716  0.0335  0.3753  0.3271
10233W        W30513   5.310  17.188  12.876  0.0601  0.0746 -0.1097
10234W        W30514  13.630   8.847   3.531 -0.2294 -0.2096  0.0349
10235W        W30515  15.852   1.478  12.382 -0.0374 -0.1060  0.0977
10236W        W30516   4.871   3.201  10.253 -0.1409  0.3459 -0.2598
10237W        W30517  12.595  10.399  12.777  0.0110  0.2803 -0.0517
10238W        W30518   8.585   6.870   4.501 -0.1347 -0.3390 -0.0973
10239W        W30519  14.117   4.994   2.936 -0.2959 -0.1549 -0.0285
10240W        W30520   0.442   8.193   5.402 -0.1321  0.0211 -0.0014
10241W        W30521   6.209  15.036   3.567  0.1104 -0.1913 -0.3137
10242W        W30522   3.438  11.298  12.005  0.0019  0.2515  0.1645
10243W        W30523   9.628   0.395   0.967 -0.1488  0.1390 -0.3163
10244W        W30524  15.946   2.185  12.962 -0.0815 -0.0779  0.0857
10245W        W30525  11.682   4.496  12.947 -0.0342  0.0192 -0.0531
10246W        W30526   8.923  10.558   3.834 -0.0540  0.0783  0.1396
10247W        W30527   4.191  13.290  12.959 -0.0019  0.1641 -0.1561
10248W        W30528  17.603   8.982  14.668 -0.2668  0.2293  0.0611
10249W        W30529  16.540  11.558  12.365  0.1513  0.0794 -0.0279
10250W        W30530  18.238   0.363   0.464 -0.1007  0.0376  0.0981
10251W        W30531  13.785   8.808  14.878 -0.1153  0.1222  0.1912
10252W        W30532  13.831  10.807  14.713  0.1262  0.1792  0.0869
10253W        W30533   6.276   6.935  14.415  0.4596 -0.1915 -0.1275
10254W        W30534  10.099   3.292  12.595  0.0493 -0.2790 -0.4247
10255W        W30535   5.641   3.106   1.071 -0.1380  0.0694 -0.1732
10256W        W30536  16.161  11.310  12.601  0.1791  0.0134  0.1052
10257W        W30537   2.565  16.253   0.581 -0.0868 -0.1086 -0.1315
10258W        W30538   9.176   1.521  14.960  0.2226  0.1934  0.1604
10259W        W30539  13.926   7.021   3.297  0.1624  0.1733 -0.3380
10260W        W30540   3.819  14.318   0.837 -0.0389  0.1134  0.0072
10261W        W30541  10.886   3.397  14.195 -0.2898  0.1656  0.0830
10262W        W30542   7.786  11.351  14.525  0.0023  0.0823 -0.2188
10263W        W30543   7.382   3.842   2.347 -0.0573  0.2113  0.1496
10264W        W30544   0.895   5.967  11.204  0.0787  0.0175  0.2654
10265W        W30545  17.292  17.718  14.148 -0.0887 -0.1873 -0.1834
10266W        W30546   7.661   5.900   0.729 -0.0177 -0.0797 -0.0001
10267W        W30547   3.449   3.357   0.595  0.1905  0.1223  0.1294
10268W        W30548   0.165   8.652  12.200 -0.0644 -0.3525  0.0415
10269W        W30549  12.400  15.771   4.002 -0.1994 -0.2337 -0.1637
10270W        W30550   3.205   5.551  11.379  0.1026  0.1800 -0.4196
10271W        W30551  10.044   2.757  13.359  0.1585  0.1412  0.4967
10272W        W30552  17.194   3.016  13.063  0.1488  0.0484  0.1416
10273W        W30553   5.231  13.671   4.944 -0.2884  0.3303  0.3689
10274W        W30554   6.381   6.927   3.093  0.1546 -0.0060 -0.0379
10275W        W30555  14.156   6.751  14.569 -0.0789  0.1628  0.1040
10276W        W30556  14.775   9.594  12.823  0.2684 -0.0475  0.0635
10277W        W30557   3.167   7.697  10.953  0.1692  0.0603  0.0751
10278W        W30558   5.834   5.024  11.229 -0.0447 -0.0964  0.2615
10279W        W30559  14.392  16.171   3.445  0.0526  0.0606  0.1257
10280W        W30560   9.134   1.283   1.268 -0.1053  0.0855  0.0721
10281W        W30561   1.522  10.969   2.065 -0.2020 -0.1815  0.0285
10282W        W30562   3.970  14.231  10.816 -0.0858 -0.0619 -0.2315
10283W        W30563  17.527   2.132   2.769 -0.1021 -0.1416  0.1367
10284W        W30564  12.062  14.795  11.706 -0.2663  0.3374  0.1031
10285W        W30565  13.046   7.890  14.126 -0.1485 -0.1140 -0.1557
10286W        W30566  17.043   4.755   3.027 -0.2655 -0.3774  0.1090
10287W        W30567  17.903   7.101   1.468  0.2075  0.2100  0.1136
10288W        W30568  18.471   0.258   4.103 -0.0355  0.0063  0.3407
10289W        W30569  17.404  13.034  14.771 -0.2690  0.1369  0.0702
10290W        W30570  12.298  12.703   3.254  0.0719  0.2395  0.0267
10291W        W30571  12.697  18.370   0.310  0.1289  0.1599  0.0533
10292W        W30572  11.873   8.344  14.660 -0.0277 -0.3898  0.2511
10293W        W30573   4.561  18.159   3.507 -0.1154  0.0014  0.0004
10294W        W30574   6.697   7.899   1.780  0.1451  0.3300  0.0270
10295W        W30575   6.100   9.692   0.442 -0.0543  0.0485 -0.3834
10296W        W30576   3.153   0.826   4.900 -0.2965  0.0288 -0.1267
10297W        W30577  12.062  16.535   4.360  0.0346  0.1390  0.0805
10298W        W30578   5.788  13.358  14.578  0.1690 -0.2256  0.1393
10299W        W30579  11.413   7.016   4.018 -0.0102  0.3173 -0.1159
10300W        W30580  16.504  17.758  13.952 -0.0696  0.1731 -0.0049
10301W        W30581   3.124  17.288  11.888  0.0944  0.1765 -0.1925
10302W        W30582   0.842   7.882  14.126 -0.1127  0.0340 -0.2203
10303W        W30583  13.218  12.172  11.691 -0.1403 -0.2689 -0.0742
10304W        W30584  14.751   5.516  12.333  0.5902 -0.0131 -0.0127
10305W        W30585   0.370   4.993  11.654 -0.1106 -0.0047  0.4716
10306W        W30586   0.440   2.002   0.465  0.1034 -0.2478 -0.2975
10307W        W30587   3.812  12.896   2.061 -0.0382  0.2325  0.1095
10308W        W30588   2.402  17.758  15.094 -0.3337  0.0285 -0.0852
10309W        W30589   2.457   3.845  10.212 -0.0033  0.1300 -0.2676
10310W        W30590  13.817   1.243  14.211  0.2222  0.4019  0.1993
10311W        W30591   5.256   5.149  14.922  0.0001  0.1577  0.2148
10312W        W30592   2.415   5.911   3.981  0.2631 -0.2238  0.1506
10313W        W30593   2.895   6.255  10.753 -0.1605  0.0305  0.4087
10314W        W30594   2.480  18.687  13.764 -0.1583  0.2361  0.0960
10315W        W30595  10.618   6.746  14.312  0.0007  0.5798 -0.0095
10316W        W30596  11.936  14.507  12.198 -0.0622  0.0805 -0.2395
10317W        W30597  16.194   3.255   4.582  0.0371  0.0795 -0.0640
10318W        W30598   8.325  15.066   1.486  0.2016  0.0139  0.0811
10319W        W30599  14.285   1.241   0.565 -0.0474  0.0013  0.1240
10320W        W30600  11.636   7.822  12.337 -0.2816 -0.0276 -0.2345
10321W        W30601  15.120   8.626   4.151  0.2826  0.2208 -0.0377
10322W        W30602   7.482  10.235   0.806  0.0450 -0.1376 -0.0575
10323W        W30603  12.299  11.232   2.795  0.0856 -0.1272  0.0092
10324W        W30604  11.321  11.439   3.798 -0.3474  0.1120 -0.0401
10325W        W30605   6.545  11.979  12.366  0.0823  0.1262 -0.4162
10326W        W30606  10.357   7.778   2.372 -0.1887 -0.0735 -0.0420
10327W        W30607   9.855  14.307  15.171 -0.1918  0.2234 -0.1372
10328W        W30608   3.898   2.133  13.372  0.0228 -0.1106 -0.0777
10329W        W30609   7.916  12.055   3.517  0.0209 -0.0452  0.2058
10330W        W30610  16.929  13.501  12.986  0.0469  0.0148  0.1643
10331W        W30611  18.413   2.833   3.095 -0.1813  0.2973  0.0271
10332W        W30612   1.359  10.937  13.358 -0.2886 -0.1769 -0.3372
10333W        W30613  12.648  15.754  14.984  0.2931 -0.1613 -0.2258
10334W        W30614   6.416  15.303   0.284  0.1243 -0.0961  0.2424
10335W        W30615  10.361  12.223  11.448 -0.0863  0.1405 -0.4207
10336W        W30616  16.136   6.772   0.473 -0.1794 -0.0716 -0.0001
10337W        W30617   6.884  14.473  14.743 -0.0821 -0.1060  0.1307
10338W        W30618  18.182   2.155   2.646  0.3110 -0.1252 -0.0345
10339W        W30619   7.310   0.088  14.988 -0.1445  0.1447  0.0856
10340W        W30620   6.125  17.075   3.195  0.2729  0.0027  0.2905
10341W        W30621   2.475  14.432   2.300 -0.2213 -0.0597 -0.0170
10342W        W30622  17.374   3.781   0.550  0.0676 -0.1250 -0.1251
10343W        W30623   8.139  16.477  12.695 -0.0257  0.2195 -0.1076
10344W        W30624  12.028  13.175   3.200 -0.6290  0.0626 -0.0576
10345W        W30625  12.332  17.358   4.305  0.0230 -0.1761  0.2449
10346W        W30626   4.974   0.245   3.644  0.1938 -0.1071  0.0761
10347W        W30627  15.695  16.477  11.633 -0.1854  0.1614 -0.1357
10348W        W30628   9.405   9.196   3.918 -0.0594 -0.0214  0.0715
10349W        W30629  13.699   3.712   0.214  0.2084  0.1918  0.0370
10350W        W30630   4.686  18.175  11.565 -0.3733  0.0476  0.1307
10351W        W30631  17.619   2.908   4.170 -0.3303 -0.1164  0.3240
10352W        W30632  14.109  10.154  13.563  0.2724 -0.1884 -0.2076
10353W        W30633  16.997   4.650  13.747 -0.2402 -0.0528 -0.0272
10354W        W30634  14.623   2.500  14.893  0.1006  0.2597  0.1212
10355W        W30635   1.736   8.236   3.799  0.3240 -0.3639 -0.1138
10356W        W30636  14.390  15.215   2.935  0.1118 -0.2361 -0.0639
10357W        W30637   1.392   8.780   2.555  0.0439  0.2542  0.4247
10358W        W30638  13.454   3.098   3.353  0.0116 -0.1399 -0.0314
10359W        W30639   7.833  16.861  12.055  0.5153  0.2281  0.1526
10360W        W30640   2.861   7.447  10.642 -0.1239 -0.0278  0.0870
10361W        W30641   1.987   4.120  11.998  0.3470 -0.0000  0.1067
10362W        W30642   9.253   5.779   0.615 -0.1840 -0.0418 -0.1066
10363W        W30643   6.702   4.502  15.335 -0.3034 -0.2585 -0.0078
10364W        W30644  12.954   1.578  12.437  0.3036 -0.1142 -0.2168
10365W        W30645  11.938   7.797   4.545  0.1826 -0.0461 -0.1354
10366W        W30646   3.522   6.132  12.955 -0.1337  0.1620 -0.2785
10367W        W30647  17.196  14.338  13.872  0.0970  0.0242 -0.3020
10368W        W30648  15.303  17.637   2.988 -0.1130 -0.0931  0.1512
10369W        W30649  18.441   3.785   3.241  0.1141  0.1086 -0.1563
10370W        W30650  10.943  16.641  13.669 -0.1137  0.2233 -0.1919
10371W        W30651   1.130   9.257  11.385  0.0428 -0.6364  0.4025
10372W        W30652  13.714   8.431   0.320 -0.0829 -0.0018  0.0459
10373W        W30653   5.765   3.216  13.079 -0.0339  0.1174  0.3144
10374W        W30654  15.476  13.916   3.718  0.0781  0.0190 -0.1128
10375W        W30655  18.432   4.798  11.181 -0.2464  0.2065  0.4194
10376W        W30656  17.066  11.593   3.606  0.1543 -0.0002  0.2659
10377W        W30657  17.776   0.095   0.141  0.1863  0.0061 -0.1592
10378W        W30658   4.998   5.922  13.056  0.4480  0.1672 -0.0717
10379W        W30659  13.425  12.398   2.800 -0.1683  0.1196  0.0700
10380W        W30660   4.355   6.450  12.531 -0.3616  0.1708  0.2507
10381W        W30661  12.877   6.926   0.669  0.1884  0.1742  0.1133
10382W        W30662   2.366   5.419  10.932  0.3624 -0.0417  0.2520
10383W        W30663  11.433  17.182   2.310  0.0417 -0.1428  0.0199
10384W        W30664   7.990  17.544  12.804  0.0769 -0.0057  0.0250
10385W        W30665   0.479  11.826  13.085  0.0112 -0.1080 -0.2642
10386W        W30666  13.401   4.968   2.324 -0.3323 -0.1195 -0.2774
10387W        W30667  12.510  12.596   2.362 -0.1209  0.1472 -0.0976
10388W        W30668   0.305   9.913   2.170  0.1393  0.0459  0.2043
10389W        W30669   0.796   0.075   2.499  0.4560  0.0169  0.0115
10390W        W30670  12.251  12.039   0.697  0.0486 -0.0443  0.0152
10391W        W30671   0.275   7.152   0.240 -0.0878 -0.1403  0.0673
10392W        W30672   2.168  17.211  12.054  0.3242  0.0320  0.1278
10393W        W30673   3.242  16.402  13.371 -0.0878  0.1623  0.0707
10394W        W30674   5.838  17.339   2.476 -0.3373 -0.1514 -0.1462
10395W        W30675   0.418   4.579   3.238  0.1080 -0.0096 -0.2694
10396W        W30676  11.990  14.989  10.125  0.2442 -0.1947  0.0439
10397W        W30677   5.309  14.598  11.583  0.3982  0.2049  0.1046
10398W        W30678  11.525   6.801  13.264 -0.1854 -0.1426 -0.0781
10399W        W30679   2.124   3.679  12.760 -0.0365  0.0249  0.2353
10400W        W30680  18.548  16.575   0.129  0.0027 -0.0349  0.1609
10401W        W30681  16.710  18.035   4.365  0.0448 -0.1634  0.0974
10402W        W30682  10.899  13.018   0.314  0.0472 -0.1757 -0.0812
10403W        W30683  18.294  10.944   0.027  0.2163 -0.0207  0.0435
10404W        W30684  15.857  14.650  11.505 -0.0278  0.0404  0.1511
10405W        W30685  15.293  11.433  14.979 -0.1234 -0.1126  0.1543
10406W        W30686   9.186   3.632  11.919  0.0177 -0.0015 -0.1067
10407W        W30687  12.110   4.356  15.010  0.2292 -0.1383 -0.3758
10408W        W30688   2.605   0.623  11.318 -0.0544  0.1743  0.0722
10409W        W30689   8.911   1.914  14.893 -0.1477  0.0558  0.0977
10410W        W30690  13.202   7.127   1.708 -0.0486 -0.0365 -0.2185
10411W        W30691  15.320   2.513   1.616 -0.2238 -0.0236 -0.0468
10412W        W30692   4.978   5.509   2.195 -0.1255 -0.0230 -0.1330
10413W        W30693  18.634   5.966   1.465 -0.0174 -0.3881 -0.0201
10414W        W30694  11.172  10.106   4.166  0.1536  0.1423  0.1284
10415W        W30695  13.092   7.558   2.665 -0.0666  0.0756  0.2290
10416W        W30696   4.553  12.421   2.978  0.2740  0.0562 -0.2170
10417W        W30697   3.141   4.396  11.848  0.1841  0.0293 -0.4559
10418W        W30698   7.666  11.156   0.502  0.1682 -0.2487  0.1158
10419W        W30699   8.778  17.214   0.315 -0.4663  0.2058  0.0503
10420W        W30700   0.528  18.549  11.306  0.4151  0.2097 -0.2544
10421W        W30701  16.409   1.010  11.872 -0.0036 -0.2141 -0.1656
10422W        W30702  10.807  14.229   3.620  0.1579 -0.2349 -0.0886
10423W        W30703   5.279  13.241   1.262  0.2149 -0.1048  0.2486
10424W        W30704   9.434  14.478  11.070  0.1594  0.0431  0.2635
10425W        W30705   3.017   9.300   5.358 -0.1861 -0.0597  0.1083
10426W        W30706  10.506   1.438  12.255 -0.0822  0.0497 -0.0989
10427W        W30707   3.506   8.775   3.639 -0.0237 -0.1581 -0.0627
10428W        W30708   8.158  14.384   2.655  0.1017 -0.1366  0.2644
10429W        W30709  17.259   2.064   3.665 -0.4070  0.3145 -0.0422
10430W        W30710   0.299   7.522  13.411  0.1056 -0.1592 -0.0855
10431W        W30711   0.882   3.208   0.395 -0.0964 -0.0204 -0.3439
10432W        W30712   6.446   2.782  12.974  0.2911  0.0966  0.0228
10433W        W30713  14.837   1.110  11.809 -0.0608 -0.3991 -0.0678
10434W        W30714   7.824   2.667  11.865 -0.0086 -0.0087  0.2535
10435W        W30715   6.315   8.889  12.127 -0.0517 -0.0321 -0.1200
10436W        W30716   8.422   4.474  11.567 -0.0125  0.1609  0.0220
10437W        W30717   2.611  18.329  12.321 -0.0055  0.0307  0.1054
10438W        W30718   3.243  13.738   2.108  0.0732 -0.2759 -0.3482
10439W        W30719  13.906  14.218   0.850 -0.1079  0.1302  0.0592
10440W        W30720   2.625  11.397   2.888  0.1646 -0.0980  0.0040
10441W        W30721   4.773   1.829  13.404 -0.1696 -0.0442  0.0793
10442W        W30722  16.493   7.171   1.755  0.1302  0.1845 -0.2222
10443W        W30723   1.606   2.994  13.103  0.2352  0.1333  0.0486
10444W        W30724   5.148  15.861  12.765 -0.4625  0.0091  0.0281
10445W        W30725  14.035  16.863  12.866  0.2375 -0.1845 -0.3532
10446W        W30726   9.306  14.824   2.316  0.0109  0.0402  0.1073
10447W        W30727   2.091  12.910   1.019  0.2692  0.0622  0.3200
10448W        W30728   6.706  12.622   0.359  0.3091 -0.1334 -0.2130
10449W        W30729   4.576  17.251  11.636 -0.0233 -0.0271  0.0232
10450W        W30730  10.996  13.829  12.122  0.1688 -0.0199  0.0069
10451W        W30731  13.333  15.156  15.208  0.3393  0.0961  0.0255
10452W        W30732   0.512  16.817  12.704 -0.0282 -0.2187 -0.0275
10453W        W30733   7.029   1.256   0.866  0.0181 -0.2063  0.1261
10454W        W30734  12.673  12.222  11.782  0.1607 -0.0307  0.3281
10455W        W30735   5.622  17.470   0.365 -0.1163 -0.0302  0.1419
10456W        W30736  11.921  14.201   1.320  0.0588  0.0649  0.2398
10457W        W30737   4.156   5.416  15.152  0.1356 -0.1041 -0.0895
10458W        W30738   4.096   3.910   0.834 -0.0610  0.1171 -0.1046
10459W        W30739  16.420   1.422  11.526  0.0591 -0.1207  0.2326
10460W        W30740  15.386  17.145   2.431  0.1955  0.0491 -0.0378
10461W        W30741   0.818  18.022   3.936 -0.2702 -0.1012  0.1925
10462W        W30742   2.314   9.171   2.736  0.2652  0.0859 -0.0110
10463W        W30743   5.053   2.117  11.846 -0.2787 -0.0767 -0.1356
10464W        W30744   3.378  16.491  12.248  0.2797 -0.3210  0.0991
10465W        W30745  14.862  15.893   3.376  0.1218  0.0689  0.4058
10466W        W30746  11.266   9.586   2.190  0.0966 -0.1240 -0.0239
10467W        W30747   1.642   9.366  12.618  0.0446 -0.1759 -0.0690
10468W        W30748  14.270  14.768   4.819  0.0336 -0.0711 -0.2890
10469W        W30749   1.662   5.628   0.874 -0.2897 -0.2862  0.2220
10470W        W30750   1.904  11.808  14.283  0.1317 -0.2522  0.0988
10471W        W30751   0.038  16.636   2.286  0.0772  0.1902  0.0339
10472W        W30752   7.889  18.084  12.754  0.1238  0.0585 -0.0838
10473W        W30753  13.780   0.346  11.290  0.2741  0.0613  0.1178
10474W        W30754  15.327  13.870   0.923  0.1481 -0.0141  0.1317
10475W        W30755   2.722  13.452   1.078 -0.0144  0.4929 -0.2843
10476W        W30756   5.716   2.000   3.945  0.1783 -0.0229  0.0847
10477W        W30757   0.648  12.238   0.354 -0.2339 -0.2952  0.0316
10478W        W30758  16.132  13.985   0.203 -0.0401 -0.1622 -0.2585
10479W        W30759   5.039  13.110  13.386 -0.2334  0.1454  0.3114
10480W        W30760  10.415   3.574   0.231 -0.3013  0.0883  0.1249
10481W        W30761   8.616   3.630  13.587  0.0293 -0.0887  0.1346
10482W        W30762  14.682   2.669  13.991 -0.2415  0.2922 -0.2748
10483W        W30763   3.523   9.616  11.331 -0.0862  0.0523  0.1024
10484W        W30764   7.706   3.689   3.900 -0.3121 -0.1638  0.2049
10485W        W30765  13.495  12.803  10.996 -0.1419 -0.1263 -0.1188
10486W        W30766   9.784   2.209  12.061  0.0909 -0.0202 -0.2796
10487W        W30767   9.231  10.901   3.420  0.0881 -0.2186 -0.0094
10488W        W30768   0.973  16.069  13.099  0.0987  0.0636 -0.0216
10489W        W30769  17.612   5.688   0.440 -0.0322 -0.0362 -0.0280
10490W        W30770  11.653  15.029   4.202 -0.0297 -0.1157  0.1514
10491W        W30771  13.247   7.348  14.119  0.0311  0.0812  0.0523
10492W        W30772   3.341  18.306  11.767 -0.3191 -0.0405  0.1545
10493W        W30773  17.677  11.010   3.425 -0.1592 -0.0884  0.0724
10494W        W30774  14.756   5.474   0.129 -0.0622 -0.3538 -0.0663
10495W        W30775  13.110   4.777   0.942  0.2492  0.3243 -0.0669
10496W        W30776  10.835  17.213   2.413 -0.2017  0.3924 -0.1971
10497W        W30777  12.000   3.271   0.628  0.0986  0.1876 -0.0023
10498W        W30778   3.199  12.846  11.165 -0.1537  0.0313  0.1386
10499W        W30779   7.878  17.535   0.126  0.2174  0.0159 -0.1119
10500W        W30780  16.065  13.131  11.835 -0.3936 -0.0499 -0.0047
10501W        W30781   2.077   4.711   0.082 -0.1971 -0.2131 -0.1461
10502W        W30782  15.118   5.343   0.474  0.0073 -0.1968 -0.1023
10503W        W30783   6.324   8.837  13.027 -0.1237  0.0319  0.2388
10504W        W30784   1.100  10.007  14.799  0.0514  0.0493 -0.1996
10505W        W30785   0.590   7.435   4.951  0.1160  0.0132  0.0304
10506W        W30786   9.183  16.384  14.925 -0.2181  0.0398  0.0798
10507W        W30787   8.352  13.299   0.999  0.2331  0.1109 -0.5120
10508W        W30788   7.374  13.767  12.060  0.0956  0.0438  0.0016
10509W        W30789  13.784   0.520  11.802  0.1724  0.1029 -0.0041
10510W        W30790  13.293  11.421   0.054  0.1440  0.2033  0.1807
10511W        W30791  15.198   7.202  13.652 -0.2733 -0.1409 -0.2511
10512W        W30792   0.579  12.687  14.808  0.2644 -0.0886 -0.0056
10513W        W30793  17.725  17.529  11.602 -0.4292 -0.0654  0.1625
10514W        W30794   7.023   4.799  13.504  0.0363  0.0599 -0.0140
10515W        W30795  18.005   5.133   2.399 -0.1446 -0.3224 -0.0725
10516W        W30796  17.956  17.382   1.699 -0.1163  0.2598  0.0633
10517W        W30797   0.545   5.607   2.461 -0.1284  0.0527  0.0507
10518W        W30798   3.771  17.877  12.118  0.2332 -0.2378 -0.1131
10519W        W30799   7.905   4.617  14.544  0.0860  0.1049 -0.2261
10520W        W30800  15.141  12.163   1.881  0.2164 -0.2002 -0.3943
10521W        W30801   0.204  12.969  14.892  0.0025  0.2800  0.2483
10522W        W30802   3.715  14.023   4.294  0.0021  0.3365 -0.0048
10523W        W30803  15.860   8.603  15.353  0.1417 -0.1658 -0.1288
10524W        W30804  14.566   8.155  14.138  0.0308 -0.2197  0.0277
10525W        W30805  11.139   9.423   1.133  0.2080  0.3424 -0.1194
10526W        W30806  18.432  14.257  10.714 -0.1325 -0.2300 -0.0609
10527W        W30807  17.020   9.382  15.277 -0.0625  0.0664 -0.0622
10528W        W30808   9.925  14.073   2.389  0.3075 -0.1330 -0.1617
10529W        W30809   4.799   3.503  11.163 -0.2482 -0.0753  0.1476
10530W        W30810   7.174   3.801  15.389 -0.1506  0.0089  0.3861
10531W        W30811  12.785  16.869   2.161 -0.0519  0.0366 -0.2009
10532W        W30812  16.336   5.466  11.976  0.2347  0.0484 -0.0213
10533W        W30813   9.518   9.758   4.868 -0.0919  0.4074 -0.1752
10534W        W30814  18.001  15.337  12.586 -0.1467 -0.2034  0.2393
10535W        W30815   7.070   8.417  14.729 -0.0028  0.1122  0.1283
10536W        W30816   5.847  14.489   3.494  0.1918  0.1232 -0.0810
10537W        W30817   7.449  17.698  14.241 -0.1505  0.2218 -0.1351
10538W        W30818  17.170   2.281   3.208 -0.1933 -0.0189 -0.0678
10539W        W30819  12.416   7.539   3.133  0.0611 -0.2112  0.1445
10540W        W30820  10.115  17.494  14.108 -0.0650 -0.0857 -0.3218
10541W        W30821   7.980   1.014  14.274 -0.0889  0.1267  0.0394
10542W        W30822   3.537  18.720   2.685 -0.0462  0.1731 -0.1766
10543W        W30823   7.983  14.992  11.822  0.4682  0.0241  0.0697
10544W        W30824   7.554  14.494   1.407  0.3265 -0.0334 -0.3542
10545W        W30825   6.686   1.606   2.701  0.0314 -0.1959  0.2495
10546W        W30826  14.589   6.560   3.089  0.0089 -0.1782  0.2260
10547W        W30827   4.221  18.071   1.027 -0.0944  0.1480  0.0033
10548W        W30828  11.359   8.289   0.570  0.0447  0.1385 -0.1546
10549W        W30829   8.699  13.784  11.655 -0.0223  0.3529  0.2198
10550W        W30830  10.962  10.738  12.798 -0.1980 -0.0825 -0.0795
10551W        W30831  10.014   5.557   4.545  0.4752  0.0527 -0.1680
10552W        W30832  10.534   1.219  13.822 -0.0330  0.4545 -0.1171
10553W        W30833   9.562   0.216  12.728 -0.0552 -0.3137  0.0084
10554W        W30834   8.161  10.807   1.305 -0.2195 -0.0208  0.4307
10555W        W30835   4.727  11.878   0.988 -0.3613 -0.0721 -0.2105
10556W        W30836  15.737  15.790  14.414 -0.0792  0.2327 -0.3704
10557W        W30837   9.967   2.563   3.232  0.0278 -0.1157  0.2323
10558W        W30838  12.296   4.798  13.386  0.1433  0.1457  0.0633
10559W        W30839  17.448  11.447  12.062 -0.2534 -0.0905  0.0656
10560W        W30840   4.322   5.625  11.663 -0.1519 -0.1264  0.4560
10561W        W30841  17.204  17.141   3.998 -0.0114 -0.0298  0.0762
10562W        W30842  17.324   5.328  11.302 -0.2253  0.2214 -0.0123
10563W        W30843  10.359   9.164   2.317  0.0501  0.0675  0.0064
10564W        W30844   5.756  17.251  11.990 -0.0871 -0.1269 -0.0941
10565W        W30845   3.215  16.668   1.080 -0.2074  0.2883  0.1497
10566W        W30846   5.226   0.751  11.410 -0.1196 -0.2403 -0.2365
10567W        W30847  16.172   3.777  11.296 -0.2624 -0.0532  0.0834
10568W        W30848   6.191   9.723   0.989 -0.3106 -0.0801 -0.0490
10569W        W30849   2.990  14.484  13.512 -0.1464  0.2281 -0.1846
10570W        W30850   5.613  11.588  15.251  0.2268 -0.0181 -0.0397
10571W        W30851   4.086  12.980   0.372 -0.3070  0.0275  0.2919
10572W        W30852   1.122   0.331   3.865 -0.3552  0.3069 -0.1542
10573W        W30853   9.068  11.905   2.242 -0.2282 -0.1172  0.0291
10574W        W30854  12.487   1.494  12.394  0.1536 -0.0810  0.4352
10575W        W30855   5.131  16.571   0.492 -0.2723 -0.0516 -0.0346
10576W        W30856  13.830   3.159  11.957 -0.0025  0.2060 -0.2213
10577W        W30857  17.810   0.061  15.039  0.0197 -0.0618  0.1189
10578W        W30858   2.921  18.473   3.105  0.0537  0.3897  0.1334
10579W        W30859   4.008  13.408  11.650 -0.0342 -0.1651  0.1352
10580W        W30860   0.213  10.155   2.906  0.1523 -0.2759  0.0706
10581W        W30861  13.053   4.962   0.465  0.1319  0.1298 -0.1096
10582W        W30862  16.337   7.095  13.515  0.1795  0.1705  0.1427
10583W        W30863  17.998   5.329  10.050  0.0479 -0.1686 -0.0905
10584W        W30864  14.655  12.098   4.087 -0.0471 -0.0445  0.1560
10585W        W30865   8.356  17.757   2.960  0.1204 -0.2757  0.1457
10586W        W30866   0.358   2.491   2.059 -0.1472 -0.1271  0.0931
10587W        W30867  17.706   6.213   0.531 -0.0368  0.0719  0.0760
10588W        W30868  15.427  15.467   0.473 -0.2620 -0.1241 -0.1721
10589W        W30869   7.112  12.488  12.721  0.1074 -0.0736 -0.1015
10590W        W30870   1.803   6.342   2.278 -0.0961 -0.1162 -0.1160
10591W        W30871  15.256  17.602   1.783  0.1334 -0.3008 -0.2280
10592W        W30872  15.810   2.896   3.563 -0.1109  0.0432 -0.0351
10593W        W30873  17.076   9.166   4.424  0.3937 -0.0699  0.0477
10594W        W30874   0.552  12.272   3.631  0.2757  0.1345  0.0173
10595W        W30875   2.751   2.242  11.290  0.4874  0.0349  0.3953
10596W        W30876   9.573   2.844  13.972  0.2020  0.1610  0.0733
10597W        W30877   2.320   6.190   2.050  0.0681 -0.1486 -0.0627
10598W        W30878   6.506  15.876   2.506 -0.1043  0.0376 -0.0240
10599W        W30879   4.763  14.746   0.765 -0.0348  0.1039 -0.1580
10600W        W30880  16.105   4.103   1.694 -0.1480  0.1432 -0.0358
10601W        W30881   5.143   7.480   2.004 -0.1861  0.0421  0.1077
10602W        W30882   5.167   3.803   4.260 -0.0541  0.1522  0.0374
10603W        W30883  17.923  11.771   3.834 -0.1589  0.0155  0.1092
10604W        W30884   8.647  14.482   2.963 -0.1573 -0.0257  0.2004
10605W        W30885  12.786  12.113   1.652  0.0950 -0.2687 -0.0004
10606W        W30886   8.271   6.929  15.181  0.0592  0.0700  0.2124
10607W        W30887  13.135   0.940   2.548 -0.2068 -0.0653  0.1733
10608W        W30888  16.984  13.538   1.941 -0.1332 -0.0731  0.1942
10609W        W30889   7.235   5.232  11.996 -0.2334  0.0674  0.2590
10610W        W30890   3.590   1.994   0.931 -0.1058 -0.1318  0.0282
10611W        W30891   2.473   2.009   3.575 -0.1815  0.0852  0.2812
10612W        W30892  13.839  14.831   2.451 -0.2032  0.1954  0.2155
10613W        W30893   0.961   9.291   2.741 -0.0184 -0.1521 -0.0014
10614W        W30894   4.033   8.891   3.369  0.0390 -0.0030  0.2725
10615W        W30895   9.914   0.771  12.746 -0.0794  0.1969 -0.0743
10616W        W30896  12.914   3.671  14.960 -0.3289 -0.1046 -0.0578
10617W        W30897   9.996  12.332   2.865  0.1439  0.0266  0.0176
10618W        W30898  17.316  18.560   3.814 -0.2870  0.1073  0.1108
10619W        W30899   9.946   6.989  12.460  0.1216 -0.0138  0.0195
10620W        W30900  17.718   2.260  15.126  0.2864 -0.0158 -0.1547
10621W        W30901   9.579  10.495  13.636 -0.1537 -0.2663  0.1746
10622W        W30902   5.710  13.458  12.825  0.0780 -0.3026 -0.4428
10623W        W30903   7.604  11.944   3.901 -0.0563 -0.0771  0.1299
10624W        W30904  15.061   7.896  11.436 -0.2654 -0.1055  0.1294
10625W        W30905   3.200   6.539  14.222 -0.1471 -0.2027 -0.2841
10626W        W30906   8.719   6.470   5.142 -0.3350  0.1110 -0.0621
10627W        W30907  15.554  10.546   0.832 -0.3875 -0.1216  0.0679
10628W        W30908   1.168   7.833  11.100  0.0059 -0.2331 -0.3652
10629W        W30909   2.093   9.478   2.352  0.0489  0.4264 -0.3259
10630W        W30910  10.780   6.952  12.684  0.1157  0.1625  0.2628
10631W        W30911   4.528  14.640   1.222 -0.1439 -0.0208  0.3144
10632W        W30912  13.692  13.763   1.724  0.2554  0.0558 -0.2587
10633W        W30913  14.345  18.175   3.819  0.0621  0.1648  0.1071
10634W        W30914   9.727  12.646   2.076 -0.1563 -0.1443  0.1035
10635W        W30915   8.272   7.527   0.545  0.0901 -0.0408  0.2249
10636W        W30916   7.089  10.560  12.046  0.0609  0.1101  0.0663
10637W        W30917  14.268  12.826  11.629 -0.1398  0.1973 -0.2834
10638W        W30918   9.853   1.962   0.116 -0.1071  0.0860 -0.0191
10639W        W30919  18.217  15.828   3.060 -0.1059 -0.1936  0.0255
10640W        W30920  13.808   2.201   2.821 -0.2501 -0.1051  0.0443
10641W        W30921  18.233   5.362  13.867 -0.4422 -0.0586 -0.1190
10642W        W30922   7.267  16.407  12.592  0.0388  0.0128 -0.1282
10643W        W30923   9.291  10.225  15.348 -0.3991  0.1593 -0.0710
10644W        W30924   4.226   9.487   4.088  0.1423 -0.1402 -0.1024
10645W        W30925   5.942   4.752   1.051  0.1815  0.1241 -0.0677
10646W        W30926   5.500   0.064  13.525  0.0903 -0.1714  0.0610
10647W        W30927  14.223   4.482  12.944 -0.1169 -0.0144  0.2505
10648W        W30928  13.164   2.488   0.810 -0.0652  0.0193 -0.2878
10649W        W30929   1.538  15.837   2.557  0.0075  0.1923 -0.1092
10650W        W30930   5.962  11.552  13.602 -0.1969  0.1358  0.1341
10651W        W30931  11.985  18.167  13.350  0.0396 -0.0372  0.2320
10652W        W30932   4.789  16.594  13.241  0.2076 -0.0848 -0.2604
10653W        W30933   0.586   2.991  12.961  0.0549 -0.0874  0.1261
10654W        W30934   0.959  10.112   1.391  0.0929  0.2032 -0.0709
10655W        W30935   6.180   8.511  12.404 -0.0363 -0.0318  0.0119
10656W        W30936   3.430   9.924   3.185  0.0784  0.1145 -0.3461
10657W        W30937   2.527  11.043   3.750  0.0358 -0.1162 -0.1136
10658W        W30938   4.935   8.615   3.853 -0.3012  0.2917  0.1988
10659W        W30939  16.532  18.111   2.158 -0.1763  0.1979 -0.0552
10660W        W30940  16.165   5.657   0.627  0.1250  0.1550 -0.0598
10661W        W30941   5.524  12.208  11.487 -0.1372  0.2044 -0.0853
10662W        W30942   2.962   7.271  14.801  0.0389  0.2511 -0.1170
10663W        W30943   5.843   5.334  11.754 -0.2113  0.1795  0.1326
10664W        W30944   6.954   6.488  13.034  0.2865 -0.1599 -0.3297
10665W        W30945  17.945  18.247  12.202 -0.3264 -0.0041 -0.1040
10666W        W30946  15.372   0.135   3.541 -0.1628 -0.0678 -0.1159
10667W        W30947   2.222   1.421   1.173  0.0630  0.4360  0.1326
10668W        W30948  11.137  18.652  13.490  0.1371 -0.3073 -0.0962
10669W        W30949  14.520  11.135   1.317 -0.1953 -0.2359 -0.0529
10670W        W30950  17.917  16.206   3.466 -0.0347  0.0551  0.0397
10671W        W30951  15.447   5.770   2.627 -0.2508  0.2774  0.0505
10672W        W30952  15.634  15.441   0.022 -0.3275  0.0393 -0.1762
10673W        W30953   5.501  15.219  11.585  0.1664  0.0927  0.5865
10674W        W30954  17.080   2.500  11.687  0.2905  0.1365 -0.1037
10675W        W30955   7.189   1.665   2.608  0.0262  0.1465 -0.0219
10676W        W30956   0.097   0.445  14.851  0.0177 -0.0391 -0.3746
10677W        W30957  11.377   0.511   4.020  0.4307 -0.1286 -0.2114
10678W        W30958  17.511  17.731  12.477  0.0491  0.1421 -0.0770
10679W        W30959   7.919  10.410   5.323 -0.0515 -0.0055  0.2131
10680W        W30960  17.377  12.495  14.579  0.0289  0.0844  0.0916
10681W        W30961   8.711  10.668   3.419  0.2053 -0.0831  0.2687
10682W        W30962  13.969  13.115   2.555  0.0170 -0.3352 -0.0209
10683W        W30963   1.735   3.100   4.099  0.0852 -0.5510 -0.2153
10684W        W30964   3.476   7.771   1.469 -0.4212 -0.0908  0.0913
10685W        W30965  13.659  11.714  14.220  0.3017  0.1507  0.0638
10686W        W30966  12.422   5.201   3.796 -0.2317  0.2255 -0.2858
10687W        W30967  15.030   0.994   1.264  0.0658  0.0190  0.1415
10688W        W30968  11.629  10.717   3.659  0.1138  0.0409  0.1905
10689W        W30969  12.772   8.618   1.557 -0.1271  0.0995 -0.3148
10690W        W30970   4.070  16.593  13.817 -0.2532 -0.0570 -0.2753
10691W        W30971  13.688   3.215  12.995 -0.2535 -0.0941 -0.0938
10692W        W30972   9.373  13.422   3.698  0.1789  0.1487  0.2072
10693W        W30973   9.425   2.855  12.626  0.1560 -0.0127 -0.1569
10694W        W30974  12.307  10.282   2.260 -0.0914  0.3263 -0.3093
10695W        W30975  12.836   0.067  14.816 -0.0078 -0.3347  0.0131
10696W        W30976  16.150   3.467   0.969  0.0273 -0.0509  0.2506
10697W        W30977   2.198   5.768  12.678 -0.0179 -0.1993  0.0393
10698W        W30978  11.633  12.947   0.993 -0.1052 -0.1111 -0.4993
10699W        W30979   1.400   2.286   1.899 -0.0307 -0.0220 -0.1695
10700W        W30980  14.212  16.035   2.071 -0.0501  0.0856 -0.0940
10701W        W30981  14.791  14.494   2.408  0.2822  0.1567  0.1113
10702W        W30982   8.333  15.112  13.204  0.0567 -0.3904 -0.1143
10703W        W30983   5.567   8.192   3.462  0.0182 -0.3747 -0.2549
10704W        W30984   9.790   1.644  11.714  0.0644 -0.0218 -0.0239
10705W        W30985   8.210   4.415   0.866 -0.0037  0.1069  0.1317
10706W        W30986  11.600  16.114   1.075 -0.0688  0.2802 -0.2216
10707W        W30987   2.697  18.612  14.645  0.2729 -0.1420 -0.0706
10708W        W30988  12.870   0.892  11.645 -0.0672  0.1211  0.2174
10709W        W30989   9.234  11.529  15.311  0.1440  0.3550 -0.0974
10710W        W30990  16.689   7.611   1.951  0.0539  0.0338 -0.3488
10711W        W30991   5.509  15.669   2.707  0.0898  0.1797 -0.0030
10712W        W30992   5.223   4.320  13.286  0.2668  0.0362  0.3503
10713W        W30993  12.108   0.173  11.689 -0.1469 -0.2327 -0.3852
10714W        W30994  15.916  16.818  14.431  0.1772 -0.1103  0.1372
10715W        W30995  18.599   7.595   3.114 -0.1996  0.0187  0.1323
10716W        W30996  15.076   9.543  13.650 -0.1819  0.1740  0.1086
10717W        W30997   8.736   2.232  12.906 -0.0131 -0.0618 -0.1610
10718W        W30998   2.251   2.081  14.554 -0.1455 -0.0661  0.0605
10719W        W30999   0.755   9.644  11.623 -0.2464  0.1498  0.0333
10720W        W31000  17.564  11.998  13.222 -0.1583 -0.0254 -0.2631
10721W        W31001   4.452   8.500   4.149  0.0252  0.1923  0.1076
10722W        W31002  16.934   2.095  14.425 -0.0876  0.1158  0.0321
10723W        W31003  17.811   3.515   0.902  0.0847 -0.1921  0.0905
10724W        W31004  15.731   6.010  14.203  0.5350  0.0490  0.5835
10725W        W31005   9.062   2.002   3.120 -0.1053 -0.2557  0.2590
10726W        W31006  16.140   1.026   4.348 -0.1927  0.2629 -0.0577
10727W        W31007  18.064  14.400   0.840 -0.0877  0.1036 -0.0867
10728W        W31008   9.021  16.620   3.813  0.0118  0.1323  0.0356
10729W        W31009   3.585  16.429  14.629 -0.1162  0.1119 -0.1357
10730W        W31010  16.836   0.032   3.237  0.2640 -0.0046 -0.1686
10731W        W31011  12.087   1.223   0.182  0.4591 -0.0756 -0.2384
10732W        W31012  18.530   9.300  14.240  0.0259 -0.0794 -0.0605
10733W        W31013   5.497   6.114   2.168 -0.0924 -0.1773  0.1120
10734W        W31014   6.951  14.455  11.718 -0.0704 -0.0120  0.0676
10735W        W31015  16.367  15.924  12.183  0.0159  0.0359  0.2484
10736W        W31016   9.026  16.061   1.725  0.0456 -0.0534 -0.2322
10737W        W31017  14.453   3.614  10.895  0.0487  0.0122  0.2015
10738W        W31018  14.430   4.573  14.948 -0.0515  0.0183  0.0589
10739W        W31019  13.056  12.850  11.191 -0.0698  0.0167 -0.0903
10740W        W31020  10.479   8.701   3.225  0.0237  0.1448 -0.1528
10741W        W31021   3.064  18.469  11.331  0.2661 -0.4166 -0.1453
10742W        W31022   4.807   9.868   0.303 -0.2355  0.0104 -0.0400
10743W        W31023  17.245   1.879  11.697  0.0044  0.0553 -0.1185
10744W        W31024  13.368   9.127  12.712 -0.1407 -0.0214  0.1047
10745W        W31025  11.634  18.716   0.732  0.1098 -0.0792 -0.1224
10746W        W31026   3.650   6.123   4.410 -0.1889 -0.2237 -0.1492
10747W        W31027   5.752  15.710   3.901  0.0458 -0.0283 -0.0698
10748W        W31028  12.735  15.277  10.831  0.1541 -0.0861 -0.1047
10749W        W31029   8.041  12.118   0.607  0.0676  0.1606  0.1002
10750W        W31030   3.696   1.268   3.584  0.3978 -0.1659 -0.0473
10751W        W31031  12.285  16.070   2.123  0.0604  0.4918  0.0470
10752W        W31032   4.006  15.894  11.922 -0.3138  0.0768  0.2304
10753W        W31033   5.893  18.080   5.016 -0.1312 -0.2453 -0.0230
10754W        W31034  12.195   7.030  11.805  0.3586  0.1782 -0.0053
10755W        W31035  11.586  17.609   3.466 -0.1347 -0.1933 -0.1635
10756W        W31036  16.772  18.563  13.293  0.2939 -0.2874  0.0304
10757W        W31037  16.845   2.649  10.889 -0.2239  0.0183 -0.3344
10758W        W31038   8.156   6.264   2.456 -0.1937  0.0397 -0.0993
10759W        W31039  17.286   2.365  14.293  0.0760 -0.0902  0.0291
10760W        W31040   3.307  12.951   1.607  0.2201  0.0373 -0.0795
10761W        W31041  16.117  18.051   2.518 -0.0358 -0.0521 -0.0406
10762W        W31042  14.282  18.739  12.165 -0.1603 -0.0079  0.0711
10763W        W31043   4.635  16.041  15.369 -0.3885  0.0118  0.1505
10764W        W31044   0.986  15.097  11.107 -0.1972  0.0420  0.2227
10765W        W31045   4.720   1.750  12.898  0.0347  0.0910 -0.0079
10766W        W31046  13.726   6.778   1.687 -0.0818 -0.4655  0.0353
10767W        W31047   3.468  14.183   2.110  0.0580  0.0889  0.0988
10768W        W31048   8.226  12.808  14.131  0.3046 -0.1706 -0.1820
10769W        W31049  11.212   4.546  12.185 -0.2297 -0.2013  0.3501
10770W        W31050  12.541   4.572  15.358 -0.5051  0.0621 -0.2705
10771W        W31051  15.058  15.455   3.450  0.0410 -0.2459  0.3184
10772W        W31052  12.304   4.609   1.582 -0.1671 -0.1762  0.0319
10773W        W31053   0.863  16.309  11.481  0.1007  0.0147  0.0869
10774W        W31054   1.258   4.697  14.531 -0.1323  0.0479  0.2927
10775W        W31055   2.110  17.806   4.212  0.0135  0.0847  0.2437
10776W        W31056  15.433  14.885   3.906 -0.0619 -0.0996 -0.1460
10777W        W31057   1.322   5.574  12.144 -0.0118  0.3130  0.3860
10778W        W31058   5.630  15.863   1.528 -0.3328  0.1945 -0.2361
10779W        W31059   1.235   5.524  13.043 -0.1477 -0.1222  0.0103
10780W        W31060  15.799   3.400   1.327  0.4292 -0.1009 -0.1068
10781W        W31061   6.306   1.367  14.972 -0.2932 -0.0691  0.2482
10782W        W31062  13.007   7.969   3.805 -0.0569 -0.1361 -0.1994
10783W        W31063   0.426   5.662   0.019 -0.4170  0.0445  0.0558
10784W        W31064   7.598   8.248   2.295  0.2876  0.4313  0.2525
10785W        W31065   1.271  12.869   1.996  0.2511  0.3277 -0.0962
10786W        W31066   6.606   5.721  13.228  0.0157 -0.1471  0.1730
10787W        W31067  11.547  11.252   0.931  0.1634 -0.0366 -0.0740
10788W        W31068  18.699  18.263   2.477  0.2318 -0.0888  0.0324
10789W        W31069   3.246   1.086  13.753  0.0212 -0.1672  0.0420
10790W        W31070  14.892   7.956   2.370 -0.2766 -0.3397  0.1589
10791W        W31071   3.147  12.093  13.658  0.1873 -0.1215 -0.2568
10792W        W31072  17.308   1.411  13.317 -0.2248  0.0862 -0.1603
10793W        W31073   8.632  15.392   2.964 -0.0035 -0.3015 -0.1519
10794W        W31074  10.698  14.056  12.673  0.1226 -0.0381 -0.1049
10795W        W31075   7.851  15.735  13.559  0.2652  0.1288  0.0925
10796W        W31076  14.489  10.421  11.734 -0.1334 -0.0705  0.2065
10797W        W31077   3.504   1.016   3.969  0.4483  0.0197 -0.4756
10798W        W31078  10.940   9.709   2.576 -0.1950  0.1578 -0.0443
10799W        W31079  10.191   0.437  12.017  0.2462  0.1048  0.1608
10800W        W31080   8.941   0.731  14.241  0.0013 -0.0536 -0.1961
10801W        W31081  17.334  14.093   1.271  0.2157 -0.0053 -0.0825
10802W        W31082   3.213  13.431  13.195 -0.1494 -0.1309 -0.0471
10803W        W31083   7.973   3.706  14.202  0.0119  0.3157  0.2099
10804W        W31084   3.235  14.922  11.417 -0.0750  0.0758 -0.2431
10805W        W31085   3.443  15.667  13.783 -0.0149  0.0651  0.2276
10806W        W31086  13.021  10.591  11.916  0.0235 -0.3436  0.1140
10807W        W31087   2.614  12.564   0.814  0.1016 -0.1293  0.1382
10808W        W31088   2.621  10.832  14.614 -0.1502  0.0951  0.4673
10809W        W31089  12.929  12.911  14.003 -0.0547  0.1585 -0.2564
10810W        W31090   2.982  15.563   0.040  0.0470 -0.1996 -0.1865
10811W        W31091   8.472   3.697   2.877  0.0001 -0.2700 -0.0545
10812W        W31092   2.327  17.164   2.791 -0.0548 -0.2871  0.0730
10813W        W31093   0.304  11.420  13.418  0.0430 -0.2072 -0.0840
10814W        W31094  14.972  13.825  13.892 -0.1727 -0.1415 -0.4028
10815W        W31095  18.264  13.358   5.496 -0.3693  0.3912 -0.1747
10816W        W31096  17.421   2.491   0.729  0.0531 -0.0935 -0.1764
10817W        W31097   6.807  14.779   1.990  0.0075 -0.1167 -0.1315
10818W        W31098  17.148   6.365   2.360  0.1000 -0.0077 -0.2522
10819W        W31099   1.050  16.799   0.718  0.1425 -0.0211  0.0471
10820W        W31100  12.716  12.271  13.372  0.0120 -0.3872  0.2694
10821W        W31101   3.913  17.395  14.426  0.0161 -0.2566 -0.2586
10822W        W31102   6.321   4.439   0.812  0.0487  0.0415 -0.0472
10823W        W31103   3.375   8.912   2.532 -0.1781  0.0428  0.1408
10824W        W31104  14.294   3.398   2.581  0.0835  0.3507 -0.0271
10825W        W31105   9.319  11.489   0.655 -0.0021  0.3428  0.1389
10826W        W31106  13.821   1.798   0.729 -0.2622  0.1306  0.1672
10827W        W31107   2.403  11.186  14.866 -0.1440  0.3433  0.0803
10828W        W31108  14.968   4.388  14.909 -0.2728 -0.4834 -0.0608
10829W        W31109  15.829   0.195   3.215  0.0909 -0.1053  0.0298
10830W        W31110   7.661  18.574   2.899 -0.0454  0.1347 -0.1226
10831W        W31111   9.731  17.168  14.013 -0.1717  0.0819  0.1360
10832W        W31112   7.980   6.672   0.994  0.2451  0.0850  0.1645
10833W        W31113  13.241  10.156  14.553  0.0911  0.1551  0.0449
10834W        W31114   8.539  12.225   0.552 -0.1030  0.2341 -0.0291
10835W        W31115   2.040  15.586   0.280 -0.0045 -0.2395  0.3109
10836W        W31116  15.411  15.422   3.846 -0.1749 -0.2025 -0.1102
10837W        W31117  14.816   3.046  12.215  0.2073 -0.0107 -0.3860
10838W        W31118  15.504  14.733  12.339 -0.1629  0.1836  0.0927
10839W        W31119   9.231  13.437  14.491  0.2801 -0.2928 -0.1223
10840W        W31120  17.775  16.552  13.596  0.2675 -0.1874 -0.0153
10841W        W31121   1.185  15.481  11.371  0.1314  0.1371  0.0433
10842W        W31122   2.048   2.265   3.505  0.1359 -0.1394  0.3478
10843W        W31123  16.093  14.833   4.289 -0.0043 -0.0232 -0.0420
10844W        W31124   0.106  13.390  12.009  0.0283  0.0699 -0.1233
10845W        W31125   5.868   1.352  11.297  0.1362  0.1134  0.1159
10846W        W31126   0.731  10.592   3.973  0.1482  0.2906 -0.0560
10847W        W31127  12.730   0.676  14.738  0.1257  0.0800  0.1476
10848W        W31128  17.503  14.831  14.627  0.1399  0.1978 -0.2251
10849W        W31129   0.835   1.620  11.215 -0.1600 -0.1096 -0.1752
10850W        W31130   2.541  14.837  13.373 -0.0750  0.2480 -0.1338
10851W        W31131  13.346   1.887   1.945 -0.1564 -0.1143  0.0531
10852W        W31132   1.484   7.150   0.373  0.0090  0.0104 -0.2800
10853W        W31133  15.166   5.679   2.164 -0.0384  0.2138  0.0694
10854W        W31134  12.345   8.672   0.530 -0.0712 -0.3984 -0.1495
10855W        W31135  11.806   2.624   3.676 -0.1437  0.0108 -0.0148
10856W        W31136  16.135   7.173  11.614 -0.2352 -0.1341  0.0599
10857W        W31137  14.632  17.593  14.404 -0.1415  0.0413  0.0113
10858W        W31138  10.917  12.883  14.759  0.0397  0.1304  0.1621
10859W        W31139  15.902   2.356   3.214  0.1030 -0.0616 -0.0586
10860W        W31140   1.962   8.586  11.529 -0.2505 -0.1738  0.3448
10861W        W31141  11.420  14.652   1.828  0.3194  0.1062 -0.1546
10862W        W31142   8.823  12.324  11.796 -0.2433 -0.2087  0.1666
10863W        W31143   0.674  13.284  14.080  0.0138  0.0981 -0.2798
10864W        W31144   2.138   7.957  10.842  0.0741 -0.2552  0.0117
10865W        W31145  14.235   2.807  14.126 -0.1849  0.1514 -0.0349
10866W        W31146   1.264   5.617  14.187 -0.0483 -0.1521 -0.0975
10867W        W31147   8.634  14.161   1.993 -0.1138  0.3395  0.0937
10868W        W31148   8.964  18.595  12.209 -0.0447  0.0262 -0.2204
10869W        W31149   6.020  11.642  14.652 -0.1499  0.3606  0.0135
10870W        W31150   2.222   7.012   3.760 -0.2258 -0.0666  0.3523
10871W        W31151  14.581  18.353   3.370 -0.1687  0.0916  0.1266
10872W        W31152   3.984  18.215   1.512 -0.0782 -0.1897  0.2154
10873W        W31153   4.475   9.610  11.137 -0.0445  0.0513 -0.0980
10874W        W31154   2.114  17.579   3.591 -0.0878 -0.0702 -0.1860
10875W        W31155   6.051  10.968  12.302  0.0082  0.4849 -0.0858
10876W        W31156  17.559   2.536  13.876  0.3507 -0.0119 -0.2364
10877W        W31157   7.482   6.025   3.360  0.0979  0.0030  0.1029
10878W        W31158  18.196   3.279   2.882 -0.1828 -0.1790  0.2441
10879W        W31159  13.253  17.591   3.538  0.0686 -0.0611 -0.3576
10880W        W31160   3.054  10.891  11.869 -0.2135  0.3202  0.2469
10881W        W31161   1.811  16.843   1.599 -0.3449  0.1035  0.0702
10882W        W31162   0.954  13.545   5.369  0.0684 -0.0555  0.0726
10883W        W31163   2.788  18.256   2.141 -0.1339  0.0859 -0.0430
10884W        W31164  17.086  15.567  14.333 -0.1113  0.0142 -0.0766
10885W        W31165   9.382  14.113  13.992  0.3562 -0.0731  0.0427
10886W        W31166   3.291   4.258  11.322 -0.3643  0.1463  0.2000
10887W        W31167   8.890   9.003   4.013  0.0393  0.0819 -0.1592
10888W        W31168   9.342   1.844  14.568 -0.1870  0.1113  0.0605
10889W        W31169  14.384  13.379   3.826  0.0302  0.1089 -0.2484
10890W        W31170  12.830   2.528   1.974 -0.0009 -0.0250  0.0910
10891W        W31171  13.919   9.775  15.353 -0.1980 -0.1824  0.0241
10892W        W31172   7.287  11.767   1.839 -0.1225  0.0613  0.2188
10893W        W31173   0.594  13.123  12.054  0.0340 -0.0021  0.0345
10894W        W31174   7.091  18.497  13.821  0.3666 -0.2887  0.0879
10895W        W31175  10.659   5.128  14.514  0.0224  0.1479  0.1663
10896W        W31176   1.129   4.859  13.792 -0.1344 -0.1519 -0.0562
10897W        W31177   2.628   8.605   3.762  0.1382  0.4315  0.1470
10898W        W31178  17.212  12.239   0.644  0.2754  0.1532  0.1189
10899W        W31179   7.983  12.918   2.678 -0.3794 -0.2488  0.2443
10900W        W31180  10.230   2.117   3.272 -0.1971  0.0774 -0.1688
10901W        W31181   4.633  14.078  11.825  0.0308 -0.0297  0.1819
10902W        W31182  16.850  13.558  13.813 -0.1466 -0.1956 -0.0485
10903W        W31183   6.709  12.641  11.718 -0.0741 -0.1293  0.1039
10904W        W31184  10.963   5.044  13.929 -0.1596  0.1895 -0.0303
10905W        W31185   4.047   7.457  11.150 -0.3043 -0.1741  0.3525
10906W        W31186  10.596  10.042  11.599  0.3037 -0.1277  0.2459
10907W        W31187  14.184   8.667   4.377  0.2121 -0.1794 -0.0319
10908W        W31188  16.544   0.286   4.019  0.0413 -0.0435 -0.0031
10909W        W31189  17.089  17.520  12.719  0.1752  0.0665 -0.1380
10910W        W31190  14.069   1.852  12.134  0.3041 -0.0212 -0.5050
10911W        W31191   5.803  15.443  12.900  0.4179 -0.0081  0.0906
10912W        W31192  18.097   3.349   3.442  0.3383  0.0811  0.2913
10913W        W31193   3.137  18.262   1.707 -0.1249 -0.0271 -0.2031
10914W        W31194   4.101   9.985  13.630 -0.0875 -0.1255 -0.1819
10915W        W31195  15.127   9.026  13.499  0.1345 -0.3087 -0.0261
10916W        W31196   9.024  17.757   1.630  0.1084 -0.0982  0.1773
10917W        W31197  12.170  11.796  15.087 -0.1645  0.0065 -0.2764
10918W        W31198   7.885  18.387   1.971  0.0380 -0.3168 -0.2086
10919W        W31199  15.453  10.895  12.160  0.1605  0.2989  0.0610
10920W        W31200  13.473  12.606   5.634  0.2148  0.0820  0.0821
10921W        W31201  12.537  10.714  11.725  0.1908 -0.0924  0.1783
10922W        W31202  16.629  15.916  12.656 -0.1601  0.0671  0.0736
10923W        W31203   8.853  17.414  12.567  0.1674 -0.0829 -0.0268
10924W        W31204   5.021  10.271  15.136  0.2247 -0.2093  0.1571
10925W        W31205  10.443   2.175   1.423  0.0700 -0.0353 -0.0490
10926W        W31206   7.381  13.613  13.610 -0.2756  0.0537 -0.0994
10927W        W31207   9.933   3.801  12.645  0.2814  0.0734 -0.2230
10928W        W31208   3.048   6.148   4.372  0.0540 -0.0306  0.4047
10929W        W31209   0.523  14.145   2.607 -0.1708  0.1003 -0.3102
10930W        W31210  17.350  18.169   0.598 -0.0175 -0.1948 -0.1712
10931W        W31211  11.170  11.174   3.178 -0.3272 -0.1056 -0.0441
10932W        W31212   0.757   7.221  10.390 -0.0124  0.0641  0.0052
10933W        W31213  11.546   5.278   0.584 -0.1082 -0.2000  0.0607
10934W        W31214   5.003   1.897  10.816 -0.5422  0.0606  0.0386
10935W        W31215   7.959  18.599  12.993  0.1886 -0.1272  0.0191
10936W        W31216   5.858  11.701   5.368  0.1798  0.2210 -0.0340
10937W        W31217   6.143  11.051   2.938  0.0964  0.1933 -0.0242
10938W        W31218   1.335  15.051   1.878 -0.0861  0.3392  0.1931
10939W        W31219  11.344   2.384  13.777  0.1416  0.2527 -0.2159
10940W        W31220  18.145  15.846   0.646 -0.1562 -0.1586  0.4147
10941W        W31221  11.155  18.038  13.649  0.0735  0.2386  0.0482
10942W        W31222  18.088   5.853  15.073  0.1992 -0.0616  0.0846
10943W        W31223  14.176   7.336   2.436 -0.0247  0.1371 -0.0338
10944W        W31224   3.780   8.574   1.877  0.1356  0.0024  0.1661
10945W        W31225   8.627   3.087   2.174 -0.1689  0.0527 -0.0739
10946W        W31226   3.216   9.591  10.945  0.0132 -0.0009 -0.0199
10947W        W31227   6.310  10.446  12.395  0.3229  0.1343  0.0474
10948W        W31228   8.578  12.216   2.810  0.1516 -0.0664 -0.0167
10949W        W31229  16.117   6.446   4.584 -0.0151 -0.0013  0.3793
10950W        W31230   7.386  11.611   2.519  0.0566  0.1159 -0.1048
10951W        W31231   6.215   9.045  11.106  0.0309  0.0121  0.2696
10952W        W31232   7.425  11.247   1.071  0.1044  0.1532  0.0229
10953W        W31233   1.813  13.147   2.683  0.3207  0.0055  0.0831
10954W        W31234   1.696   3.082  10.760 -0.0525 -0.2701 -0.0621
10955W        W31235  18.722  12.066  13.261  0.1470 -0.1360 -0.2942
10956W        W31236  18.154   2.405   3.852 -0.0674 -0.1971 -0.0967
10957W        W31237  11.338   1.749   2.599 -0.2266  0.1461  0.1944
10958W        W31238   2.955  14.195  12.220  0.1691 -0.2049 -0.2047
10959W        W31239  17.155   9.267  12.815 -0.0208  0.0299  0.2452
10960W        W31240   0.825  17.753   3.524 -0.2956  0.0686 -0.2343
10961W        W31241   8.705   6.920   0.224  0.0137  0.1898 -0.0332
10962W        W31242  15.861   4.045  12.433  0.0161 -0.1677  0.0122
10963W        W31243   1.906   6.689  11.449 -0.2235  0.0457 -0.1829
10964W        W31244  17.630   7.290   3.314 -0.0444  0.1066 -0.2012
10965W        W31245  12.464   7.675  14.122  0.2441 -0.0877 -0.0716
10966W        W31246   4.745   0.317  14.022  0.0784 -0.4635 -0.0259
10967W        W31247   1.613   1.473  14.233 -0.2880 -0.1134  0.2964
10968W        W31248  18.718   1.755   0.567  0.3307 -0.0897  0.2787
10969W        W31249   8.420  10.170   3.700 -0.1034  0.0938  0.1316
10970W        W31250  15.265   9.657   0.471 -0.4568 -0.2077  0.2733
10971W        W31251  17.436  11.780   0.657  0.1032 -0.0421  0.5387
10972W        W31252   4.258  15.490  12.046 -0.0214  0.1780  0.1825
10973W        W31253   6.843   0.775   2.563  0.0088 -0.4384 -0.0325
10974W        W31254   6.556   2.217   3.913 -0.0313  0.0426 -0.2087
10975W        W31255  12.180  13.238  11.584 -0.0960  0.2362  0.0597
10976W        W31256   8.428  13.548   2.184  0.2713 -0.0060  0.0157
10977W        W31257  13.415   1.720   1.464 -0.0559 -0.0422 -0.0854
10978W        W31258  12.538   6.341  10.716 -0.2142 -0.3966 -0.0429
10979W        W31259  16.150  11.765  14.972 -0.1067  0.1498 -0.3062
10980W        W31260   9.320  11.981   1.777  0.0891 -0.0885  0.1562
10981W        W31261   9.083  14.252  14.381  0.2058  0.2043 -0.1522
10982W        W31262  13.766   2.097  13.936  0.0398 -0.0772 -0.0801
10983W        W31263   8.505   6.875  12.941  0.3165 -0.2686  0.3381
10984W        W31264  12.057  17.546   0.054 -0.1932  0.0485  0.4608
10985W        W31265   6.833  12.910   0.902 -0.0108  0.0280  0.1693
10986W        W31266  10.988   3.734  15.341 -0.2018  0.0398  0.1687
10987W        W31267  10.926  10.131  13.272 -0.4148 -0.2863 -0.1546
10988W        W31268   5.117  12.213  13.270  0.2650 -0.0740  0.2838
10989W        W31269  17.079   6.908   5.083  0.1981  0.0933  0.1703
10990W        W31270  14.786   6.828   2.176  0.1969  0.1681  0.0206
10991W        W31271   0.997  16.515   2.672  0.1872 -0.2929 -0.2398
10992W        W31272  17.886  18.231   1.274  0.1461  0.2996 -0.1780
10993W        W31273  12.196   0.532   2.456  0.0385  0.0583  0.0395
10994W        W31274   6.032   0.797  11.931 -0.5520 -0.0427 -0.0072
10995W        W31275   6.805   3.968   1.257  0.1882  0.2267 -0.2308
10996W        W31276  17.313   5.008   4.595 -0.0164 -0.1271 -0.0487
10997W        W31277   2.184  18.507   3.100  0.0411 -0.2632  0.0720
10998W        W31278  15.145  16.208  11.603 -0.0207 -0.0357 -0.0024
10999W        W31279   3.640   9.665   3.593 -0.1441  0.3372  0.0197
11000W        W31280  11.559   2.972   2.101 -0.0442  0.1016  0.1859
11001W        W31281  11.291  16.506  13.295  0.2344  0.1092 -0.3089
11002W        W31282   2.316  13.327   0.216  0.0403  0.2258  0.0621
11003W        W31283   9.531  17.709  11.237  0.0352  0.2583 -0.2284
11004W        W31284   2.556  15.343   0.321  0.5452  0.1800  0.0053
11005W        W31285  13.489   9.546   2.149  0.0502  0.1257 -0.0160
11006W        W31286  10.820  13.149   4.566 -0.1147 -0.1462 -0.1632
11007W        W31287  14.875   7.590  13.570  0.0978 -0.0197  0.0406
11008W        W31288   2.149  15.401   2.121 -0.0263  0.1018 -0.1270
11009W        W31289  16.657  11.306   1.494  0.0625 -0.1694  0.1165
11010W        W31290   7.935   5.523  12.835  0.3875 -0.1994  0.1500
11011W        W31291   7.187   7.418  11.806 -0.0189 -0.1102  0.1011
11012W        W31292  11.764   1.742   0.068 -0.0047  0.2597 -0.1426
11013W        W31293  13.215   5.947   2.336  0.0706  0.0784  0.0037
11014W        W31294  18.465   9.103   4.191 -0.2145 -0.1662  0.2435
11015W        W31295   7.404   8.787   3.286  0.0305  0.0424 -0.2084
11016W        W31296   7.947  17.303   4.058  0.1376  0.1787 -0.1886
11017W        W31297   4.063  10.963   5.569 -0.0703  0.1030 -0.0385
11018W        W31298  17.637   1.680   4.014 -0.4487  0.0585  0.0133
11019W        W31299   6.809   7.137   0.558  0.1092 -0.1436  0.0018
11020W        W31300   9.350  13.508   1.886  0.1997 -0.1072 -0.1682
11021W        W31301  14.154   9.128  15.054 -0.0084 -0.2588  0.1464
11022W        W31302  14.620  14.506   1.665  0.1876  0.0296 -0.2352
11023W        W31303   2.706   6.602  14.517  0.2786  0.2224 -0.1550
11024W        W31304   1.901   3.526   1.242 -0.0315 -0.0972 -0.3376
11025W        W31305   5.901   8.074  12.931  0.1400 -0.1892  0.3387
11026W        W31306  12.959   0.267  11.397 -0.0891  0.3683 -0.0768
11027W        W31307   6.885   6.791  14.383 -0.1357 -0.0548 -0.2443
11028W        W31308   4.215   1.045  11.883  0.3474 -0.0625 -0.1329
11029W        W31309  17.333  12.318   4.224  0.0409 -0.0429  0.2337
11030W        W31310  16.752  14.752  12.316 -0.2273  0.1815 -0.2781
11031W        W31311   3.484   9.841  15.301 -0.2644  0.3361  0.0662
11032W        W31312  12.180   8.305   3.603 -0.1238 -0.0101 -0.0503
11033W        W31313  15.669   8.536   4.125 -0.1029  0.0942  0.1611
11034W        W31314   0.047  17.952   3.223  0.1819 -0.0083  0.0634
11035W        W31315  11.016  13.908  13.081 -0.1724  0.0825  0.3352
11036W        W31316  10.201  18.406   5.067  0.2483 -0.1405 -0.1019
11037W        W31317  14.647   5.783  11.853 -0.2038  0.1424 -0.3041
11038W        W31318  11.600   3.176  13.143 -0.3635  0.2621  0.0942
11039W        W31319  12.363   7.158  15.032 -0.0623 -0.2653  0.2647
11040W        W31320  10.862  11.277  13.922  0.0256  0.0238  0.2132
11041W        W31321   4.257  17.746  11.269 -0.2724 -0.2835 -0.1999
11042W        W31322  11.690  17.792  13.479  0.1680  0.2238 -0.2812
11043W        W31323  17.883  14.824  13.873  0.1135 -0.2125 -0.1016
11044W        W31324  12.111   6.891  14.695  0.1107  0.0660  0.1964
11045W        W31325  13.307  13.739  11.501 -0.0327  0.0861  0.0215
11046W        W31326   0.761   7.612   2.187  0.0424 -0.1239 -0.2501
11047W        W31327  11.366   3.598   0.326  0.0428 -0.1498  0.1726
11048W        W31328   9.194  16.079  14.505 -0.1838 -0.3380 -0.0073
11049W        W31329   8.234   0.096  14.015 -0.2269 -0.1904  0.1481
11050W        W31330   3.609   7.092   3.947  0.0528 -0.1671  0.0413
11051W        W31331  14.968   4.147  11.871  0.4571  0.0260  0.1720
11052W        W31332   5.302   5.525  12.884 -0.0403  0.1708  0.3551
11053W        W31333   8.657   7.647   0.819 -0.0627 -0.2720  0.2018
11054W        W31334   4.703   7.953   3.991  0.0353  0.3626  0.3968
11055W        W31335   4.173  13.025   1.609 -0.0922  0.0108  0.0396
11056W        W31336  15.365   5.534  14.637  0.1803  0.1456  0.3559
11057W        W31337  12.168   9.072   2.759  0.1464 -0.1352 -0.3116
11058W        W31338   0.102   5.952   2.459 -0.1730  0.1356 -0.1125
11059W        W31339   9.693   5.723   2.974 -0.0206  0.1975  0.0912
11060W        W31340   6.737  12.577   3.043  0.1837 -0.2192 -0.0119
11061W        W31341  15.641  15.448   1.906  0.2998 -0.1777  0.0302
11062W        W31342   8.408   0.349   4.099  0.1223 -0.0744  0.0419
11063W        W31343  14.517  11.120  14.012  0.1811  0.0756 -0.1522
11064W        W31344  17.680   3.333  10.484 -0.3171 -0.0350  0.0939
11065W        W31345   6.150  10.589   1.588  0.1889  0.1358 -0.1786
11066W        W31346  17.475   5.565   3.349 -0.1945 -0.1199 -0.0075
11067W        W31347   0.990  16.916  11.260 -0.3403  0.1058 -0.2905
11068W        W31348  13.292   1.062   0.850 -0.1314 -0.0018 -0.0250
11069W        W31349  13.457   2.217   3.253 -0.1433  0.0799  0.0427
11070W        W31350   1.526   2.368   3.786  0.0455  0.1688  0.1152
11071W        W31351   4.387   7.083   2.503 -0.0853  0.1077  0.1916
11072W        W31352  15.341  15.384  11.971  0.1194 -0.1880 -0.5620
11073W        W31353  10.503   5.888  13.416  0.0147 -0.0666 -0.0422
11074W        W31354  16.628  14.776  14.667  0.0816  0.0436 -0.0477
11075W        W31355  16.469   6.308   3.453  0.0625 -0.1947  0.0140
11076W        W31356  13.591  10.134  11.760  0.0186 -0.0531 -0.0139
11077W        W31357  18.619   7.707  13.875  0.1840 -0.1640 -0.0622
11078W        W31358  17.882  14.196   2.859  0.0636  0.2523 -0.0687
11079W        W31359  17.630  11.023  14.200 -0.3586  0.3570 -0.1965
11080W        W31360   1.156   7.290   3.425  0.3129 -0.1896 -0.0677
11081W        W31361  13.046   0.299   3.336  0.1982  0.0089  0.0774
11082W        W31362   2.318  17.038   0.841 -0.1075 -0.0069 -0.1978
11083W        W31363   7.826  16.185   3.501 -0.1572  0.0643  0.2936
11084W        W31364  14.518   5.983   0.915  0.2607 -0.2224 -0.0693
11085W        W31365   1.282  12.081  14.711  0.0739  0.2867  0.2353
11086W        W31366  17.647  16.458  15.334 -0.1564 -0.3737 -0.0081
11087W        W31367   6.963  10.343   3.575  0.0365  0.2898  0.1268
11088W        W31368   3.393  12.402   4.947  0.0868  0.2198  0.0356
11089W        W31369  17.633  12.503   0.465  0.2015  0.1579 -0.1401
11090W        W31370  13.246   4.752   3.178 -0.0436 -0.2000 -0.2019
11091W        W31371   0.730  18.476  14.627  0.0457  0.2808 -0.2025
11092W        W31372  10.900   4.511  13.085  0.2749 -0.1299 -0.3413
11093W        W31373  12.879   1.974   1.971 -0.1249  0.0176  0.1915
11094W        W31374  16.537   3.709   0.194  0.0660 -0.0896  0.1493
11095W        W31375   6.874  16.525   3.510  0.1155  0.1559 -0.2784
11096W        W31376  11.440  17.775  11.493 -0.1309 -0.0296  0.1478
11097W        W31377  13.091   1.943   0.602  0.0495 -0.0473 -0.1487
11098W        W31378  18.170   7.077   1.971 -0.4361  0.1197  0.3201
11099W        W31379   2.495  17.982  11.816  0.0593  0.1194 -0.0971
11100W        W31380  12.363  16.210   4.158 -0.1069 -0.0096  0.0474
11101W        W31381  16.838  10.861   0.395 -0.4438  0.0809  0.0371
11102W        W31382   8.266  16.765   2.139  0.0239 -0.2501  0.1158
11103W        W31383   5.467  12.876  14.714 -0.1740 -0.0466  0.2251
11104W        W31384   1.858   5.567  15.312 -0.1536  0.2155 -0.2890
11105W        W31385  18.143   9.806   3.436 -0.1517  0.0887 -0.1663
11106W        W31386   0.024   3.007  12.584 -0.0562 -0.0046  0.0347
11107W        W31387  17.823  15.568  14.836 -0.2603  0.2940  0.1736
11108W        W31388   1.078  17.386   1.499 -0.1897 -0.0853  0.3825
11109W        W31389   3.966   2.751  13.421  0.0492  0.1515 -0.1884
11110W        W31390   7.055  18.588   4.008  0.3871  0.1675 -0.0786
11111W        W31391  16.639  10.295  11.762  0.1662 -0.1128 -0.1990
11112W        W31392  17.929   3.464  15.056  0.2951  0.1425 -0.2784
11113W        W31393   3.160   5.998  12.568 -0.1016 -0.3643 -0.1611
11114W        W31394   3.782  15.957  14.155  0.2428 -0.1017  0.3610
11115W        W31395  14.974  11.034  14.886  0.1011 -0.0285 -0.1079
11116W        W31396   1.592   1.805  13.860 -0.0477 -0.1898 -0.4316
11117W        W31397   1.208   6.316   3.146  0.1554 -0.1308  0.1318
11118W        W31398   8.146  12.993   1.365  0.2158 -0.0759  0.0963
11119W        W31399  12.591  13.057  13.473  0.4634 -0.2664  0.0301
11120W        W31400   2.740   0.947   0.539  0.2828 -0.2328  0.0656
11121W        W31401  14.726  13.618  15.124  0.1929 -0.1019 -0.1446
11122W        W31402  14.932   6.753  13.502 -0.2258 -0.1634 -0.1072
11123W        W31403  16.903   2.908   2.652 -0.0935  0.0037  0.0522
11124W        W31404   1.554   8.138  11.525 -0.2279 -0.1796 -0.2179
11125W        W31405   9.058  15.961  12.679 -0.0168  0.0267 -0.0137
11126W        W31406  17.684   8.333   2.278  0.1002  0.0325  0.1880
11127W        W31407   4.551  14.119   0.262 -0.0338  0.2242  0.0859
11128W        W31408  11.277   3.413  12.254  0.1916  0.3233  0.3264
11129W        W31409   8.313  17.504  14.914 -0.1064  0.0875 -0.1439
11130W        W31410   0.109  11.618   1.504  0.2632 -0.1275 -0.0586
11131W        W31411  12.945  11.061   2.147  0.1792  0.0415  0.1653
11132W        W31412  12.997   3.250   3.239  0.0778  0.0788  0.2488
11133W        W31413   7.694   7.018   0.121  0.0022  0.0092 -0.1003
11134W        W31414   7.526   2.246   5.000 -0.0392  0.0877 -0.1164
11135W        W31415  12.736   3.386  13.276 -0.2543  0.2257 -0.0282
11136W        W31416  11.617  16.711   2.722  0.1291 -0.0555 -0.1870
11137W        W31417  14.437   4.954   0.957  0.0197 -0.1628  0.0036
11138W        W31418  15.972   5.603  12.376  0.2330 -0.0044  0.0138
11139W        W31419  17.259   3.682  12.393 -0.0327 -0.0625  0.1722
11140W        W31420  18.718  17.311  11.295 -0.0089 -0.0255 -0.3694
11141W        W31421   0.769   4.683  12.965  0.1691 -0.1476 -0.2699
11142W        W31422   8.851  12.343   3.665  0.3520 -0.2640 -0.4826
11143W        W31423   7.394   9.987  14.439  0.1920  0.3441 -0.2083
11144W        W31424   5.516   3.055   1.641 -0.2000 -0.1938  0.0545
11145W        W31425  12.005   8.285   3.097 -0.2544 -0.2147  0.1243
11146W        W31426  13.348   5.542  12.661 -0.2405  0.1233  0.1941
11147W        W31427   1.525   4.540  12.920 -0.1585 -0.1568  0.0903
11148W        W31428   8.640  15.485  12.393  0.1165 -0.4032  0.1925
11149W        W31429   5.058   1.595  11.591 -0.0057  0.2346  0.3285
11150W        W31430  18.262   1.581   2.803 -0.1118  0.0794 -0.1013
11151W        W31431  13.149  10.075   3.205 -0.4080  0.3087  0.0705
11152W        W31432  13.580  14.710  11.014 -0.3518  0.1483  0.0821
11153W        W31433   0.866  14.776   1.958  0.0827 -0.0798  0.0223
11154W        W31434  16.080  18.063  15.251  0.2676  0.0386 -0.2506
11155W        W31435   9.029   1.942   3.656  0.2027  0.0514  0.0297
11156W        W31436   5.982   3.496  11.150  0.0888 -0.0319  0.1094
11157W        W31437  16.560   2.760  12.564  0.1173  0.2815 -0.1417
11158W        W31438  15.494  12.112  12.663  0.2685  0.0904 -0.0495
11159W        W31439  18.037   6.503  14.656 -0.1739 -0.1046 -0.0367
11160W        W31440   3.992   1.620  14.975 -0.3104  0.0678 -0.2301
11161W        W31441   8.019   3.723  11.816  0.0612 -0.0454 -0.0344
11162W        W31442  16.545  12.715  14.428 -0.1576 -0.2669 -0.1647
11163W        W31443   8.709  11.723   3.795 -0.0236  0.2863  0.1886
11164W        W31444   0.835  11.810   2.198  0.1750 -0.3664  0.2251
11165W        W31445   8.265   0.681   3.684 -0.1429 -0.1565  0.2673
11166W        W31446   2.497  14.197   1.335  0.0847 -0.2766 -0.1150
11167W        W31447  11.510  13.901  15.168  0.1657  0.1897  0.0725
11168W        W31448   8.978   8.887  14.591  0.2630 -0.0296 -0.1166
11169W        W31449   7.047  17.846   0.582  0.3048  0.0311 -0.0698
11170W        W31450   1.916   4.672   0.867  0.0146 -0.1443 -0.0546
11171W        W31451  15.703   7.298  14.108 -0.1009 -0.3713  0.0617
11172W        W31452  17.523   4.641  12.049  0.2195  0.1643 -0.1534
11173W        W31453  17.079  18.001   3.842  0.0642  0.0774  0.1167
11174W        W31454  15.243   0.470   3.121 -0.0730 -0.1408 -0.0080
11175W        W31455   8.391  18.298   3.468  0.0838 -0.2221  0.2692
11176W        W31456   9.183   9.323  12.186 -0.1684  0.1345 -0.1091
11177W        W31457  17.431   6.124  12.119  0.1106 -0.1363  0.0191
11178W        W31458   8.612   5.968   1.043  0.0747  0.0049  0.3793
11179W        W31459  13.958   6.481   0.053  0.0924 -0.0223 -0.3219
11180W        W31460  13.847  12.540  14.249 -0.1032 -0.2924  0.0637
11181W        W31461  13.975   1.843  14.858 -0.1944  0.1441  0.1170
11182W        W31462   3.888   4.229  12.647  0.1140 -0.1405 -0.2564
11183W        W31463  16.064  16.748  13.676  0.1867 -0.2088 -0.1352
11184W        W31464  12.346   8.182   0.654  0.1637 -0.1277 -0.1299
11185W        W31465   6.482   3.300   2.157 -0.1969 -0.3220  0.0232
11186W        W31466   1.485   5.424   3.389 -0.0785 -0.1967 -0.2981
11187W        W31467  16.400   8.498   1.260 -0.1663  0.2144  0.0404
11188W        W31468   2.362   7.573   1.776 -0.1762  0.3861 -0.1237
11189W        W31469   3.829   4.941  14.001 -0.1143  0.3121  0.1752
11190W        W31470  10.135  11.984   3.654 -0.1328  0.0845  0.0965
11191W        W31471   4.032   1.040  14.328  0.0127 -0.1870  0.2082
11192W        W31472   6.935  11.779  14.665 -0.0665  0.4772 -0.3038
11193W        W31473  17.410   3.276   0.702 -0.1314 -0.0605 -0.4549
11194W        W31474  13.432  18.195   2.726  0.0071  0.3548 -0.1395
11195W        W31475  13.630  13.923   0.494  0.1076  0.0236 -0.0242
11196W        W31476  14.879  15.527  15.116  0.2139  0.2342  0.0577
11197W        W31477   8.046   3.669   3.106  0.0024  0.0200 -0.0369
11198W        W31478   5.889  11.060   1.550 -0.0578  0.0784  0.4963
11199W        W31479   1.637   6.257   3.603  0.2125 -0.0717  0.1177
11200W        W31480  13.405   6.420  13.863  0.2400 -0.0373 -0.0000
11201W        W31481  14.446   0.562   0.977  0.1111 -0.1045 -0.0691
11202W        W31482   9.687   7.559  13.726  0.3145 -0.1366 -0.1472
11203W        W31483   7.581   4.839  13.588 -0.1042 -0.3142 -0.2736
11204W        W31484   3.218  16.760  11.299  0.0031 -0.0470  0.0519
11205W        W31485  12.339   1.506   3.605  0.4759  0.0731  0.0496
11206W        W31486  12.418  14.593   5.422 -0.1850  0.0487  0.0118
11207W        W31487   9.064   3.858  10.925  0.1760 -0.0505  0.0087
11208W        W31488  17.093  13.998   1.864 -0.1719 -0.1211 -0.1841
11209W        W31489   5.506  14.882   2.820  0.2287 -0.2980 -0.1329
11210W        W31490  13.021   4.809   4.084  0.4461  0.0513  0.0835
11211W        W31491   6.712   4.613  11.786  0.4232 -0.0276 -0.0111
11212W        W31492  14.584  17.839   3.024 -0.1930  0.2158 -0.3838
11213W        W31493  11.086   2.348  14.230  0.0327 -0.1684  0.0421
11214W        W31494  11.610   7.492   0.967  0.2055 -0.1285  0.0979
11215W        W31495  15.775  16.478  11.133  0.1140 -0.2021 -0.1331
11216W        W31496   7.065  16.612   0.995 -0.2688 -0.3175  0.1315
11217W        W31497   7.532   2.628   3.030 -0.0305  0.1213 -0.1867
11218W        W31498  11.018   8.086   3.515  0.2692  0.1153 -0.1545
11219W        W31499  17.569   5.928  12.626 -0.0646  0.1607  0.1175
11220W        W31500  15.724  10.011   1.908 -0.2376  0.1446  0.0110
11221W        W31501   5.947  10.044  11.758  0.1535 -0.0908  0.1414
11222W        W31502  15.364  13.057  12.392  0.0984 -0.0021  0.3085
11223W        W31503  15.005   0.510  14.110 -0.2796 -0.0813 -0.1005
11224W        W31504   1.428  11.342   2.913  0.3154 -0.1554  0.0001
11225W        W31505   9.714  10.572   4.497  0.1475 -0.0847  0.2153
11226W        W31506   8.614  16.395   3.528 -0.1660 -0.1330 -0.0108
11227W        W31507  14.377  14.949   1.336  0.2657 -0.1516  0.0427
11228W        W31508   0.907  18.619   3.205 -0.1180  0.0345  0.0398
11229W        W31509  16.410   4.292  11.416  0.0781  0.0097  0.1780
11230W        W31510  12.678   0.928   2.637  0.2241 -0.4413 -0.0607
11231W        W31511  17.530   5.172   2.289 -0.1978 -0.2014 -0.1056
11232W        W31512   0.077  10.242   0.993  0.0607  0.3194 -0.1521
11233W        W31513  12.000   8.628   2.192 -0.1915 -0.1164  0.1391
11234W        W31514   2.851  10.909   0.495 -0.0075 -0.0684  0.3241
11235W        W31515  15.046   4.192   0.546  0.0246 -0.2131  0.1809
11236W        W31516   3.351  14.167   2.925 -0.2235  0.0513 -0.0637
11237W        W31517  10.497   4.149  12.999 -0.1849  0.0963 -0.0672
11238W        W31518  17.760  13.209   0.335  0.2054  0.0648  0.1877
11239W        W31519  12.865   4.498   2.841  0.0521  0.3613  0.1668
11240W        W31520  15.633   9.535  12.441 -0.2517 -0.0444 -0.0208
11241W        W31521   1.602   2.778  13.531  0.3798 -0.0969  0.1121
11242W        W31522  12.438   8.716  12.352  0.1682  0.1822  0.1510
11243W        W31523  12.131  11.720   4.834 -0.1222 -0.0068  0.0263
11244W        W31524  10.350   4.972  11.548  0.0277  0.0989  0.0476
11245W        W31525  11.352   5.282   1.428  0.1433  0.2357  0.2813
11246W        W31526   2.974   9.272   1.788  0.1473 -0.0881  0.1672
11247W        W31527  12.380  11.588   0.442  0.1150 -0.0598 -0.0156
11248W        W31528  10.437   5.513  11.267 -0.0583 -0.3122 -0.0998
11249W        W31529   2.366  15.224   3.536  0.2932 -0.1601  0.2017
11250W        W31530  12.498  15.911  12.092 -0.4982 -0.3745  0.0825
11251W        W31531  11.950  11.579  14.685  0.1883 -0.1270 -0.1758
11252W        W31532   0.927   2.906   3.498  0.0895 -0.0243 -0.0311
11253W        W31533  10.584  10.310   0.410  0.0974 -0.0143 -0.0733
11254W        W31534  11.024   6.555  12.117 -0.3796 -0.1320 -0.0609
11255W        W31535   5.759   8.534   0.195 -0.1610 -0.2251 -0.0481
11256W        W31536  10.552   7.148  10.905 -0.0047 -0.1056 -0.1874
11257W        W31537  15.577  15.960   4.830 -0.0927 -0.0442 -0.4606
11258W        W31538   8.663  10.696   2.361 -0.1880 -0.0448 -0.1431
11259W        W31539   3.764  16.713   1.798 -0.0200  0.0565 -0.0299
11260W        W31540   0.660   0.461   1.974  0.0860 -0.2175 -0.0727
11261W        W31541   3.835  15.430  14.073 -0.0581 -0.0622  0.1384
11262W        W31542   7.448   6.185   1.674 -0.1551 -0.3995 -0.1167
11263W        W31543   9.154  18.726  10.589 -0.3566 -0.0793  0.0996
11264W        W31544   3.770  13.595   0.278 -0.0343 -0.2511 -0.0071
11265W        W31545  16.348   6.960   3.132 -0.1637  0.0383 -0.2996
11266W        W31546   5.180  17.826   4.130  0.0743  0.0029  0.1270
11267W        W31547  15.058  16.476   4.275  0.1143  0.1716 -0.1780
11268W        W31548  14.126  16.107  13.109  0.2571 -0.0954  0.2841
11269W        W31549   4.433   2.558  15.055  0.3144 -0.2864  0.1998
11270W        W31550   3.860   1.140  14.870  0.1836  0.1451 -0.0835
11271W        W31551   0.196   0.278  13.987 -0.1502 -0.1043 -0.1535
11272W        W31552   5.739   6.948   2.943 -0.1475 -0.0699  0.1246
11273W        W31553  15.540   5.668  11.747  0.2178  0.0000  0.1301
11274W        W31554  13.966   1.385  13.317 -0.0152 -0.1987 -0.3400
11275W        W31555  17.126  16.238   2.992  0.1639  0.2361  0.1337
11276W        W31556  10.707   6.601  13.366  0.0208  0.0050  0.3459
11277W        W31557  10.282  13.348   2.289 -0.0126 -0.1768 -0.1230
11278W        W31558  14.713  16.209  14.328 -0.0518  0.4260 -0.3114
11279W        W31559  18.591  18.506  14.448  0.3710 -0.2502 -0.1585
11280W        W31560   4.965   3.953   2.455 -0.3245 -0.2234 -0.4528
11281W        W31561   4.972   8.326  12.969 -0.0882 -0.0375 -0.0235
11282W        W31562  16.008  18.535  11.580  0.0306 -0.2283 -0.1313
11283W        W31563  18.337   2.349   0.003  0.2110  0.0822 -0.1918
11284W        W31564  15.652   3.787   3.794  0.1629 -0.0533 -0.1384
11285W        W31565   7.797  13.559   3.945  0.0298 -0.5168 -0.0056
11286W        W31566  10.318   2.817  14.851 -0.0487  0.0435 -0.0571
11287W        W31567   8.045   6.201  14.046 -0.2355  0.0639  0.2334
11288W        W31568   3.582   3.273   2.539  0.0121 -0.1497 -0.1227
11289W        W31569  11.617  12.094   2.392 -0.2677  0.1008 -0.0844
11290W        W31570   5.982   0.027  14.860 -0.0438  0.1466  0.3735
11291W        W31571   5.277   9.930   3.043  0.0738 -0.1162 -0.0514
11292W        W31572   9.386   0.640   3.937 -0.1897  0.5007  0.0432
11293W        W31573   1.303   4.909   1.548  0.1984 -0.1795 -0.1085
11294W        W31574  16.900   8.092   2.844 -0.1251 -0.0156 -0.0886
11295W        W31575  14.449  13.331   0.699 -0.0211 -0.0372 -0.0328
11296W        W31576   4.359   8.634  13.709 -0.1426 -0.1868 -0.0102
11297W        W31577   8.452  12.106  12.557 -0.2630  0.0420 -0.0027
11298W        W31578  14.774   8.985  14.631 -0.2229 -0.1985 -0.1311
11299W        W31579   5.967  15.275   0.078  0.4048 -0.2612 -0.0299
11300W        W31580  11.460  10.058   2.302 -0.0278  0.0290 -0.2411
11301W        W31581   0.481  15.664  13.904 -0.0921  0.2127  0.4187
11302W        W31582   7.653   5.409  14.261 -0.0805  0.2092  0.5306
11303W        W31583   6.649  11.845   1.095 -0.2724  0.0513 -0.1426
11304W        W31584   2.743  15.041  10.247 -0.1029  0.0406 -0.0912
11305W        W31585  11.810  12.432  14.393 -0.0243  0.0046 -0.1048
11306W        W31586  17.865  18.582   2.996 -0.0551  0.1018  0.1584
11307W        W31587   9.165  13.681  11.604 -0.0340  0.1169  0.1260
11308W        W31588  11.430  15.239   1.499 -0.0863  0.1583  0.3338
11309W        W31589   7.872   7.326  15.167 -0.1045 -0.2219 -0.1218
11310W        W31590   4.710   5.050  12.501 -0.2042 -0.2894 -0.2654
11311W        W31591   4.617  11.451   1.906 -0.0531  0.2991  0.1507
11312W        W31592  15.261  16.200   2.232  0.1208 -0.0675 -0.3198
11313W        W31593  16.524  11.733   1.834 -0.2043  0.0609  0.1165
11314W        W31594  11.343   2.502  11.350 -0.1319 -0.0875  0.3682
11315W        W31595  16.242   0.501   2.772 -0.0847  0.1461  0.0572
11316W        W31596   8.305  16.537  10.790  0.0197  0.0520 -0.0465
11317W        W31597   0.865  12.312   3.210  0.1589  0.0552  0.2565
11318W        W31598   0.764   4.749   2.918  0.0253 -0.2178  0.3751
11319W        W31599   8.263   2.235   0.622  0.0588  0.0328  0.2487
11320W        W31600   3.078   7.954   1.728 -0.0297 -0.2088  0.0441
11321W        W31601   3.038   9.603   2.189 -0.0044 -0.1014  0.1413
11322W        W31602   0.570  14.704  12.809  0.1185 -0.0914  0.0382
11323W        W31603  11.282   4.922   3.037 -0.0611  0.0014 -0.2106
11324W        W31604   9.817  16.015   2.625 -0.2896 -0.0568 -0.0445
11325W        W31605   2.434   1.885   4.060 -0.1678 -0.0591  0.0627
11326W        W31606  18.245   0.056  10.985  0.1377  0.3726 -0.0785
11327W        W31607   3.338  18.255  13.247 -0.0454 -0.1432  0.0406
11328W        W31608   4.755  18.273   1.062 -0.2581 -0.0768 -0.2220
11329W        W31609   6.463   6.385   2.914 -0.1272 -0.2085 -0.2518
11330W        W31610  11.444  13.477   3.295  0.0543  0.1319  0.0028
11331W        W31611  13.532  13.697  12.733 -0.1336 -0.4947 -0.2061
11332W        W31612   5.877   1.838  11.056  0.0125  0.2573  0.1203
11333W        W31613  14.661  15.389  10.190 -0.0005 -0.3376  0.1204
11334W        W31614   2.528   7.615  13.848 -0.0394 -0.1014  0.0363
11335W        W31615   1.161   4.229  12.678  0.1239  0.2935 -0.0570
11336W        W31616  13.625  12.317   1.838  0.1299  0.0038 -0.0185
11337W        W31617  16.120  16.722  12.074  0.0304  0.1285 -0.1932
11338W        W31618   9.198   2.684   2.005 -0.2566 -0.0091 -0.0526
11339W        W31619  17.550  16.531  11.204  0.0299 -0.4786  0.0136
11340W        W31620  13.740  11.283   0.229  0.1868 -0.0752 -0.0316
11341W        W31621   8.601   6.362  13.788 -0.1680  0.0874  0.0497
11342W        W31622   4.896   7.963   3.258 -0.0333  0.0574  0.2409
11343W        W31623   0.843   0.304   3.454  0.2458  0.3421  0.2714
11344W        W31624  14.213  10.938  14.391  0.1401 -0.4260 -0.1403
11345W        W31625   7.143   0.102  12.857 -0.3673  0.0676  0.1514
11346W        W31626   8.653   6.639  15.151  0.0605  0.0162  0.0041
11347W        W31627  12.526   7.666   4.579 -0.0545 -0.4199 -0.1769
11348W        W31628   1.387   6.307  11.130  0.2578  0.2051 -0.0308
11349W        W31629   0.736   5.669  14.241  0.1714 -0.1167  0.0419
11350W        W31630   4.587  15.864   3.656  0.0716  0.1479  0.1166
11351W        W31631  14.543  13.865  14.741 -0.3492  0.2248  0.0052
11352W        W31632   0.443  14.607   3.996  0.0363 -0.1581  0.1462
11353W        W31633   5.187  13.721   3.292  0.1370  0.3324  0.1225
11354W        W31634  16.151   7.227   5.662 -0.2106 -0.2025  0.0735
11355W        W31635  10.145   2.973   3.518  0.3213 -0.1193 -0.0424
11356W        W31636  12.728   8.327  14.178  0.4789  0.1060 -0.0651
11357W        W31637   4.961   8.505  11.213  0.0118  0.1767  0.2166
11358W        W31638   3.708   8.908   2.918 -0.1224 -0.0302  0.0289
11359W        W31639  17.297   9.119   0.577  0.0697 -0.1754 -0.0159
11360W        W31640  14.350   7.245  14.747  0.1483  0.1921  0.1458
11361W        W31641   9.387  10.215   3.597 -0.0491  0.0730 -0.1331
11362W        W31642   9.461   8.934  11.460  0.2406  0.0178  0.3618
11363W        W31643  18.503  10.128  13.706 -0.0009  0.1558 -0.0670
11364W        W31644  11.420  11.171  14.618  0.1027 -0.2412  0.0530
11365W        W31645  15.541  12.372  11.809  0.0857  0.2536  0.1179
11366W        W31646   5.474   1.736  15.020  0.2466  0.2333  0.0503
11367W        W31647   2.749  13.229  12.212  0.0619 -0.3357 -0.1196
11368W        W31648   7.398  11.938   0.216  0.0181  0.1090 -0.1119
11369W        W31649  12.830   2.372  14.353 -0.0494 -0.0338 -0.0791
11370W        W31650   6.791  14.046  15.291  0.0139 -0.3587 -0.3979
11371W        W31651  15.217   0.711  11.048 -0.1689  0.1072 -0.0569
11372W        W31652   3.418   6.988   2.695 -0.0189 -0.0876 -0.1576
11373W        W31653   7.107   5.746  15.328 -0.0496 -0.0832  0.2586
11374W        W31654   6.501  12.024   2.695  0.0722  0.1303 -0.0393
11375W        W31655  11.928  18.042   0.037 -0.2033  0.0682  0.2352
11376W        W31656  13.571  17.671   5.779  0.1284 -0.1965 -0.2161
11377W        W31657  16.947  11.977   1.505 -0.0401 -0.1075 -0.2596
11378W        W31658   2.508  10.759   1.345  0.0669  0.1037  0.0495
11379W        W31659   8.381  13.478  11.889 -0.2186 -0.1330 -0.2429
11380W        W31660  14.733  12.631  14.986 -0.1127  0.3458 -0.0938
11381W        W31661  16.320   0.602  13.737  0.1456  0.4071 -0.1548
11382W        W31662  16.310  13.505  12.138 -0.2071  0.1116  0.1717
11383W        W31663  10.862   9.120   3.194 -0.4388  0.0194 -0.0656
11384W        W31664   7.456   4.604   2.772 -0.0614 -0.0518 -0.2493
11385W        W31665   5.241   0.082  11.551  0.1455  0.0709 -0.2979
11386W        W31666   0.324  17.720   3.930  0.2787 -0.1318  0.3429
11387W        W31667  13.519   8.362   4.080  0.0798 -0.2674  0.2189
11388W        W31668  18.133  15.347   0.717  0.0036  0.0004 -0.0387
11389W        W31669  13.915  15.349  10.486 -0.2148 -0.4004  0.0509
11390W        W31670   7.314  18.576   4.894  0.2702  0.0228  0.4672
11391W        W31671   0.916   6.530   5.302 -0.2829 -0.1902  0.2868
11392W        W31672   9.490   1.770   3.593 -0.1383 -0.1123  0.1183
11393W        W31673   3.307   4.642   2.542  0.0663 -0.3725  0.0416
11394W        W31674  14.294  14.739   3.056 -0.3138  0.3005 -0.1268
11395W        W31675   5.572  16.478   4.907 -0.2269 -0.2047 -0.1346
11396W        W31676  13.162   6.223  14.245 -0.0219 -0.1072 -0.1905
11397W        W31677  13.771   5.512   3.038 -0.2110 -0.1818  0.0329
11398W        W31678  13.083   7.829  13.522 -0.0317  0.1771 -0.0600
11399W        W31679   5.337   7.872  13.903 -0.0729 -0.1140  0.1355
11400W        W31680   6.068   7.443   2.436 -0.1443 -0.2030  0.0102
11401W        W31681   1.323  11.475  14.756  0.1614  0.4039 -0.0093
11402W        W31682  10.255   7.972   1.393  0.0085  0.2625 -0.0609
11403W        W31683  13.508   0.434   3.674 -0.1185  0.2501  0.0900
11404W        W31684   0.739   0.219   1.560 -0.1199  0.1799  0.1150
11405W        W31685   5.825   9.076  14.641 -0.0032 -0.3149 -0.1117
11406W        W31686  13.092  14.314   2.892  0.1171  0.1784  0.1928
11407W        W31687  12.490   5.068   2.335 -0.3317 -0.0770  0.3009
11408W        W31688  13.299  12.401   4.413  0.1173 -0.0242  0.2379
11409W        W31689  17.491  10.415   2.909  0.0354 -0.2973  0.1634
11410W        W31690  12.860   2.790  13.577 -0.1900 -0.0986 -0.0207
11411W        W31691   7.096   4.755   0.909  0.0543  0.4486  0.1290
11412W        W31692   6.034   8.995  12.565 -0.1800 -0.1761  0.1565
11413W        W31693  13.931  15.102  11.476  0.2146  0.0757 -0.3407
11414W        W31694  16.931   7.343  14.734 -0.1518  0.0051  0.2060
11415W        W31695  14.999   2.692  12.935  0.0402 -0.0749 -0.1391
11416W        W31696   7.793   3.448  13.203  0.0480 -0.0414 -0.0385
11417W        W31697   2.533   2.695   0.270 -0.0693  0.1114  0.1198
11418W        W31698   5.754  13.498  15.119  0.0104 -0.1471  0.1863
11419W        W31699  15.387  15.744   2.422  0.1036 -0.0807  0.1774
11420W        W31700   4.992   5.141   1.429  0.1874 -0.1708  0.1524
11421W        W31701  18.286  18.227  14.099  0.0145 -0.1570 -0.0830
11422W        W31702   0.656   9.499  14.696  0.1136  0.0492  0.0354
11423W        W31703   0.283   7.860   4.280  0.0234 -0.2094 -0.0356
11424W        W31704  13.395  15.632   2.564 -0.0942 -0.1664 -0.0371
11425W        W31705  15.175  13.893   1.396 -0.0105  0.1288 -0.1834
11426W        W31706  12.018   1.876  11.699 -0.0903  0.0649 -0.0405
11427W        W31707   2.053  10.911  12.203 -0.0444 -0.0098 -0.2938
11428W        W31708  13.265  14.650  15.360  0.0423 -0.4820  0.0606
11429W        W31709   0.133  13.772   4.028  0.0697  0.3017 -0.0274
11430W        W31710   8.084  12.179   2.589  0.5008  0.2075 -0.1341
11431W        W31711  12.812  16.817  14.162 -0.3283  0.3559  0.0092
11432W        W31712   2.905   9.196   2.484 -0.0841  0.0971 -0.2257
11433W        W31713  11.474   4.940   1.054  0.1118 -0.0015  0.2231
11434W        W31714  17.913   3.856   3.464  0.1687  0.1207 -0.3401
11435W        W31715   7.533  18.054   0.806  0.1172 -0.2640  0.1379
11436W        W31716  18.745  15.016  14.226 -0.4905 -0.1436 -0.1504
11437W        W31717   8.383  14.452  10.472  0.1395 -0.2911  0.1601
11438W        W31718  11.167  12.777   1.112 -0.0735  0.0855 -0.0381
11439W        W31719   9.983   2.803  12.639  0.3263 -0.0210 -0.0167
11440W        W31720   3.579   7.345  12.895  0.1574  0.1921 -0.0600
11441W        W31721   8.621   4.820   1.332  0.1786 -0.1681 -0.1214
11442W        W31722   3.790   2.377   2.722 -0.1073 -0.3726  0.1235
11443W        W31723   9.138   6.781   5.775 -0.1200  0.0970 -0.0562
11444W        W31724  15.622  16.881   5.444  0.0241  0.0168  0.2593
11445W        W31725  14.788   1.280   2.178  0.0432  0.0112  0.0254
11446W        W31726  16.561  10.431   2.920  0.1568 -0.1813  0.3963
11447W        W31727  13.724   9.199   3.974 -0.0714  0.1322 -0.0514
11448W        W31728  18.707  16.652  13.001  0.2941  0.0642 -0.2692
11449W        W31729  14.623  13.773  14.281 -0.2413 -0.0638 -0.1416
11450W        W31730   5.686  12.899   3.325  0.5069 -0.0830 -0.0843
11451W        W31731   9.939   0.077  11.713  0.1079 -0.1377  0.0681
11452W        W31732   3.382  13.580  13.823  0.4546  0.1483 -0.1551
11453W        W31733   7.948   6.253   0.555 -0.2985  0.0056  0.1293
11454W        W31734  16.677  15.690   1.100  0.1024  0.0116  0.0716
11455W        W31735  13.207   3.583   0.068  0.1508  0.0402 -0.1831
11456W        W31736  10.308   6.122  12.650  0.2009 -0.2202 -0.1277
11457W        W31737  10.257  12.460   0.821  0.0983  0.1561 -0.2714
11458W        W31738  11.260   9.492   6.151 -0.0350  0.0422 -0.2050
11459W        W31739   8.400  16.935   0.410  0.2960  0.0744  0.2462
11460W        W31740  18.402   8.394   1.629 -0.1533 -0.3335  0.0498
11461W        W31741   9.827   1.811   1.017 -0.1173  0.1614  0.1212
11462W        W31742  15.605  16.836   1.462  0.1954 -0.2943  0.0005
11463W        W31743   5.391  12.666  12.580  0.4195 -0.0380 -0.3080
11464W        W31744  13.885   6.365   4.076  0.1125 -0.1540 -0.2513
11465W        W31745   6.103   6.586   3.303  0.1691  0.3811 -0.0173
11466W        W31746  11.873   6.065   4.119  0.0689 -0.1396  0.0358
11467W        W31747   2.009   5.998  13.965 -0.1894  0.5663  0.1398
11468W        W31748  13.361   1.350   2.744 -0.1878 -0.0060  0.1463
11469W        W31749  17.146   8.579  13.543 -0.0261 -0.3336  0.3191
11470W        W31750   9.931  18.055   2.655 -0.0413  0.3053 -0.1693
11471W        W31751   0.567  15.615  15.220  0.0563 -0.2211 -0.0233
11472W        W31752   4.576  10.833   2.113 -0.1314 -0.0047  0.0272
11473W        W31753   8.586  15.850  13.819  0.1248  0.1112 -0.2346
11474W        W31754   1.007   9.118  14.816 -0.0321  0.0239  0.0048
11475W        W31755  16.132  17.089  14.049 -0.0372  0.2995  0.2580
11476W        W31756   9.124   5.002  12.691 -0.1246 -0.4460  0.0120
11477W        W31757   9.780   8.783  14.761 -0.2694  0.1176 -0.0087
11478W        W31758  13.241  18.270   2.267 -0.0005  0.0667 -0.2559
11479W        W31759  13.864  11.712  10.840  0.1849 -0.5589  0.2490
11480W        W31760  16.966  14.760   1.664 -0.1570  0.3368  0.1086
11481W        W31761   9.567  13.279   3.231  0.0575  0.0870  0.0711
11482W        W31762   7.660  11.969   2.299  0.0543  0.1789  0.2297
11483W        W31763  17.547   8.720  15.099 -0.0582  0.3561 -0.1199
11484W        W31764  10.815   5.972   0.094  0.1351  0.5385 -0.1650
11485W        W31765  15.508  15.046   0.802 -0.0158  0.2261  0.1945
11486W        W31766   6.789  13.019  11.997  0.0038  0.0085  0.1213
11487W        W31767  12.448   3.541  15.113  0.0321  0.2340  0.0950
11488W        W31768  13.091   0.838   2.057 -0.0047 -0.4015  0.4421
11489W        W31769  14.988   3.168  12.685 -0.1849 -0.0237 -0.2120
11490W        W31770   5.543  16.455  14.883 -0.0773 -0.0369  0.1602
11491W        W31771  15.671  14.005   0.036  0.6158  0.2385 -0.1035
11492W        W31772  17.253   9.943   2.880 -0.1074  0.1329 -0.0206
11493W        W31773   3.434   7.024  10.043 -0.0817  0.1343 -0.0901
11494W        W31774  13.199  16.778  11.882 -0.1128 -0.2263  0.1354
11495W        W31775   4.199   2.266  12.903  0.0168  0.1621  0.2716
11496W        W31776   4.238   6.234   3.619  0.1158  0.5208  0.0832
11497W        W31777   3.744  14.840  11.784  0.0090 -0.0223 -0.4812
11498W        W31778  14.044  11.087  10.440  0.3221 -0.0279  0.1596
11499W        W31779   7.151   5.736   0.941  0.2944 -0.1119 -0.0607
11500W        W31780   1.020  12.607  12.733  0.2133 -0.0618 -0.0327
11501W        W31781  10.895   2.143  14.681 -0.0456 -0.1431 -0.1411
11502W        W31782   9.644  10.959  13.827  0.0958 -0.0452 -0.2966
11503W        W31783   7.983   4.930   1.851  0.2046 -0.4225 -0.3054
11504W        W31784  11.867  13.531  15.088  0.3860  0.1654 -0.4695
11505W        W31785  13.948   9.807  12.643  0.2330 -0.1457 -0.1508
11506W        W31786   9.610  17.219  15.311 -0.0643 -0.1280 -0.2633
11507W        W31787   7.773   6.679   0.525 -0.0783 -0.1360  0.0629
11508W        W31788  11.404  14.741  12.458 -0.0899 -0.1674  0.1333
11509W        W31789   6.440  12.255  13.962  0.0020 -0.3577  0.1452
11510W        W31790  18.589   0.311  13.634 -0.1630  0.1324 -0.1311
11511W        W31791   5.381  13.559   0.903 -0.0970 -0.0549 -0.1062
11512W        W31792   9.193   4.442  15.242  0.0755  0.2569 -0.1014
11513W        W31793   7.583  11.158  12.876 -0.1163 -0.1986 -0.0325
11514W        W31794  14.795   6.422  12.699  0.1878  0.0318  0.1688
11515W        W31795   2.306   1.883  11.466 -0.0132  0.0718 -0.1538
11516W        W31796   4.223   3.003  15.234  0.0044  0.3244  0.0684
11517W        W31797  10.021  16.304  13.246 -0.2513  0.0035  0.1183
11518W        W31798   0.644   3.803  14.721  0.0433 -0.0664 -0.2931
11519W        W31799  17.026  15.105  14.529 -0.1237  0.0564 -0.0109
11520W        W31800  11.806   2.198  13.228  0.1044  0.4753  0.2636
11521W        W31801  11.795   3.662  14.461  0.1837 -0.1439  0.2061
11522W        W31802   1.959   9.511   4.467  0.1593 -0.1472 -0.0762
11523W        W31803   2.625  17.208  13.530  0.1657 -0.2421 -0.0346
11524W        W31804   8.604   9.721  14.876 -0.0885  0.0362  0.3050
11525W        W31805   3.478  12.744   0.895  0.0272  0.1452 -0.4287
11526W        W31806  16.428  12.378   3.560  0.1622 -0.0567  0.2737
11527W        W31807   2.020  16.634  11.473 -0.1342  0.2379 -0.0108
11528W        W31808  18.433   6.486  11.604  0.2304  0.0117 -0.1537
11529W        W31809   8.192  15.510   0.325  0.2017  0.0509 -0.0925
11530W        W31810   3.042  12.705   2.610 -0.1728  0.0654  0.0216
11531W        W31811   0.174   7.241  14.330  0.0739 -0.1371 -0.1804
11532W        W31812   6.485  16.812  12.296 -0.0498 -0.1174  0.1640
11533W        W31813  10.970  10.861   0.582  0.1862 -0.2354 -0.1678
11534W        W31814  16.107   8.502  13.101  0.0990  0.6442 -0.1058
11535W        W31815  16.342  17.547  14.424 -0.0077 -0.2761  0.2023
11536W        W31816  18.686   7.907   1.458 -0.1755  0.2088  0.2581
11537W        W31817   0.019   8.390   1.210 -0.3706 -0.3495 -0.2816
11538W        W31818  10.480   5.163  12.624 -0.1547  0.3182 -0.2434
11539W        W31819  15.725  11.163   1.355  0.2572  0.3330  0.1803
11540W        W31820   9.082   3.908   0.016  0.2776  0.1784 -0.3303
11541W        W31821   2.626  10.356  12.824 -0.2515 -0.2751  0.0763
11542W        W31822   3.631  15.689  10.063  0.4280 -0.3222 -0.0281
11543W        W31823  11.930  18.220  14.818  0.0168  0.2598  0.0171
11544W        W31824  13.622  13.379  11.766 -0.1253 -0.3846 -0.1105
11545W        W31825  16.557   9.257   2.329  0.3432 -0.2922 -0.0128
11546W        W31826  13.354  12.526  14.070  0.0073  0.1050  0.0236
11547W        W31827   7.199  12.597   4.679  0.1613 -0.1045  0.0639
11548W        W31828  16.102   0.940   0.134  0.1070 -0.0849  0.0427
11549W        W31829   2.874   7.508  13.395  0.1921 -0.1570 -0.0826
11550W        W31830  16.338  18.426  14.812 -0.0368  0.0158  0.1354
11551W        W31831  16.423   1.797   1.245 -0.0605  0.1668 -0.0927
11552W        W31832   3.932  11.207   2.762  0.2177  0.3137 -0.2365
11553W        W31833   5.748   9.847   3.399 -0.1231  0.0615 -0.0023
11554W        W31834   1.218   6.957   2.014  0.0679 -0.0731  0.1756
11555W        W31835  15.871   2.896  11.326 -0.1586 -0.0584  0.1651
11556W        W31836  10.915   8.433   2.811  0.1747 -0.0157  0.0981
11557W        W31837   1.647  12.499   0.596 -0.1548  0.1667  0.1874
11558W        W31838   0.776   9.633   0.419 -0.0748  0.0517  0.1208
11559W        W31839   4.619   7.993  13.136  0.2907 -0.1649 -0.0998
11560W        W31840   9.666   7.724  11.095 -0.3653  0.1968  0.2704
11561W        W31841   5.975   4.282  12.868  0.2574  0.1648  0.0385
11562W        W31842   1.924  18.047  15.132  0.3294 -0.1586  0.1802
11563W        W31843  17.531   9.867   1.484 -0.1453  0.1700 -0.5632
11564W        W31844   5.472  13.971  10.741  0.0672 -0.4206  0.2596
11565W        W31845   4.037   9.300  11.021  0.0591  0.0707  0.1870
11566W        W31846  16.479  14.108  14.886  0.2113  0.2536  0.0834
11567W        W31847  10.237   5.576   0.774 -0.1099 -0.1939  0.2025
11568W        W31848   7.057   2.382   0.515 -0.2007 -0.3646 -0.0056
11569W        W31849   0.063   1.479   0.948  0.0240 -0.1039 -0.0406
11570W        W31850  17.859   2.992   0.711  0.1452 -0.3040  0.3224
11571W        W31851   2.540   6.116  11.993 -0.0585 -0.3325 -0.1182
11572W        W31852   2.581  18.349  11.404  0.3687 -0.1410 -0.0561
11573W        W31853   5.262  12.659  13.113 -0.2512 -0.3841 -0.1896
11574W        W31854  13.587  11.030   1.139 -0.1673  0.0253  0.2018
11575W        W31855  18.407   5.526  14.331 -0.2517  0.1078  0.0720
11576W        W31856  18.204  13.341   0.544  0.2474  0.1409  0.0432
11577W        W31857  11.167   0.710   3.591 -0.1110  0.2727  0.0999
11578W        W31858   7.397  11.162   1.913 -0.0849  0.0219 -0.0755
11579W        W31859   9.416  16.483  13.995 -0.1315 -0.0362 -0.0885
11580W        W31860  17.391  18.072   2.070 -0.0021  0.0626  0.1719
11581W        W31861  14.404   0.083   3.519  0.1493 -0.3309 -0.0587
11582W        W31862   4.211  16.464   1.535  0.1149  0.0281  0.1385
11583W        W31863  17.628   7.931   1.400 -0.1754  0.0056  0.1683
11584W        W31864   9.968  17.094   1.117  0.0930  0.1881 -0.2993
11585W        W31865  10.979  13.251   3.510  0.0774  0.3110 -0.2765
11586W        W31866  18.642  14.799   0.154 -0.0640 -0.2353  0.0799
11587W        W31867   5.574  13.642  12.377  0.1087  0.0702 -0.0960
11588W        W31868   7.404  15.348  10.943 -0.0048  0.1380  0.1067
11589W        W31869  10.319  11.567   4.375 -0.1866 -0.0784 -0.3207
11590W        W31870   3.700   6.306   1.636 -0.3748  0.2492 -0.3041
11591W        W31871  15.350   7.432  11.610 -0.1113  0.0900  0.4047
11592W        W31872   9.147  10.995   2.451 -0.0951 -0.0461 -0.1976
11593W        W31873  10.385   3.114  12.074  0.1558 -0.0551  0.0833
11594W        W31874  14.240   8.027  14.788 -0.0046 -0.2115  0.0779
11595W        W31875  13.962   4.989   3.986 -0.1239 -0.1714  0.2046
11596W        W31876  17.486   3.930  13.243  0.0327  0.0280 -0.1043
11597W        W31877   2.519   5.293  12.678  0.4012  0.0008 -0.0737
11598W        W31878  18.583  10.775   3.591  0.0251  0.1422  0.2051
11599W        W31879  10.318  18.631   0.963 -0.1902 -0.1242 -0.1842
11600W        W31880  14.919  14.554  12.952  0.1154  0.0898  0.1635
11601W        W31881   2.147   2.765  11.104 -0.0478  0.1480  0.2462
11602W        W31882   3.661  15.441  12.138 -0.2767 -0.0190  0.0495
11603W        W31883   0.954   4.755   0.539  0.0281 -0.1860  0.2317
11604W        W31884  11.214   7.655  15.210 -0.0193  0.0873  0.1602
11605W        W31885   6.394  13.163   1.749 -0.1074 -0.2498 -0.2547
11606W        W31886  12.558   0.056  11.195  0.0511 -0.1902  0.3233
11607W        W31887  16.981   5.446  10.900  0.1425  0.1124 -0.1297
11608W        W31888   7.812  18.427   0.482 -0.1816 -0.0233 -0.0018
11609W        W31889  15.515   8.803  11.751 -0.1039  0.0865  0.2768
11610W        W31890   5.694   3.941  11.144  0.0996 -0.2271  0.0147
11611W        W31891  14.741  16.474   3.206 -0.0131  0.0548 -0.0824
11612W        W31892   3.776  17.252  12.288 -0.0248  0.0504  0.0338
11613W        W31893  16.281  13.517  14.551  0.0506 -0.0743  0.4365
11614W        W31894  18.185   9.261  11.412  0.2870 -0.1979  0.1481
11615W        W31895   7.817   3.607   2.383  0.0795 -0.0253 -0.0221
11616W        W31896   4.626  12.048  13.318 -0.0165  0.1476 -0.3453
11617W        W31897   8.925   7.788   1.478 -0.0409  0.0133 -0.0806
11618W        W31898  12.331  15.134   4.611  0.2716 -0.0443  0.1466
11619W        W31899  16.595  15.209  13.284  0.0991  0.0362  0.3233
11620W        W31900   9.498   3.638   2.512 -0.1524  0.1471  0.2309
11621W        W31901  15.475   2.557   3.646  0.0446 -0.3401  0.2437
11622W        W31902   6.874  12.872   2.534 -0.4108 -0.2252 -0.2140
11623W        W31903   2.886   6.982  13.392  0.1232  0.0295  0.2234
11624W        W31904  11.831   4.365  12.085  0.1877  0.0919  0.2351
11625W        W31905   0.443   7.292  12.469  0.0952  0.3356 -0.0047
11626W        W31906   4.370  14.353  13.511  0.0627  0.1062 -0.2729
11627W        W31907  15.885  13.484  14.847  0.1848 -0.2164  0.2233
11628W        W31908   2.168  17.289   4.029  0.1633  0.1171 -0.0429
11629W        W31909   6.290   4.996   3.118  0.0965 -0.1993 -0.3719
11630W        W31910  15.148   6.035  13.427 -0.4642 -0.0328 -0.0499
11631W        W31911   6.421   5.170   0.119 -0.1797 -0.0816 -0.1151
11632W        W31912   6.999   0.088   1.351 -0.0870 -0.1996  0.1242
11633W        W31913  18.562  14.818   0.691  0.2023 -0.1667  0.1488
11634W        W31914   1.311  13.882  15.124 -0.1456  0.1245  0.0451
11635W        W31915   8.636  10.628  12.763 -0.1784 -0.1402 -0.0669
11636W        W31916   3.859  15.833   0.100  0.1833 -0.0769  0.2447
11637W        W31917   7.611   3.928  15.102  0.2240  0.2223 -0.1261
11638W        W31918  11.994   5.398  14.029 -0.3240 -0.1430 -0.1330
11639W        W31919  18.407   8.724   3.420 -0.0895 -0.4046 -0.1588
11640W        W31920  13.884  10.197   3.676 -0.2314 -0.2631 -0.1079
11641W        W31921   6.884  14.752  10.688 -0.3967  0.2075 -0.0060
11642W        W31922  12.251  16.882   1.122  0.2046  0.3318  0.0321
11643W        W31923   5.678  16.995  14.852  0.2214  0.1850 -0.1062
11644W        W31924   9.636  13.831   2.857  0.1148  0.1866  0.1076
11645W        W31925  12.123  18.479  13.777 -0.0178  0.2580 -0.0730
11646W        W31926  15.358  18.665   2.327 -0.0297  0.0960  0.3280
11647W        W31927  11.278   4.994  14.326 -0.1895 -0.2678 -0.0156
11648W        W31928  10.536  14.706   3.623 -0.1964 -0.0471  0.0344
11649W        W31929   1.590   9.891   3.406 -0.0569 -0.1565  0.0851
11650W        W31930  10.253   2.662   1.469 -0.3340  0.0613  0.2172
11651W        W31931  16.375   3.436   3.153 -0.1155  0.0754 -0.2892
11652W        W31932  13.709  11.885   2.217 -0.2293 -0.1327 -0.0861
11653W        W31933  10.113  10.903  14.961 -0.1555  0.1218  0.0708
11654W        W31934   1.623  13.755   1.677  0.0923 -0.0429 -0.2227
11655W        W31935   0.432  17.561   2.760  0.4028 -0.1171 -0.1426
11656W        W31936   0.990   8.526   0.042  0.2694 -0.1010 -0.0618
11657W        W31937   3.664  12.520   4.260 -0.2099 -0.1708 -0.1328
11658W        W31938   0.469   7.088   1.262 -0.1309  0.1446 -0.0601
11659W        W31939   7.407   5.309   1.231 -0.3318  0.2608  0.1562
11660W        W31940  11.019   1.668  14.515  0.0350  0.0709  0.2649
11661W        W31941   2.599  10.524  14.245 -0.1703 -0.1390  0.2878
11662W        W31942  13.256  13.506  13.141 -0.2733  0.0141 -0.0406
11663W        W31943  10.495   0.176   2.925  0.1038  0.0213 -0.1307
11664W        W31944  11.440   5.637   0.200  0.0492 -0.3626  0.2119
11665W        W31945   2.055  17.020  11.148  0.0639  0.1314 -0.2249
11666W        W31946   5.664   5.866  15.258  0.0641 -0.0762  0.0551
11667W        W31947  18.239  11.929   1.536  0.2449 -0.2211  0.0490
11668W        W31948  18.118  10.601  13.110 -0.3109 -0.2188  0.0340
11669W        W31949  13.133   5.145  12.900  0.1138 -0.3850  0.1775
11670W        W31950   4.116   9.415  12.502 -0.2200 -0.0395 -0.0017
11671W        W31951   4.908   9.367   1.789  0.4159  0.4202  0.3063
11672W        W31952   5.590  16.216   0.295 -0.0831  0.0468  0.1357
11673W        W31953  11.076   8.263  14.339  0.0220 -0.1853 -0.1030
11674W        W31954  13.822  17.898  14.758  0.0911 -0.1224 -0.1624
11675W        W31955  15.631   2.380  14.400  0.1439 -0.0603  0.1037
11676W        W31956  10.740   1.053   4.586  0.1098 -0.0029 -0.0503
11677W        W31957   5.090  15.435  14.050 -0.2518 -0.2530  0.1409
11678W        W31958  17.417  18.672   0.491 -0.3594 -0.0896  0.2548
11679W        W31959   9.975  15.210   3.990 -0.2229 -0.0011 -0.2302
11680W        W31960  11.849  16.327  15.072  0.2527 -0.2675 -0.0151
11681W        W31961  12.652  17.208   1.146  0.0033  0.0711  0.1390
11682W        W31962   6.629   3.610   1.806 -0.0377 -0.2516  0.2332
11683W        W31963   4.520   4.195   2.370  0.0171  0.2057 -0.2507
11684W        W31964  14.533  14.027  12.810  0.1722  0.1910 -0.0189
11685W        W31965   5.069   9.790  11.749 -0.0993  0.1262 -0.1536
11686W        W31966   2.330  10.479  12.053 -0.1347 -0.2455 -0.1746
11687W        W31967  18.170   7.645   2.658  0.1955  0.2855 -0.0415
11688W        W31968  10.147   3.985   3.093 -0.2792  0.0270 -0.3668
11689W        W31969   6.156  10.551   4.147  0.1408  0.0765  0.1968
11690W        W31970  13.784  17.830  13.555  0.1924  0.0461  0.1857
11691W        W31971   1.223  17.893   2.321 -0.0955  0.2301 -0.1559
11692W        W31972  15.409   0.728   1.984 -0.2715 -0.2637 -0.2071
11693W        W31973   5.020   0.603   2.856 -0.1939  0.0614  0.0055
11694W        W31974   6.461   7.396  13.394  0.1673  0.1018  0.2637
11695W        W31975  12.562   0.073  13.530  0.0844 -0.1218 -0.2061
11696W        W31976   0.542  15.481   2.123 -0.0255  0.0635 -0.0876
11697W        W31977   9.410   7.174   4.200 -0.0007 -0.1143  0.0684
11698W        W31978  14.999  13.566  11.882  0.2581 -0.3541 -0.0558
11699W        W31979   5.953  13.477   5.550  0.2977  0.0971 -0.0935
11700W        W31980  15.823   3.780   5.148 -0.3090  0.1681 -0.0087
11701W        W31981  13.469   4.230   1.829 -0.0110 -0.3389 -0.0430
11702W        W31982  17.389   0.254   4.179  0.0405 -0.0510  0.0281
11703W        W31983   9.411   6.781   2.635 -0.1703  0.3502 -0.0914
11704W        W31984  15.035   2.483   3.337  0.4875 -0.0017 -0.1185
11705W        W31985  15.858   0.510   1.406 -0.1936  0.1575  0.0616
11706W        W31986   3.341  17.707  14.026  0.0217  0.0901 -0.4604
11707W        W31987   7.434   5.536  14.796  0.2971 -0.1565  0.2064
11708W        W31988  17.300   5.337   0.096  0.1915 -0.0705 -0.1490
11709W        W31989  17.346  13.925  10.592 -0.2977 -0.2400 -0.2480
11710W        W31990  16.214  10.230  13.909 -0.1890  0.6344 -0.1154
11711W        W31991  17.419  15.970   3.469 -0.0737  0.0791  0.0445
11712W        W31992  12.540  11.986  10.945  0.2102 -0.0631 -0.0304
11713W        W31993  12.758   0.821   4.227  0.1711 -0.1768 -0.3849
11714W        W31994   4.533  12.227   0.094  0.0352 -0.0615 -0.2948
11715W        W31995  13.248  10.202   1.238  0.1888  0.3590 -0.1901
11716W        W31996  13.059   9.107   0.127 -0.3263  0.1525  0.0386
11717W        W31997  18.591   4.608   3.070  0.0082 -0.3094 -0.1316
11718W        W31998  17.625   7.368  13.544  0.0996  0.1733  0.1039
11719W        W31999   6.341   9.990   1.432 -0.0392  0.1280 -0.3354
11720W        W32000   8.763   3.878  11.984  0.0517 -0.2370 -0.3162
11721W        W32001  12.630   2.213   2.329 -0.0031 -0.0627 -0.2144
11722W        W32002  11.382   8.541   1.067  0.0211  0.1458 -0.0106
11723W        W32003   0.920   4.277  10.977 -0.1018 -0.0060  0.5834
11724W        W32004  14.776  14.818  10.589  0.1849 -0.1301  0.1574
11725W        W32005  16.794   4.843  10.154 -0.1368  0.2011 -0.0546
11726W        W32006   0.821  13.039  13.688  0.1129  0.0483 -0.1809
11727W        W32007  12.440   0.039   1.101  0.1561  0.3402 -0.0192
11728W        W32008  12.589  12.505   1.367  0.1265 -0.1982 -0.1218
11729W        W32009   0.140  17.975   0.968  0.2278 -0.1595 -0.3138
11730W        W32010  16.597   5.364   3.297  0.0292  0.0513 -0.1910
11731W        W32011   8.018   3.065   0.218  0.1098 -0.0260  0.1383
11732W        W32012   7.850  16.328  14.238  0.1476 -0.1130 -0.2223
11733W        W32013   5.498  16.650   2.855 -0.2231  0.1563  0.0584
11734W        W32014  12.271  17.151   1.692 -0.0657  0.1470 -0.1706
11735W        W32015   3.167  15.099  13.369 -0.0133  0.0835  0.2381
11736W        W32016  17.206   5.793   4.025  0.1226  0.0345  0.1277
11737W        W32017   9.982  17.701  13.413 -0.1605 -0.0006  0.0512
11738W        W32018  13.713   5.601  13.892  0.0127 -0.0485  0.2472
11739W        W32019  12.604   7.666   5.153 -0.1057 -0.0584  0.2200
11740W        W32020   0.879   6.442   2.131  0.1658 -0.0583 -0.1310
11741W        W32021   0.363   7.685  14.033 -0.2353 -0.0788 -0.0479
11742W        W32022  15.106   0.467  14.878 -0.0477 -0.0077 -0.0386
11743W        W32023  10.463  11.935  15.020  0.1336  0.0378 -0.0120
11744W        W32024   3.390   5.603   2.851 -0.3154 -0.1490  0.2786
11745W        W32025  18.271  16.364  10.936 -0.0223 -0.0449  0.2886
11746W        W32026  11.043   2.405  13.339  0.1798 -0.1631 -0.0211
11747W        W32027   8.654  12.524  12.536  0.0792 -0.1302 -0.4117
11748W        W32028   8.881  12.067  14.530 -0.0624  0.3034 -0.0647
11749W        W32029  16.121   7.344  12.743 -0.3569  0.1171  0.2242
11750W        W32030   2.600   4.013  11.114 -0.3429 -0.2296  0.0537
11751W        W32031   9.072   4.312   0.891  0.2006  0.0093 -0.0784
11752W        W32032   7.376  14.834  12.944 -0.0685  0.0332  0.0460
11753W        W32033  11.567   9.290  12.336 -0.3878 -0.1064 -0.1879
11754W        W32034  15.888   1.782  13.245  0.1088  0.1190 -0.1537
11755W        W32035   8.803   4.308   0.281  0.0458  0.0264 -0.3298
11756W        W32036  18.269   2.248  12.430 -0.0548  0.3036 -0.0827
11757W        W32037  12.038   6.128   3.134  0.4451 -0.1699 -0.3088
11758W        W32038   8.169   7.110   0.239  0.2693 -0.0050 -0.3216
11759W        W32039  14.128  12.772  12.423 -0.0368 -0.1724  0.2437
11760W        W32040  15.133  14.367   1.388 -0.2313 -0.1994  0.2173
11761W        W32041  17.448  12.379   3.417 -0.0741 -0.2123  0.2621
11762W        W32042  10.662  17.174  13.506 -0.1900 -0.0011 -0.0394
11763W        W32043   5.815  15.405  11.901 -0.0849 -0.1622  0.1919
11764W        W32044  14.724   3.488   0.368  0.0225  0.1906  0.0359
11765W        W32045  12.028  11.923  11.356 -0.1677  0.0311 -0.0134
11766W        W32046  17.120  16.569   1.287  0.0318  0.0663 -0.0751
11767W        W32047  10.358  12.381  13.217 -0.0398  0.0825 -0.1848
11768W        W32048   9.947  17.395  11.291 -0.0589 -0.2810 -0.0237
11769W        W32049  17.676   0.331   2.700  0.3473  0.1404 -0.0747
11770W        W32050   6.566  11.674  11.365  0.3056  0.1178  0.0869
11771W        W32051  11.345   2.035  12.513 -0.1328 -0.0257  0.1476
11772W        W32052   7.168   8.452   2.382  0.1159 -0.3474  0.1066
11773W        W32053  16.825   2.299   3.579  0.1506 -0.0705  0.0869
11774W        W32054  16.842   2.835  11.337  0.1676  0.0641 -0.0770
11775W        W32055  14.049   3.443  11.223  0.0245 -0.2344  0.0322
11776W        W32056   5.166   6.137  14.640 -0.0214  0.0365  0.2173
11777W        W32057  13.390   0.261  11.649  0.0743  0.1737  0.1977
11778W        W32058   6.137   9.001   3.532 -0.1151  0.0131  0.0868
11779W        W32059  16.045   4.685   1.695 -0.0815  0.1305  0.1112
11780W        W32060   8.258   6.691   0.512 -0.1491  0.2574 -0.0387
11781W        W32061   6.050  11.019  13.338 -0.0667  0.0924 -0.1344
11782W        W32062   8.966   0.607  12.139 -0.3241  0.1851 -0.1471
11783W        W32063   5.266  11.144   3.070 -0.1223  0.0437  0.0318
11784W        W32064   5.984   7.118   3.366 -0.0691 -0.1387  0.0127
11785W        W32065  18.312   4.155  14.716 -0.1089 -0.1578 -0.1197
11786W        W32066   8.056   4.928   3.899  0.0785 -0.3134  0.2641
11787W        W32067  14.953   9.827   0.845 -0.3321  0.0981  0.2120
11788W        W32068   6.714   9.714   2.622 -0.0873  0.1685  0.2661
11789W        W32069   1.539  14.179   1.427  0.6778 -0.0277  0.0577
11790W        W32070  13.520   5.022   0.535  0.2500  0.0269 -0.0789
11791W        W32071   9.859   6.995   4.182  0.1996 -0.0566  0.1818
11792W        W32072  15.906   6.436   1.573 -0.0367 -0.3181  0.0958
11793W        W32073  12.361   3.704  14.170 -0.0852  0.0160 -0.2504
11794W        W32074  10.768   4.525   1.424  0.2720 -0.2481 -0.0082
11795W        W32075   9.368  10.168   2.245 -0.0379 -0.0387 -0.1529
11796W        W32076   5.828   9.095   9.942 -0.2445  0.0368 -0.1968
11797W        W32077  17.126   7.307   1.989  0.4127  0.0878  0.1268
11798W        W32078   8.137  13.142   1.964 -0.1648 -0.0345  0.0201
11799W        W32079  13.429   4.164  12.511  0.0766  0.0312 -0.0452
11800W        W32080   1.289   0.311   1.694 -0.0389  0.2254  0.1897
11801W        W32081   4.477  10.318   0.390  0.2206 -0.1846  0.1145
11802W        W32082  17.576  16.337   3.126 -0.1949 -0.3636  0.2708
11803W        W32083  13.936   2.999  11.403  0.1727 -0.3522  0.3841
11804W        W32084  17.920   6.989   0.455 -0.1364  0.3108  0.1220
11805W        W32085   9.805  15.870   3.381 -0.1263  0.0182  0.2659
11806W        W32086   6.860  16.454  12.221  0.2554  0.4565  0.1741
11807W        W32087   0.204   2.167   3.240 -0.5773 -0.0590 -0.1324
11808W        W32088  10.394   0.158   2.266 -0.1019  0.1059 -0.0161
11809W        W32089  10.476   2.407  13.383  0.0581  0.3139 -0.2845
11810W        W32090   3.437   4.011   3.837  0.1432 -0.0469  0.0311
11811W        W32091   4.729  11.509  14.109 -0.0957 -0.0821 -0.1415
11812W        W32092   2.134  17.660  11.800 -0.1346 -0.1158 -0.0312
11813W        W32093  11.347   6.425  14.523 -0.1389 -0.3210 -0.1219
11814W        W32094   8.069  18.326  14.728 -0.1496  0.0393 -0.0271
11815W        W32095  15.617  18.438   1.898 -0.1282 -0.2757 -0.0024
11816W        W32096   1.149   7.264  11.927  0.3380  0.2096 -0.0891
11817W        W32097  13.400   6.301  12.524  0.4584 -0.0649 -0.1476
11818W        W32098  17.980  10.657   0.324 -0.0599  0.2895  0.1739
11819W        W32099   0.867   0.647  11.620 -0.2040 -0.3457 -0.2594
11820W        W32100   7.884   6.249   3.451 -0.0245 -0.0859  0.0964
11821W        W32101   7.863  12.683   2.213  0.2770  0.2414 -0.0791
11822W        W32102  13.957   0.748   3.286 -0.0042  0.0745 -0.1506
11823W        W32103   8.929   6.408  12.966 -0.0701 -0.1204  0.2672
11824W        W32104  15.926   2.984  14.823 -0.1325  0.0172  0.2183
11825W        W32105   0.512  13.151  10.580  0.1299 -0.0104 -0.1527
11826W        W32106   6.641   0.807  14.420 -0.0494  0.0451 -0.1167
11827W        W32107  10.914  14.549   0.789  0.3271 -0.4374  0.0962
11828W        W32108   0.682   0.147   0.158 -0.3667 -0.0477 -0.1729
11829W        W32109  18.704  14.495  13.894 -0.0363 -0.2331  0.0633
11830W        W32110  10.211  10.821  13.201  0.0420 -0.0365  0.1296
11831W        W32111  11.506  14.903  14.888 -0.5958  0.0604 -0.0179
11832W        W32112  14.893  14.939   1.555  0.1413 -0.0589  0.0866
11833W        W32113  12.224   5.672  11.963 -0.0785 -0.0295  0.1693
11834W        W32114   7.266  15.683   1.023 -0.2399 -0.0071 -0.1220
11835W        W32115  17.843  18.066   2.215 -0.0109 -0.1815 -0.0289
11836W        W32116  14.423   8.929   2.030 -0.1012 -0.1879 -0.1954
11837W        W32117   8.545  15.504   1.164 -0.0210 -0.1101  0.0099
11838W        W32118   1.522  12.086  12.289  0.0809 -0.0691  0.0205
11839W        W32119   0.820   1.483   2.714 -0.0613 -0.2228 -0.1847
11840W        W32120  15.013   8.868  11.744 -0.3477  0.1294 -0.1996
11841W        W32121  17.208  14.375  11.536  0.4552 -0.0690 -0.0481
11842W        W32122   7.015  14.807   0.614 -0.1330  0.3445  0.3246
11843W        W32123  10.950   0.663  11.261 -0.1948 -0.1480 -0.0431
11844W        W32124  15.636   7.959   0.334  0.0523 -0.0837  0.3016
11845W        W32125   8.150  11.825   1.327  0.1145  0.0631 -0.1279
11846W        W32126   3.379  17.652   0.100 -0.1612 -0.3121  0.0317
11847W        W32127  13.400  16.685  15.317 -0.1286 -0.4029 -0.0455
11848W        W32128  17.575  12.782  13.638  0.0190 -0.0242 -0.0718
11849W        W32129   5.785   6.501  13.198  0.0474  0.0156  0.2250
11850W        W32130   5.052   7.770  14.445 -0.3155 -0.0617 -0.1903
11851W        W32131   9.544  11.029   1.132 -0.0044  0.1678  0.1435
11852W        W32132  12.839   7.522  14.439 -0.0221  0.2015 -0.0720
11853W        W32133  12.592  11.929  13.089 -0.2530 -0.0055  0.2463
11854W        W32134  18.007   0.130  14.120  0.1174 -0.3257  0.2157
11855W        W32135  17.980  12.174  12.944  0.4218  0.3689 -0.1103
11856W        W32136  11.673  10.841  11.896  0.0358 -0.1391  0.0743
11857W        W32137   2.157   3.267  12.317  0.4792  0.2084 -0.1379
11858W        W32138   5.206  10.191  10.223 -0.0368 -0.1303 -0.1652
11859W        W32139   6.820  16.539   1.411 -0.2929  0.0638 -0.4347
11860W        W32140   5.879  10.559  15.315  0.2487  0.0339  0.0213
11861W        W32141   7.552   6.603  11.449  0.0818 -0.2245 -0.1142
11862W        W32142  13.534   6.905  13.892 -0.1515  0.0467 -0.0994
11863W        W32143   0.540   8.253   0.872  0.0900 -0.2456  0.1504
11864W        W32144   2.481  13.433   2.027  0.1810  0.0611  0.1791
11865W        W32145   3.352   4.086  14.494 -0.0259  0.1432 -0.2939
11866W        W32146  11.033  15.984  12.030  0.1986 -0.0547 -0.0479
11867W        W32147  17.211  11.514  13.030 -0.0611 -0.1574  0.1043
11868W        W32148   1.002  11.935   0.895  0.3123 -0.0273 -0.2382
11869W        W32149   6.590  18.290  11.012  0.0809 -0.0870 -0.3330
11870W        W32150   1.722  16.155   3.896  0.1713 -0.1712 -0.3517
11871W        W32151   0.020  11.116  14.614 -0.1019  0.1581 -0.1673
11872W        W32152  14.162  15.627  13.024  0.2828  0.0124 -0.2787
11873W        W32153  12.035   6.720   2.055  0.0751 -0.3978 -0.0942
11874W        W32154   1.999  16.004   3.442  0.0618 -0.2008 -0.0581
11875W        W32155   7.950   6.296   4.026  0.1738 -0.0977 -0.2358
11876W        W32156  16.496   4.279  11.951  0.0795 -0.1708  0.5359
11877W        W32157  12.921  10.527  15.371  0.1587 -0.2236 -0.0830
11878W        W32158   0.312  16.189  14.032  0.0626  0.1275 -0.2101
11879W        W32159  13.199  11.234   4.408  0.0904  0.2817  0.2929
11880W        W32160   2.260   5.789  11.696 -0.1538 -0.0017  0.1135
11881W        W32161  14.521   1.460  15.026  0.0353  0.0696 -0.0459
11882W        W32162  16.606  16.232  13.300 -0.0110  0.0314 -0.1584
11883W        W32163   1.340  12.419  15.054  0.4423  0.0339 -0.1559
11884W        W32164   7.116   4.718  15.263  0.2468  0.1834  0.3778
11885W        W32165  13.718   8.718   0.747 -0.0665 -0.1671  0.2258
11886W        W32166   7.212   2.034  11.357 -0.2003  0.0350 -0.0176
11887W        W32167   5.079   4.514  13.749  0.3453 -0.1943  0.1660
11888W        W32168  11.321   1.016  12.180  0.0105  0.0640  0.0360
11889W        W32169  16.796   6.189   3.069  0.3605  0.2218 -0.2641
11890W        W32170   7.637   8.344  11.577  0.2047  0.0492 -0.0693
11891W        W32171   1.018  11.037   4.105 -0.0805 -0.1303 -0.1750
11892W        W32172   8.436   8.688  13.027 -0.2657 -0.2713  0.0449
11893W        W32173  14.843   0.003  12.403  0.1917  0.0776  0.0584
11894W        W32174  10.321  15.447  15.071  0.0185  0.2727 -0.2562
11895W        W32175   4.820   6.146  13.649  0.0037 -0.2321 -0.1995
11896W        W32176  13.982   0.222   3.308 -0.0883  0.3040 -0.0196
11897W        W32177  10.933   9.458   4.505  0.1298  0.2644 -0.0401
11898W        W32178   9.356   2.572  12.187  0.0252  0.0398 -0.0595
11899W        W32179   3.745   2.882   4.087  0.0327  0.0422  0.0680
11900W        W32180   1.743   0.565  12.892  0.1794  0.0890 -0.0987
11901W        W32181  12.495   8.931  14.737 -0.1593 -0.1652 -0.2370
11902W        W32182  12.378  13.252  14.588 -0.1992  0.0345  0.2762
11903W        W32183   3.760   7.039   3.465  0.0954 -0.1196  0.0718
11904W        W32184   5.483   4.828  13.556 -0.1078 -0.1988 -0.0689
11905W        W32185   0.737   7.230   0.296 -0.0761  0.3478  0.2847
11906W        W32186   2.167   5.296   1.726 -0.0814  0.0677  0.1478
11907W        W32187  15.113   3.667  11.827 -0.1531 -0.2716  0.0055
11908W        W32188  17.987   2.765  12.752  0.3135  0.1336  0.0687
11909W        W32189   8.405   8.505   1.826 -0.0353  0.2428  0.0131
11910W        W32190   8.084   7.705  12.227 -0.1544 -0.0727  0.2307
11911W        W32191   1.444  14.231   2.428  0.2417  0.1135 -0.1268
11912W        W32192   4.334  10.341   0.935  0.1108 -0.0190  0.2788
11913W        W32193   4.877  10.368   1.161 -0.1532  0.5084  0.1488
11914W        W32194  11.425   7.241   0.469  0.1154 -0.1881 -0.0662
11915W        W32195  14.813  12.874   3.550 -0.0613 -0.1193  0.0185
11916W        W32196   4.510   6.848  15.032 -0.1603  0.4337  0.1605
11917W        W32197  18.659   1.046   0.780  0.3509  0.0491  0.1087
11918W        W32198   7.306  12.141   4.360 -0.4592  0.2166 -0.1117
11919W        W32199  13.947   6.992   0.001 -0.0771 -0.1221 -0.3977
11920W        W32200   1.705   8.703   3.982  0.0350 -0.3417  0.1731
11921W        W32201   6.169   9.204  14.017 -0.1336  0.2525 -0.0410
11922W        W32202   0.033   3.943   1.016  0.0429 -0.0507  0.1937
11923W        W32203   4.572  13.575  13.219 -0.3852 -0.0811  0.0390
11924W        W32204   1.459   8.690   4.432 -0.0399 -0.0626 -0.2517
11925W        W32205   2.592  15.013   4.010 -0.0734 -0.3580  0.0528
11926W        W32206   5.550   3.390   0.195 -0.2145  0.0529 -0.1337
11927W        W32207  15.773   0.584   2.848  0.2268  0.0375 -0.0411
11928W        W32208  14.523   1.980  12.110  0.2146 -0.1330  0.0713
11929W        W32209  13.507  13.784   2.984 -0.1850  0.2153 -0.0362
11930W        W32210   0.061   6.573   0.651 -0.0191  0.2596 -0.0063
11931W        W32211   2.687  11.789   3.297 -0.2049  0.2563  0.1119
11932W        W32212  16.195   4.828   2.358 -0.1006 -0.0313 -0.2362
11933W        W32213   8.460  16.329  11.175  0.0292 -0.1189  0.3546
11934W        W32214  18.462   7.247  14.096  0.0624  0.3002  0.1353
11935W        W32215  12.618  14.817   2.680 -0.1758 -0.3979  0.2537
11936W        W32216   8.056  18.375  14.277  0.0926  0.0720  0.2071
11937W        W32217   9.088  10.518   2.598 -0.0329  0.3344 -0.0743
11938W        W32218  12.993   9.225   5.854 -0.3229  0.0315 -0.1733
11939W        W32219  10.294   6.316  13.247  0.0586  0.4414  0.0480
11940W        W32220  18.590   6.448   0.079  0.1374  0.0620 -0.1205
11941W        W32221  12.066  10.516   3.840  0.3102 -0.2479 -0.1091
11942W        W32222   3.689   1.014   0.884  0.1687 -0.4420 -0.0311
11943W        W32223  13.569  16.136  14.024 -0.0506 -0.0069 -0.1884
11944W        W32224  11.521   7.923   3.199 -0.1261  0.0180  0.2394
11945W        W32225  16.123  10.486  14.661 -0.0634 -0.0500  0.0217
11946W        W32226   3.142  14.180  14.956 -0.1508 -0.0759 -0.1291
11947W        W32227   9.514  16.952   1.337  0.2148 -0.1194  0.1095
11948W        W32228  17.941  16.958   1.374  0.1050 -0.0473 -0.0806
11949W        W32229   3.123  14.478  14.555  0.3086  0.2636 -0.2365
11950W        W32230   3.618   3.833   0.447  0.1096 -0.1294  0.0080
11951W        W32231  15.829  11.552  13.763  0.0209 -0.1382  0.1517
11952W        W32232  17.299   9.672   4.311  0.1346 -0.4053 -0.1512
11953W        W32233   0.233  18.340  12.262  0.2647 -0.2296 -0.1360
11954W        W32234   2.574   8.498  13.384  0.6251 -0.0324  0.1929
11955W        W32235   1.957   6.339  12.926 -0.2216 -0.3263  0.0392
11956W        W32236  12.645  12.990  10.879 -0.1459 -0.1829 -0.1626
11957W        W32237  10.593   4.242   3.016  0.0597  0.1005  0.0942
11958W        W32238   9.543   6.923  11.684  0.0780  0.3407  0.1352
11959W        W32239   0.947   5.159  12.929 -0.1572  0.0206  0.1820
11960W        W32240  13.064   5.997   4.103  0.0289 -0.4337  0.0044
11961W        W32241   5.842  11.882   3.808  0.0136  0.1767 -0.2461
11962W        W32242   5.319  16.460   3.758  0.2258 -0.1242  0.1457
11963W        W32243   4.350   3.758  11.498 -0.0093  0.0584 -0.0758
11964W        W32244   6.970   7.024   1.800  0.0101  0.0205  0.0415
11965W        W32245  17.232   0.534  11.924  0.1522  0.0035  0.1418
11966W        W32246   8.012   3.128  13.990  0.1253  0.1756  0.1553
11967W        W32247  13.202  18.214  11.393 -0.1612 -0.1585 -0.1178
11968W        W32248   6.570  15.260  12.134  0.4950  0.0359  0.2015
11969W        W32249  11.987  14.566   1.989  0.5427  0.1976 -0.0754
11970W        W32250   4.665   0.066  11.538 -0.0780 -0.0464  0.0503
11971W        W32251   4.329   8.917  10.724  0.0518  0.0085 -0.1336
11972W        W32252  10.547  15.734   2.128  0.1075 -0.1972 -0.0528
11973W        W32253   3.171  16.657  14.815 -0.0518  0.1690 -0.0533
11974W        W32254  16.453  17.558   4.225 -0.1324 -0.0030  0.0401
11975W        W32255   9.659   4.488  13.897 -0.2370  0.2224  0.1834
11976W        W32256  10.938  17.833  11.217  0.1522  0.1136 -0.1187
11977W        W32257  15.498  10.626  12.668 -0.0487 -0.0070 -0.0396
11978W        W32258  18.659   5.915  14.093 -0.1691  0.0746  0.4156
11979W        W32259  11.976   1.902  14.382  0.3980  0.3591  0.0250
11980W        W32260  14.412   0.845  14.979 -0.3417  0.1267 -0.2183
11981W        W32261   4.215  13.879  13.047  0.1798  0.3880 -0.0377
11982W        W32262  15.191   7.827   0.027 -0.2435 -0.0550 -0.1450
11983W        W32263  17.278   6.132   1.902  0.5250  0.0913  0.0641
11984W        W32264  17.149  14.066   4.420 -0.0896  0.0191  0.1256
11985W        W32265  12.083   4.912   3.716  0.2721  0.0848 -0.1703
11986W        W32266  13.262  15.838  11.490 -0.3182  0.1100  0.1833
11987W        W32267   3.051   8.825   0.238  0.0331 -0.2397 -0.2552
11988W        W32268   0.129  17.458   0.685 -0.1091  0.0280 -0.1475
11989W        W32269   8.746   0.147  11.852  0.0758 -0.0047 -0.1054
11990W        W32270   7.987   8.656  13.220  0.0071  0.1659  0.1368
11991W        W32271   8.329   1.960  10.845  0.0472  0.0474 -0.0913
11992W        W32272  16.398   5.852  13.062 -0.1340  0.0535  0.4160
11993W        W32273  14.267   4.397  14.534  0.1720 -0.0232  0.3240
11994W        W32274   4.428   6.028   0.585  0.0968 -0.0784  0.1761
11995W        W32275   3.248  16.146   1.480 -0.1991  0.1772  0.2572
11996W        W32276  15.219  16.145  12.307  0.0741 -0.1657  0.0521
11997W        W32277   9.108  14.875   1.024 -0.0880  0.0303 -0.0823
11998W        W32278  13.848   0.639   0.230  0.0205  0.1171  0.0699
11999W        W32279   3.015  12.236  12.797 -0.3167  0.0770  0.3084
12000W        W32280   0.817   4.608  14.297 -0.2110 -0.0823  0.1440
12001W        W32281   6.875  13.300  13.085  0.1368  0.1194 -0.1004
12002W        W32282  15.829  15.096  10.816 -0.0694 -0.0950  0.0558
12003W        W32283   9.768  11.405   2.880 -0.0297 -0.2058 -0.2719
12004W        W32284   6.107   6.015   3.880  0.2564 -0.1465 -0.0235
12005W        W32285  12.467  15.935  13.447 -0.0811 -0.0701 -0.0616
12006W        W32286   2.944   5.525  12.592 -0.2486 -0.0259  0.1540
12007W        W32287  16.930   7.516   1.500 -0.1454  0.1714 -0.1454
12008W        W32288   0.499  10.127   1.744 -0.4794  0.0200  0.2551
12009W        W32289  16.636   2.215   1.128  0.0731  0.1585  0.2295
12010W        W32290  17.022   9.479   2.116  0.0677  0.0054  0.3064
12011W        W32291  15.128  16.871  13.329 -0.1000  0.2919 -0.1309
12012W        W32292  15.972  17.101   2.456  0.1719  0.1655 -0.3260
12013W        W32293  13.063  10.252   0.712 -0.1218 -0.1610 -0.0318
12014W        W32294  11.864  14.453  10.158 -0.0279 -0.1130 -0.3401
12015W        W32295  12.484   4.407  11.479 -0.4102 -0.0063  0.0857
12016W        W32296   7.323   0.143  11.839 -0.1906 -0.1704  0.0256
12017W        W32297   8.401   9.537  13.546 -0.0789 -0.1247  0.2714
12018W        W32298   4.234   4.493  14.240 -0.1882  0.0205 -0.1048
12019W        W32299  12.275  10.226  14.237 -0.0610  0.2018 -0.4145
12020W        W32300   3.059  12.732  12.613 -0.2399 -0.0487  0.1855
12021W        W32301   1.063  15.938   0.388  0.3045  0.1154 -0.0091
12022W        W32302  14.518  13.946  11.837 -0.0610 -0.1381  0.0220
12023W        W32303  11.934  13.972  14.926  0.1480 -0.1965  0.2472
12024W        W32304  13.667   6.472   2.075  0.0224  0.3493 -0.0647
12025W        W32305   6.116   9.286   4.140  0.1112  0.3666  0.1885
12026W        W32306  13.120   1.315  15.328  0.0413  0.2493 -0.0222
12027W        W32307   8.239   1.373   0.402  0.2211 -0.0783 -0.0003
12028W        W32308  13.382  13.148  10.345  0.0468  0.3842  0.0214
12029W        W32309  10.298   8.802  15.013  0.0307 -0.2220  0.0050
12030W        W32310   3.223  16.797   4.395 -0.1989 -0.0150  0.0530
12031W        W32311  16.841  16.550  10.922 -0.0216  0.1251 -0.1819
12032W        W32312  11.890  15.353  14.046 -0.1197  0.0681 -0.1571
12033W        W32313   2.391   4.304   3.913  0.1549  0.0021  0.1177
12034W        W32314   0.756  14.034  13.793  0.1040  0.3947 -0.0630
12035W        W32315   7.350  16.174  12.143  0.0240  0.0088 -0.0088
12036W        W32316   6.650  15.994  11.027 -0.0110  0.2140  0.1414
12037W        W32317  10.570  10.046  14.787 -0.0264  0.0156  0.0288
12038W        W32318   9.833  10.706   1.622 -0.0939  0.0326  0.0689
12039W        W32319  11.464   6.248   2.573  0.2960  0.1397 -0.0837
12040W        W32320   3.507   4.206   4.777 -0.0492  0.7353  0.1738
12041W        W32321  18.031   6.960   3.566  0.0600 -0.1412 -0.0010
12042W        W32322  12.416   8.852   2.296  0.3182 -0.2170  0.1633
12043W        W32323   8.386  11.189  15.046  0.0755 -0.2575  0.0320
12044W        W32324  16.019  17.193  12.139 -0.0891 -0.1863 -0.0168
12045W        W32325  15.225  15.960   1.116 -0.1715  0.0601  0.2046
12046W        W32326  16.128   1.678   3.597 -0.2420 -0.0464  0.1405
12047W        W32327   8.435  16.911  12.700  0.2994 -0.1238 -0.1098
12048W        W32328   9.525  16.943  14.464  0.0401  0.4890 -0.2824
12049W        W32329  12.636   3.819  11.849 -0.2799  0.3057 -0.1117
12050W        W32330   7.498  11.128   2.416  0.1996 -0.0685  0.2617
12051W        W32331   4.116   5.708  13.012  0.0400  0.3115  0.1516
12052W        W32332  18.418  16.883   1.558 -0.4288  0.0415 -0.0928
12053W        W32333  15.055  16.602  12.837  0.1865  0.1981 -0.3575
12054W        W32334   9.954  11.527  10.732 -0.0431  0.2968  0.1273
12055W        W32335  11.872   0.762  11.279  0.0018  0.0776 -0.2330
12056W        W32336  11.243   4.648   1.419 -0.1445 -0.0234 -0.0086
12057W        W32337   7.299  15.637   3.009 -0.1948 -0.1018  0.0846
12058W        W32338  12.575   7.046  14.607  0.1740 -0.2212  0.1233
12059W        W32339  14.425   7.115  14.227 -0.0461  0.1240  0.1403
12060W        W32340   7.324  12.360   3.136  0.0943 -0.1237 -0.3105
12061W        W32341   4.717  12.975  13.712  0.3133 -0.1373 -0.0938
12062W        W32342  16.652   2.127   0.323 -0.2922  0.4265 -0.0057
12063W        W32343   6.772   1.957   2.339 -0.1190  0.0904  0.0262
12064W        W32344  12.678  18.637   1.711  0.0465 -0.1730 -0.2696
12065W        W32345   5.553  14.420  15.129 -0.0350  0.0275  0.2036
12066W        W32346   3.494   6.869   1.537  0.3977  0.0213 -0.0514
12067W        W32347  12.083   5.882   1.352  0.2669 -0.0106 -0.0754
12068W        W32348  15.939   8.303   2.022  0.2350 -0.3350  0.0879
12069W        W32349  16.655  12.312   0.677  0.0583  0.2832  0.1470
12070W        W32350  14.639   8.402  13.692  0.2344 -0.2440  0.0103
12071W        W32351   4.968  16.390  10.956 -0.1980 -0.0301  0.1776
12072W        W32352   0.540  16.292   4.676  0.1988  0.3093 -0.0128
12073W        W32353  10.850   4.914  12.393 -0.0889  0.0700  0.0565
12074W        W32354  13.273   3.477   1.894 -0.0975 -0.1698  0.0663
12075W        W32355   7.293  16.253  15.226 -0.1737 -0.3660 -0.2575
12076W        W32356  11.331   7.304  13.253 -0.0005 -0.2262 -0.0355
12077W        W32357  14.986  15.900  13.435 -0.1469 -0.1974 -0.0448
12078W        W32358   2.229  10.874   4.156 -0.2014 -0.1284  0.0222
12079W        W32359   4.700  14.820  12.569  0.1098  0.1321  0.0380
12080W        W32360   2.996   1.297  15.103  0.3356 -0.4252  0.2529
12081W        W32361   3.547  18.115  13.938 -0.1685 -0.2135  0.1430
12082W        W32362   4.033   3.230  11.753 -0.1065  0.0357  0.6296
12083W        W32363  10.347  10.487  14.803 -0.0859  0.0339  0.0755
12084W        W32364  18.020   8.980   2.346 -0.0777 -0.1213 -0.0787
12085W        W32365   1.046  11.345  14.397  0.0381  0.0388 -0.1268
12086W        W32366   8.901   8.524   3.595 -0.2505 -0.1602 -0.1166
12087W        W32367   8.505   1.897   2.084  0.2890  0.0305  0.2593
12088W        W32368   6.941   9.129  15.390 -0.1563  0.1786  0.3180
12089W        W32369  12.634   7.782   2.699 -0.0183 -0.2765  0.0292
12090W        W32370   0.125   4.071  14.453  0.2289 -0.0910  0.0281
12091W        W32371  10.888   3.046  14.633  0.1333  0.1765  0.2331
12092W        W32372  16.449  18.216   3.653  0.0459 -0.1831 -0.1777
12093W        W32373  10.292  11.636   2.746 -0.0624  0.0814 -0.2367
12094W        W32374   0.429  10.707  14.505 -0.3564  0.2251  0.0695
12095W        W32375   2.925   3.299   0.685  0.0773 -0.4257 -0.0178
12096W        W32376  11.429  18.031   3.256  0.1418 -0.0994 -0.1141
12097W        W32377   0.366   3.954   2.033 -0.1848 -0.1348  0.4587
12098W        W32378   6.833   0.163  15.337  0.0079 -0.2341 -0.2587
12099W        W32379  14.491  11.040  13.470  0.0753  0.0332 -0.2853
12100W        W32380   0.155  10.384   1.465  0.1340 -0.1094  0.1837
12101W        W32381   6.995  18.050   9.408  0.0496  0.0842  0.0804
12102W        W32382   5.148   8.122  12.512 -0.1658 -0.0715  0.0831
12103W        W32383  15.730  17.431  11.231  0.1357  0.3985  0.0962
12104W        W32384   5.470   8.414   1.699 -0.2791 -0.0243  0.1327
12105W        W32385   3.083  14.927   0.716  0.0542 -0.1853 -0.1390
12106W        W32386   6.014   7.492  14.762  0.1687  0.0378  0.1202
12107W        W32387  17.170   3.718   1.473 -0.0358 -0.1185 -0.1445
12108W        W32388   9.981   8.636   3.056  0.2225 -0.0341  0.2116
12109W        W32389   3.627  11.642  11.680  0.1872 -0.0065 -0.3218
12110W        W32390  13.067   8.732   3.297  0.0354  0.1288 -0.0984
12111W        W32391  17.371   6.403  13.562  0.1307 -0.0496 -0.0650
12112W        W32392  11.348   9.932  13.430  0.0242 -0.2622  0.0256
12113W        W32393   6.124   3.857  11.474  0.2335 -0.1104  0.0516
12114W        W32394  11.682  15.759   0.704  0.0708  0.0697 -0.2190
12115W        W32395  16.413   1.869  13.100  0.0105 -0.0839  0.0632
12116W        W32396   1.283   3.898  11.717 -0.0132  0.1585 -0.0873
12117W        W32397   2.171  18.332  12.111  0.2953  0.0610  0.4854
12118W        W32398  10.847  13.524   0.212  0.0410 -0.0751  0.0803
12119W        W32399   9.736   1.200   2.232  0.2367 -0.2081 -0.0620
12120W        W32400  16.223   2.796   1.934  0.2601  0.0246 -0.5848
12121W        W32401  13.228  11.024  12.334  0.2147  0.1079  0.2647
12122W        W32402   9.280   9.661   0.195  0.0401  0.2612 -0.0102
12123W        W32403   1.317   8.096   0.915 -0.2416  0.0667  0.5130
12124W        W32404   1.642   8.478   0.929 -0.1743  0.0517 -0.0104
12125W        W32405  15.661  16.685  14.003  0.3120  0.0613 -0.0534
12126W        W32406   0.496  18.308   3.334 -0.0739  0.2201  0.1712
12127W        W32407  15.146  14.267   4.565  0.2570 -0.1044 -0.5255
12128W        W32408   4.429   0.509   0.382 -0.1348  0.0954 -0.0790
12129W        W32409  17.469   6.559  11.697 -0.2427  0.1929 -0.0587
12130W        W32410   1.647  18.506   3.005  0.0762  0.0093 -0.0442
12131W        W32411  15.786   4.449   3.086  0.1366 -0.2407  0.0635
12132W        W32412   5.712  12.917  14.245  0.1031 -0.1969 -0.1303
12133W        W32413  14.896   4.020  14.060  0.1747 -0.2157  0.3044
12134W        W32414  17.207  14.098  12.881  0.1247 -0.1843  0.1169
12135W        W32415  11.529   1.335  13.852 -0.2604 -0.0363  0.1751
12136W        W32416  16.303  17.480   3.345  0.0573  0.0567 -0.3076
12137W        W32417  18.211  12.443   1.309 -0.0424 -0.0459  0.1043
12138W        W32418  15.530   7.805   2.614  0.4073  0.0680 -0.0115
12139W        W32419  11.950   2.710  13.253 -0.1251 -0.0613 -0.0861
12140W        W32420   7.928   8.744   1.201  0.2836 -0.1417  0.0267
12141W        W32421  17.019   4.186   1.892 -0.0603  0.0122  0.0009
12142W        W32422   6.964   3.221   0.582  0.1365  0.1965  0.2263
12143W        W32423   3.160   1.809  11.116  0.0388  0.0003 -0.0791
12144W        W32424  11.782   0.283  13.919  0.0506  0.3485  0.1018
12145W        W32425  18.602  17.354   0.328  0.2074 -0.1244  0.2879
12146W        W32426  12.647  17.609  12.873 -0.2462 -0.0393 -0.1545
12147W        W32427   5.182  16.422  13.523  0.0769 -0.2642 -0.2908
12148W        W32428  12.331   5.643  12.867 -0.1776  0.1994 -0.2306
12149W        W32429   2.548   1.257  14.414 -0.3326  0.3670 -0.0416
12150W        W32430  13.907   1.687   4.010 -0.3056 -0.2562 -0.1161
12151W        W32431   0.844   3.443   3.479 -0.1492  0.1238  0.0289
12152W        W32432  16.549   5.460   4.568 -0.3621 -0.1711  0.1488
12153W        W32433   6.736   5.162   4.089 -0.1359  0.0694  0.0563
12154W        W32434  16.310  16.985   3.608 -0.1105  0.2356 -0.1586
12155W        W32435   1.166   5.257   4.392  0.0408  0.0555  0.1576
12156W        W32436   6.301   1.957   2.524  0.1337 -0.0001 -0.1238
12157W        W32437  10.824   2.247   3.033  0.2417 -0.0237  0.1464
12158W        W32438  12.258   6.334  14.926 -0.3323 -0.3025  0.0886
12159W        W32439  10.708   3.724  14.886  0.0907 -0.1322 -0.0224
12160W        W32440   2.266  17.858   0.143  0.2767 -0.1262  0.1393
12161W        W32441   0.808   1.854  14.010  0.0100 -0.1123  0.2192
12162W        W32442   6.458  17.554  11.878 -0.2644 -0.2877  0.2808
12163W        W32443   1.631  11.129  10.668 -0.0817  0.0328 -0.1608
12164W        W32444  16.161  10.912   4.018 -0.0043  0.0543  0.2436
12165W        W32445   5.858   9.087  12.068 -0.2648  0.1271 -0.0810
12166W        W32446   0.279   6.921   2.494  0.0791 -0.2365  0.0079
12167W        W32447   1.321  17.575   0.143 -0.2110  0.1976 -0.1654
12168W        W32448   3.314   7.637  14.962 -0.0860 -0.0734 -0.1505
12169W        W32449  12.572  14.987  15.313 -0.2962  0.3043  0.2595
12170W        W32450   7.405   1.209  11.898 -0.0745  0.0288  0.0773
12171W        W32451   3.411  12.890   4.435 -0.0182 -0.0945  0.1341
12172W        W32452  11.025  16.707   3.959 -0.3263 -0.0046 -0.3024
12173W        W32453  14.513   4.057  13.573  0.0017 -0.2370 -0.0398
12174W        W32454   5.463   5.807  12.171  0.2840  0.1512  0.2440
12175W        W32455  13.506  16.698   3.518 -0.0182  0.2033 -0.2713
12176W        W32456   2.579   9.670   2.402  0.0195 -0.2867 -0.2525
12177W        W32457   3.581  17.204   0.196 -0.1604 -0.0644  0.0765
12178W        W32458  15.929  12.066  11.417 -0.1669  0.1982 -0.0937
12179W        W32459   2.378   1.337   0.668  0.2480  0.0580  0.2764
12180W        W32460  18.166  16.280  11.431  0.5284 -0.2571 -0.1612
12181W        W32461  16.106  12.490  14.558 -0.0456 -0.1352 -0.3163
12182W        W32462  13.734   3.624   3.372  0.0486  0.0198 -0.0136
12183W        W32463   8.146   0.078  12.440 -0.2195 -0.2302  0.2569
12184W        W32464  16.932  13.548  11.726 -0.3016 -0.1239 -0.1339
12185W        W32465  15.356  13.005   0.334 -0.0487 -0.2368 -0.0557
12186W        W32466   0.559  11.827   1.405 -0.2297 -0.1243  0.1145
12187W        W32467  17.339   4.602  12.586  0.3844  0.2704 -0.0753
12188W        W32468   3.706   0.689   1.291 -0.2461 -0.0040  0.2591
12189W        W32469  17.866   1.846   3.012 -0.1670  0.1274 -0.0107
12190W        W32470   9.641  10.928   4.158 -0.0042  0.3334 -0.3245
12191W        W32471  16.707  10.559   3.392 -0.0199 -0.1862 -0.4711
12192W        W32472  18.554   7.782  12.724  0.2543  0.1968 -0.1120
12193W        W32473   4.292  11.401  13.892 -0.0001  0.1421 -0.0428
12194W        W32474  14.213  13.869   1.601  0.0258  0.2610  0.1197
12195W        W32475  13.748   9.751  12.141 -0.1318  0.1233 -0.1510
12196W        W32476  14.771  10.148  12.119 -0.0221 -0.0410  0.0392
12197W        W32477   5.832   8.523   4.201  0.4478 -0.0883 -0.0044
12198W        W32478  10.288  10.236   4.378 -0.2057  0.0300 -0.0826
12199W        W32479   9.478   6.127   1.031  0.1264  0.1123  0.2350
12200W        W32480  14.058  13.896   2.886 -0.0540 -0.1429  0.2289
12201W        W32481   9.244  11.920   2.941  0.1415  0.1424  0.1842
12202W        W32482   7.493  13.270  11.454  0.1432  0.3930  0.0497
12203W        W32483  11.544  17.283  13.459  0.2235 -0.0626  0.1778
12204W        W32484  18.449   4.510  13.478 -0.1628  0.0800 -0.0693
12205W        W32485  15.354   3.268   0.203 -0.2887 -0.2934 -0.2135
12206W        W32486  17.035   0.447   3.440 -0.1313  0.0557 -0.1236
12207W        W32487  14.246  14.754   3.696  0.0586  0.1233  0.0035
12208W        W32488   0.362   6.179   1.798 -0.2251 -0.0556 -0.0763
12209W        W32489   7.574  11.377  12.386 -0.1918  0.2584 -0.4740
12210W        W32490   7.863  15.474   2.828 -0.1336  0.2539 -0.1423
12211W        W32491  18.103  11.702  12.890  0.0363  0.2300  0.0780
12212W        W32492  18.364   1.026  12.457 -0.1516 -0.2514  0.0770
12213W        W32493   7.190   0.431   0.136 -0.3342 -0.2807 -0.3378
12214W        W32494   3.603   5.725  12.659  0.0564  0.1999 -0.0765
12215W        W32495   1.748   2.438  13.196  0.0751 -0.2977  0.1289
12216W        W32496  16.297  10.986   0.564  0.0624 -0.0448 -0.0311
12217W        W32497   1.626   8.009  12.420  0.2102 -0.0298  0.1159
12218W        W32498   8.782  11.288   0.886 -0.3069 -0.0938 -0.1875
12219W        W32499   5.833  13.412  12.033  0.0307 -0.0216 -0.0030
12220W        W32500  11.470   2.820  14.030 -0.1579 -0.0775  0.1040
12221W        W32501  14.025   5.993   3.582  0.3000 -0.2099  0.3169
12222W        W32502  16.034   9.594   2.797 -0.0240 -0.0913  0.1173
12223W        W32503  11.907   5.303  11.769  0.0364  0.0183 -0.3245
12224W        W32504   6.468   8.159  13.869  0.3384 -0.1431 -0.2740
12225W        W32505  14.712   6.773   1.705 -0.0164  0.0688  0.0936
12226W        W32506   9.952   6.757   4.652  0.0891 -0.1320 -0.1469
12227W        W32507  11.947  11.279  11.321 -0.2217 -0.4841 -0.3865
12228W        W32508  16.201  18.378   4.478 -0.0408  0.0420 -0.0688
12229W        W32509   1.397  12.750  14.308  0.0551  0.1501 -0.4049
12230W        W32510   6.324   0.278   3.889 -0.0490  0.1298  0.0984
12231W        W32511   3.928   8.835  11.046 -0.3838 -0.4901  0.2652
12232W        W32512   8.415   2.136  14.682  0.0233 -0.0684 -0.0064
12233W        W32513   4.314   7.523   2.262  0.1957  0.0636 -0.2985
12234W        W32514  16.432  11.500  14.565  0.0618  0.1028 -0.0411
12235W        W32515   1.111   8.231   2.672  0.0699  0.0239 -0.1961
12236W        W32516  12.011  13.877   4.097 -0.1708 -0.0062 -0.1978
12237W        W32517   2.686   9.272  11.298  0.0981  0.1193 -0.1688
12238W        W32518   4.105   1.741  11.120  0.0074  0.2685  0.0589
12239W        W32519   3.609   2.599   0.191  0.0258 -0.0497  0.1472
12240W        W32520   4.282  17.973   3.126  0.1730 -0.0257  0.0315
12241W        W32521   4.757   5.768   0.303  0.1616 -0.0638  0.3089
12242W        W32522   0.103  16.624  13.883  0.1240  0.1693  0.2547
12243W        W32523  18.350   1.005   3.536 -0.1711 -0.0459 -0.2400
12244W        W32524   7.936  12.534  12.004  0.1915 -0.0489 -0.1532
12245W        W32525   8.099  14.155   2.135 -0.0004  0.1023  0.0830
12246W        W32526   2.019  15.092   0.212  0.1102 -0.0071  0.1793
12247W        W32527  14.936   9.904   2.561 -0.2206 -0.2169  0.0051
12248W        W32528  12.247   0.432  11.229  0.2763  0.0591 -0.2419
12249W        W32529  13.867  18.605   2.981  0.1938  0.1595 -0.2060
12250W        W32530   3.587   3.898  13.023 -0.2728 -0.2099  0.0176
12251W        W32531   5.977  15.694  13.602  0.0144 -0.0351 -0.1732
12252W        W32532  14.609  12.439  13.764 -0.4464 -0.0043 -0.0959
12253W        W32533  12.142  12.322  14.029  0.2371 -0.2374 -0.3219
12254W        W32534   8.385   4.444  13.832  0.2600 -0.0325  0.2338
12255W        W32535  15.237  17.079   1.862 -0.0759 -0.1466 -0.2851
12256W        W32536  12.510  12.427  10.034  0.1335  0.0121 -0.2354
12257W        W32537   8.904  18.537  12.748 -0.1186  0.3256 -0.2302
12258W        W32538  17.687   0.570  12.791  0.1039 -0.0183  0.1620
12259W        W32539   1.780  13.903   3.754  0.1084  0.1375 -0.0086
12260W        W32540   9.557  15.322  12.232 -0.2944  0.0654 -0.0178
12261W        W32541   7.882  15.185   0.040  0.1610  0.0558  0.0605
12262W        W32542  10.908   1.986   0.037  0.0710  0.2213  0.2997
12263W        W32543  16.889   4.998  14.104 -0.0725 -0.0431 -0.0116
12264W        W32544   8.389  12.418  12.124  0.0166  0.2970 -0.0349
12265W        W32545   2.214  15.091   0.722  0.0045  0.2817  0.1430
12266W        W32546  13.891   4.594   2.668  0.2709  0.0106  0.2332
12267W        W32547  14.615   4.136   3.266 -0.0412 -0.0348 -0.0463
12268W        W32548  15.036   9.122   4.545  0.4016  0.4699 -0.0231
12269W        W32549  15.200  18.353   3.622 -0.2054  0.0848  0.0499
12270W        W32550  10.430   5.491  13.172 -0.4198  0.0181  0.0413
12271W        W32551   6.827  17.465  13.608 -0.3131 -0.0419 -0.1455
12272W        W32552  12.006   5.416   3.562 -0.0103 -0.2435  0.1913
12273W        W32553   3.744   7.848   0.123  0.0959  0.1445 -0.0177
12274W        W32554  10.632   5.277   0.748  0.1859  0.0595 -0.0151
12275W        W32555   5.602   8.848   2.050 -0.1717 -0.2404 -0.0697
12276W        W32556   6.729   5.257  14.601 -0.0536 -0.1912  0.1229
12277W        W32557  12.340   5.384  11.538  0.1532 -0.2119  0.1502
12278W        W32558   5.810  12.064  14.856  0.2534  0.1003 -0.0451
12279W        W32559  18.130  13.515  14.062  0.1253 -0.1089 -0.2257
12280W        W32560  12.260  10.898  13.681  0.1783 -0.0403  0.0108
12281W        W32561   7.084  13.970  11.696  0.0384  0.2240  0.1407
12282W        W32562  13.813  12.939  12.770  0.0279  0.0051 -0.0420
12283W        W32563   1.224   6.075   2.169  0.0452  0.1200 -0.2300
12284W        W32564   7.619   5.066   3.605 -0.2047 -0.0620  0.0479
12285W        W32565   4.042  18.670  15.033  0.1983 -0.0564  0.2278
12286W        W32566   5.265  11.352   4.279 -0.1178 -0.1779 -0.0946
12287W        W32567   9.369   9.469  11.516 -0.1745 -0.0019 -0.0803
12288W        W32568   0.038   1.785   1.452  0.0336  0.0857  0.0059
12289W        W32569  13.802   6.795   2.453  0.0220 -0.0297 -0.0889
12290W        W32570   9.150  13.581  12.565 -0.0656 -0.1243 -0.1077
12291W        W32571  16.311  10.649  14.145  0.1521 -0.0147  0.1945
12292W        W32572  11.489   0.894  11.637 -0.1994  0.0059  0.0783
12293W        W32573   1.400   6.734  11.541 -0.0020  0.0415 -0.1117
12294W        W32574   2.189  14.825  10.846 -0.0511  0.0996 -0.1480
12295W        W32575  13.436   9.817  15.125 -0.2535 -0.0836 -0.1688
12296W        W32576   5.823   8.333  14.394 -0.0712 -0.2568  0.4164
12297W        W32577   6.943   5.262   0.977  0.0471 -0.2001 -0.0379
12298W        W32578   5.730   4.764  11.634  0.3236  0.0307  0.0857
12299W        W32579  11.967   8.156  13.431 -0.0708 -0.0650 -0.2279
12300W        W32580  12.973   0.329  15.281 -0.1381  0.2205 -0.3379
12301W        W32581   5.810  12.658  11.592 -0.0955  0.1025 -0.2114
12302W        W32582  14.548  13.757   2.878  0.0716  0.2215  0.1605
12303W        W32583   5.294   8.434  12.123  0.1681  0.3122 -0.2522
12304W        W32584   8.653  13.081   2.018 -0.1011  0.0507  0.1929
12305W        W32585  11.713   0.991   1.096  0.0222 -0.1759 -0.0866
12306W        W32586   9.332   2.233  11.837 -0.2183  0.1326  0.1025
12307W        W32587  11.201  10.713   1.566 -0.1380  0.2999  0.2083
12308W        W32588   9.700  14.730   4.742 -0.1897  0.2630 -0.1759
12309W        W32589  17.876   2.956   3.025 -0.2590  0.0706 -0.1702
12310W        W32590  14.527  14.458  13.668 -0.1476 -0.1775  0.0143
12311W        W32591   4.745   0.328   2.550  0.0593 -0.1814 -0.1109
12312W        W32592  17.853  16.255  11.830 -0.0535 -0.4445  0.1104
12313W        W32593   5.059  18.443  11.812  0.2260  0.0010  0.0968
12314W        W32594  13.721   5.135  15.107  0.1429 -0.0543 -0.2476
12315W        W32595   7.570  15.840  13.080  0.0046 -0.0135  0.0778
12316W        W32596  12.501  10.466  15.057 -0.4523  0.2262  0.1928
12317W        W32597  16.967  14.406  13.453 -0.0622 -0.0282  0.3290
12318W        W32598  13.518  12.726   3.176  0.0194  0.1200  0.5079
12319W        W32599  16.776   6.741   3.331 -0.0694 -0.0007  0.0643
12320W        W32600  14.620   8.332   4.278 -0.0509  0.0121  0.2375
12321W        W32601  13.316   5.127  14.007  0.0167 -0.0082 -0.0070
12322W        W32602   1.711  10.991  14.190 -0.0511 -0.1630  0.0733
12323W        W32603   6.652   7.883  13.502  0.0720 -0.0998 -0.0798
12324W        W32604   3.376  13.240  14.663  0.1458 -0.0008 -0.2602
12325W        W32605   1.595   5.074  13.055 -0.0840 -0.2231 -0.2034
12326W        W32606   4.431   7.230  11.388 -0.2642  0.0063  0.0580
12327W        W32607  10.727   1.420   2.645 -0.2401 -0.1597  0.0694
12328W        W32608   1.916   4.220  14.801  0.0248 -0.0747  0.0026
12329W        W32609  12.065  15.524  14.663  0.2841 -0.0397 -0.2761
12330W        W32610  15.177   6.016  13.951  0.3082 -0.0528 -0.1310
12331W        W32611  16.035  12.632  11.770  0.0171 -0.2204 -0.0213
12332W        W32612   3.212   5.895   3.661  0.0940 -0.0842 -0.0199
12333W        W32613   2.170  17.688  13.426 -0.2435  0.1050 -0.0464
12334W        W32614  16.477   0.992  12.953 -0.0117  0.2781  0.0124
12335W        W32615  13.678  16.923   4.663  0.1345 -0.0427 -0.0988
12336W        W32616  14.010  12.391  11.586  0.0551 -0.0843 -0.1458
12337W        W32617   3.335   1.738   3.654  0.1869 -0.0787 -0.0588
12338W        W32618   0.301  15.570  13.078  0.1154 -0.2730 -0.0357
12339W        W32619  10.032  15.065   0.487 -0.0797 -0.3294 -0.3053
12340W        W32620  14.174   1.237   3.316 -0.1678  0.3298  0.1615
12341W        W32621  15.723  17.879   2.778 -0.0608 -0.1387  0.1940
12342W        W32622  15.484   2.787  14.688 -0.0622 -0.3675 -0.1552
12343W        W32623   1.782   5.988   0.477 -0.1137 -0.0480  0.1307
12344W        W32624  10.116  13.775   2.770 -0.1288 -0.1129  0.0200
12345W        W32625   0.650  14.377   4.348 -0.2693  0.0076  0.0120
12346W        W32626  11.057   1.087  13.688 -0.0330  0.0068  0.0703
12347W        W32627   2.033   9.162  14.788 -0.2544  0.0272  0.3290
12348W        W32628  15.712  14.363   2.442 -0.0652 -0.4705 -0.1794
12349W        W32629  16.206   4.769   0.480  0.2533 -0.2116 -0.0452
12350W        W32630  14.238   2.080   1.040  0.1341 -0.0567  0.1418
12351W        W32631  12.969  14.315  14.241  0.1996  0.1193 -0.0417
12352W        W32632  11.625  13.798   3.656 -0.1473  0.3805 -0.2385
12353W        W32633  14.767   0.037  14.132  0.0998 -0.1670  0.3409
12354W        W32634   7.299  16.875   0.629  0.1527 -0.2038  0.1690
12355W        W32635  14.685   0.367   3.109  0.1423  0.1536  0.0740
12356W        W32636  13.286   8.317  13.861  0.3907  0.0807  0.1181
12357W        W32637  15.030  16.346   0.717 -0.1984 -0.1225  0.2711
12358W        W32638  16.203  16.018  14.544  0.0471  0.1518  0.1319
12359W        W32639  16.027   0.136   0.643 -0.2316  0.1965 -0.1940
12360W        W32640   1.685  11.471   2.482  0.3679  0.2613  0.0435
12361W        W32641  11.662  14.323   0.503  0.1383 -0.3902 -0.0782
12362W        W32642  17.767  18.642  11.184 -0.0769 -0.2684  0.0523
12363W        W32643   4.322   6.678  12.022 -0.1170 -0.1436  0.0695
12364W        W32644   7.467  16.649  14.213 -0.0737 -0.1978 -0.2333
12365W        W32645   5.183   5.596   1.536 -0.0187 -0.4067  0.1391
12366W        W32646   1.248  18.296   4.103  0.3786  0.1250  0.0275
12367W        W32647   5.310   2.584  14.427  0.0183 -0.1133  0.0008
12368W        W32648  10.770  10.165   4.471  0.2114 -0.1462  0.2080
12369W        W32649   1.298   0.932  14.716 -0.2744 -0.1561  0.0962
12370W        W32650  15.297   0.908  15.330 -0.0167  0.2008 -0.3936
12371W        W32651  10.507   2.182   1.935  0.0333  0.0331  0.0746
12372W        W32652   1.232  13.716  11.955 -0.1015 -0.0186  0.0853
12373W        W32653   0.312   3.876   1.472  0.2037 -0.2572 -0.0540
12374W        W32654   0.148  12.133   0.236 -0.2570  0.2170  0.0799
12375W        W32655   9.314  11.592   2.571 -0.1147  0.0892  0.2004
12376W        W32656   6.332  10.495   0.201 -0.0869  0.0099  0.2236
12377W        W32657   1.980  14.456   2.365 -0.0824 -0.2555 -0.0679
12378W        W32658  15.791   8.306  12.248  0.1738  0.0580 -0.2671
12379W        W32659   4.673  14.203   2.939  0.1491 -0.3177  0.2026
12380W        W32660   8.148   8.802   5.115 -0.0403 -0.1236  0.3116
12381W        W32661  12.596   3.638   2.348  0.0107  0.1055  0.1515
12382W        W32662  14.344   4.884   2.382 -0.1210 -0.2300 -0.1219
12383W        W32663  10.281   0.579   3.732  0.0222 -0.2482  0.1726
12384W        W32664   4.255   6.289  11.660 -0.0103  0.1716  0.2559
12385W        W32665   4.410   2.006   2.987  0.0969 -0.2294 -0.0312
12386W        W32666  14.283   3.596  13.527 -0.2755 -0.2876 -0.3051
12387W        W32667  16.942   1.687   1.523  0.0779 -0.0522  0.1714
12388W        W32668   8.670  17.954   1.195  0.0394  0.1306 -0.1694
12389W        W32669   2.979  16.305   0.326 -0.0770 -0.0343 -0.1543
12390W        W32670   4.211   3.062  12.183 -0.0629  0.0686  0.1934
12391W        W32671   3.099  15.967  13.577 -0.1002 -0.0208  0.1163
12392W        W32672   9.045  12.255  13.285  0.0941  0.0353 -0.1021
12393W        W32673  17.439  16.955   1.432  0.4725  0.1235 -0.1518
12394W        W32674  17.067   9.425  13.657  0.0970  0.1473  0.0447
12395W        W32675  11.399  15.308   0.555  0.1542 -0.0144 -0.2157
12396W        W32676  14.510   8.705   3.348  0.0446 -0.1016 -0.3846
12397W        W32677   4.769  17.987  15.277  0.0242 -0.1050  0.1607
12398W        W32678   1.220   9.576   2.293 -0.0217  0.0412  0.3726
12399W        W32679   2.276  11.557  12.759  0.1110  0.0152 -0.3053
12400W        W32680   2.720   9.571  12.763 -0.0332 -0.3142 -0.0246
12401W        W32681  17.588   5.547  13.925  0.0383  0.0257  0.0306
12402W        W32682   0.425   0.731  12.884 -0.0613  0.0890  0.0542
12403W        W32683   7.043  11.879   1.414 -0.4557 -0.0172  0.2987
12404W        W32684  13.180  13.409  14.240  0.0655 -0.2239 -0.1140
12405W        W32685   6.223   8.184   4.031 -0.0143 -0.0284  0.0783
12406W        W32686   0.556  14.976  10.858 -0.0615  0.2816 -0.0178
12407W        W32687   4.602   3.146  14.092 -0.3363 -0.0334  0.0812
12408W        W32688  14.610   3.898   2.560  0.0028 -0.1119  0.0053
12409W        W32689  15.122   2.062   1.554 -0.0681 -0.0053 -0.2272
12410W        W32690  13.701  13.145   1.716  0.1370  0.3819  0.1355
12411W        W32691  10.155   3.944  14.293 -0.1399  0.0176  0.3695
12412W        W32692   4.366  15.845  13.501  0.0485 -0.0730 -0.2349
12413W        W32693   3.112   3.346   3.333  0.0920  0.1119 -0.3492
12414W        W32694   9.963   9.513   3.075 -0.1271  0.2598 -0.1194
12415W        W32695  12.434  11.498  14.475  0.0843 -0.0272  0.0037
12416W        W32696  14.160  15.567  12.458  0.0943  0.2090  0.0064
12417W        W32697  18.021  13.958   4.473 -0.0473  0.1949  0.2879
12418W        W32698   2.129   5.372   4.134  0.3219  0.3074 -0.0631
12419W        W32699   8.239  15.161  14.696 -0.2586  0.2123  0.2813
12420W        W32700   9.429   7.493   3.071  0.0437  0.0099  0.1073
12421W        W32701   4.972  13.868  14.010 -0.0865  0.1975  0.0046
12422W        W32702   8.798   1.386  12.548 -0.4065 -0.2040  0.3888
12423W        W32703   3.796  13.742   2.974 -0.1537 -0.1825 -0.1290
12424W        W32704   9.016   1.842  12.756  0.0002 -0.0525 -0.1318
12425W        W32705  16.146  17.500   1.076  0.0973  0.0571 -0.3893
12426W        W32706  16.136   3.906   3.778 -0.0596  0.4213 -0.2865
12427W        W32707   8.806   5.546   0.213  0.2656 -0.0702  0.1832
12428W        W32708   5.840   4.608   2.112 -0.0381 -0.1007  0.0867
12429W        W32709   1.991   8.864  12.021 -0.0707  0.0681 -0.0642
12430W        W32710   0.667  10.286   2.276 -0.0862  0.0018  0.3390
12431W        W32711  12.839  14.706  12.527 -0.4073 -0.1249 -0.2167
12432W        W32712   9.117  13.956  15.381 -0.1856 -0.0502  0.1894
12433W        W32713  11.865   0.111   2.220 -0.2619  0.1914  0.0701
12434W        W32714   3.335   2.781   2.529 -0.3367 -0.1015 -0.1400
12435W        W32715   2.753   6.777  10.671 -0.3217  0.1221 -0.1643
12436W        W32716  18.241   5.581  13.407  0.3030  0.1687 -0.1064
12437W        W32717   5.064  16.016   3.731 -0.3270  0.1971  0.1904
12438W        W32718   5.905  17.202  12.505  0.0039 -0.0184 -0.2084
12439W        W32719   9.087  13.703  13.793  0.0463 -0.3406 -0.1099
12440W        W32720  12.861   0.827  12.163  0.1251  0.4417  0.0314
12441W        W32721   6.496  13.464  12.366  0.1676 -0.1942 -0.1651
12442W        W32722   5.477   7.905   0.970 -0.0835  0.2365 -0.1003
12443W        W32723  16.055  10.345  15.358 -0.0920 -0.1304 -0.0357
12444W        W32724  18.038   9.462  14.963  0.2969 -0.1326 -0.2604
12445W        W32725   2.640  14.889   4.689 -0.2486 -0.2452 -0.2356
12446W        W32726  18.226  18.486   1.034  0.2906 -0.0583 -0.2740
12447W        W32727   3.713   7.997  12.332 -0.2795 -0.2070  0.0105
12448W        W32728   5.527   3.001  14.589 -0.2902  0.0890 -0.0083
12449W        W32729   6.126  11.693   2.835 -0.0965  0.0472  0.0316
12450W        W32730   9.851  12.846  14.027  0.0971  0.3873 -0.1732
12451W        W32731   7.165  17.545   2.677 -0.0795 -0.3271  0.0188
12452W        W32732   3.740  13.755   3.868  0.3536  0.0451 -0.0884
12453W        W32733   2.498   4.922  12.358 -0.1774 -0.5277  0.0054
12454W        W32734   7.481  10.168  12.583 -0.0201 -0.5702 -0.0157
12455W        W32735   4.151  17.335   4.976  0.1620  0.3638 -0.0400
12456W        W32736   7.086   0.880   4.368  0.2008  0.1402 -0.1471
12457W        W32737   1.950   5.373   2.676 -0.1724  0.1951 -0.0400
12458W        W32738   6.841   1.985  12.397 -0.1070 -0.1251  0.0586
12459W        W32739   5.026  17.301  11.451 -0.1276 -0.2221 -0.0856
12460W        W32740  12.744   9.898   1.028  0.1702 -0.2592  0.1133
12461W        W32741   5.976  13.160  12.471  0.0054  0.0136 -0.2713
12462W        W32742  15.973  12.050   2.452 -0.0517  0.3415 -0.3791
12463W        W32743   1.942   9.703  13.358 -0.2917 -0.0003 -0.0509
12464W        W32744  11.296   6.071  13.834 -0.1252  0.4238 -0.3134
12465W        W32745   5.590   1.603  13.967  0.0626  0.3256 -0.2198
12466W        W32746   6.370   2.564   4.840 -0.1549 -0.1304  0.1078
12467W        W32747  18.259  13.631   3.194 -0.0553 -0.0307 -0.2488
12468W        W32748   8.542   1.159   2.546 -0.1671  0.0229 -0.1402
12469W        W32749  14.753   6.150   2.810 -0.0365  0.0674 -0.0433
12470W        W32750  11.986  10.882   2.875  0.2293  0.1584  0.0802
12471W        W32751   6.363  17.284  14.889  0.0048  0.0210  0.0440
12472W        W32752   0.396  12.572   2.981  0.2055 -0.0803  0.0959
12473W        W32753  12.348   4.219  14.164  0.4331  0.1714 -0.1246
12474W        W32754  11.392   3.670  14.171  0.0388  0.0741  0.2204
12475W        W32755   5.979   1.110  13.443 -0.0603  0.0690  0.0728
12476W        W32756  13.089  16.711  14.585 -0.0831 -0.1738 -0.4861
12477W        W32757  11.036  15.291   3.599 -0.0570  0.1235 -0.1823
12478W        W32758  17.728   6.624  12.187  0.0210 -0.0309  0.1682
12479W        W32759   0.127   0.802  14.522  0.1252 -0.0115  0.0309
12480W        W32760  13.077   6.177  10.841 -0.2475  0.0942  0.1115
12481W        W32761  10.243   2.863   4.067 -0.1278  0.2055  0.1067
12482W        W32762   9.790   1.825  12.359 -0.2570  0.1327 -0.1182
12483W        W32763  12.396  11.101   0.262  0.0539 -0.0102  0.1962
12484W        W32764   3.318  14.164  13.159 -0.1277  0.3707  0.1227
12485W        W32765   3.900   8.455  13.525 -0.0894 -0.0533  0.0706
12486W        W32766   5.864   5.053   3.809  0.1408  0.0664  0.0186
12487W        W32767   3.253  18.056   3.125 -0.1854  0.0207  0.1544
12488W        W32768  16.744   2.358  12.364  0.0482  0.1520 -0.0873
12489W        W32769  16.726  13.194  15.171 -0.0307  0.0417 -0.1706
12490W        W32770   1.564   4.579   0.492 -0.0600 -0.1498  0.0345
12491W        W32771  16.150   8.309   5.459  0.0538 -0.1838  0.2463
12492W        W32772  18.585  16.234  11.990 -0.1757 -0.1237 -0.0337
12493W        W32773   0.500   9.779  14.020  0.0194  0.2965 -0.0083
12494W        W32774   8.175  13.816   4.221  0.0861  0.1150 -0.2748
12495W        W32775  11.814  14.911  10.897 -0.1721  0.2114  0.1093
12496W        W32776  12.325  13.582  11.978 -0.2985  0.1788 -0.0916
12497W        W32777  17.135  12.543  12.664 -0.1664  0.1085  0.2480
12498W        W32778   6.169   4.893   1.807  0.2936 -0.1126 -0.1399
12499W        W32779  15.511   5.663  15.138 -0.1315  0.0451  0.1446
12500W        W32780  18.169  15.736  13.988  0.1194 -0.2686  0.1412
12501W        W32781  16.583   9.623  14.602  0.0592  0.0296 -0.1055
12502W        W32782   3.295  16.131  14.080 -0.1136 -0.0171 -0.0673
12503W        W32783   2.818  17.279   2.721 -0.0881  0.2543 -0.2218
12504W        W32784  17.829  11.543  12.387  0.1482 -0.0115  0.1966
12505W        W32785  11.802   6.189   2.198 -0.0363  0.5128  0.0176
12506W        W32786   5.223  10.162  10.891 -0.0002  0.1823  0.0157
12507W        W32787   0.048   8.958  15.040 -0.0743 -0.0426 -0.0069
12508W        W32788   3.565   8.306   1.409  0.0581 -0.2218 -0.0096
12509W        W32789   7.200  16.752  15.101 -0.0354  0.0102  0.1189
12510W        W32790   4.867  16.028  12.412  0.1689  0.0802 -0.2252
12511W        W32791  13.259   6.939  11.328 -0.1348  0.0067  0.0061
12512W        W32792   4.731  18.024   2.906 -0.2045 -0.0255 -0.0488
12513W        W32793   8.494   1.693   1.245  0.1551  0.0116  0.0007
12514W        W32794  16.099   0.430  12.972  0.1025 -0.0141  0.0624
12515W        W32795  15.770  15.216   4.221  0.0708  0.0577 -0.3070
12516W        W32796  14.672  15.692  14.286 -0.0434  0.1750  0.3987
12517W        W32797  17.190   7.121   0.254  0.0722  0.0590  0.1757
12518W        W32798  10.161  13.647  13.821  0.0769  0.1269 -0.3811
12519W        W32799  18.096  18.598   1.526 -0.0062 -0.0794 -0.0945
12520W        W32800  10.206  14.878  13.404 -0.2055  0.4116 -0.0001
12521W        W32801   4.318   1.230  11.059 -0.1541 -0.2806 -0.0442
12522W        W32802  17.367  13.927   0.662  0.0496 -0.2215 -0.3161
12523W        W32803  18.008  14.323  10.441 -0.0139  0.0764  0.1649
12524W        W32804   2.735   3.840  11.766  0.0664 -0.0819 -0.0379
12525W        W32805   9.899   9.995   0.115  0.4416 -0.4294  0.0322
12526W        W32806   8.007   1.307   1.339  0.1680  0.0971  0.4584
12527W        W32807   6.569   7.713  14.767 -0.1122 -0.1881 -0.0784
12528W        W32808   9.249   8.698  14.297 -0.0054 -0.1923 -0.1476
12529W        W32809   9.500   4.936  14.002 -0.0766 -0.1492  0.0569
12530W        W32810   4.825  12.492   2.077  0.5385  0.1509  0.0973
12531W        W32811  18.082   5.698  12.122  0.0139 -0.0234  0.1896
12532W        W32812  11.311  11.500  14.093  0.0919 -0.2740 -0.0794
12533W        W32813   6.292   3.443   4.202 -0.0318 -0.1889 -0.0234
12534W        W32814   1.903   4.724  13.232  0.0278  0.0041 -0.0861
12535W        W32815   2.300   7.446  12.026 -0.0467  0.3593 -0.0963
12536W        W32816   5.734  11.954   2.653 -0.0939 -0.0673 -0.1075
12537W        W32817   8.823  10.822  10.946  0.0907 -0.1030  0.0117
12538W        W32818   3.237   7.932   3.675 -0.0771 -0.3093  0.2287
12539W        W32819   9.424   7.240  12.620  0.0561 -0.0361 -0.0719
12540W        W32820  10.052  13.458  11.200 -0.0217 -0.0393 -0.0236
12541W        W32821  10.078   6.761  12.890  0.0940 -0.0603 -0.1066
12542W        W32822  17.220   3.523  12.891 -0.0427 -0.2169 -0.1595
12543W        W32823  13.636  18.299   4.169 -0.1357 -0.2832 -0.1888
12544W        W32824   5.354   9.104  11.400 -0.0216  0.0027  0.2877
12545W        W32825  14.177   6.480   0.905  0.0506 -0.1078 -0.1922
12546W        W32826   3.740  11.720  11.177 -0.0910  0.1362 -0.1049
12547W        W32827   4.415   7.936  14.341 -0.0938 -0.0122  0.0265
12548W        W32828   7.611   5.503  11.483  0.0784 -0.1367  0.1811
12549W        W32829  13.439   4.558  15.215  0.3038  0.1663  0.0331
12550W        W32830   7.897   0.506  14.358 -0.0484  0.1788 -0.2315
12551W        W32831   2.772   6.575  14.009  0.0355  0.2348 -0.1791
12552W        W32832  12.209  10.387  11.476  0.0671  0.1548 -0.1364
12553W        W32833  16.653  11.209  12.741  0.1456 -0.0399  0.0094
12554W        W32834  13.211   3.743  12.476  0.0594 -0.2335 -0.0011
12555W        W32835   9.484   7.166   1.155 -0.1520 -0.0570  0.0639
12556W        W32836  15.503  17.392  11.826 -0.0316  0.2110  0.0269
12557W        W32837   3.759  13.776   2.026 -0.3414 -0.3215  0.1696
12558W        W32838   0.641  18.400   0.096 -0.2277  0.1078  0.2672
12559W        W32839   4.339   7.095   3.025 -0.0660 -0.3647  0.2575
12560W        W32840   5.493  10.549   2.483 -0.0803 -0.0118  0.1331
12561W        W32841   9.711   5.357  14.179 -0.0312  0.2394 -0.1875
12562W        W32842   1.092  13.861  14.653 -0.2197  0.1440  0.0828
12563W        W32843   8.139   5.337   1.555 -0.0469 -0.1331 -0.0495
12564W        W32844  16.840   7.815   2.392  0.1476 -0.0024 -0.0029
12565W        W32845   3.418   0.522  13.060  0.1020  0.0481 -0.3810
12566W        W32846   0.542   6.953  14.124 -0.1148  0.0422  0.0154
12567W        W32847   6.514   8.738   0.609 -0.0041 -0.0639  0.1107
12568W        W32848   1.947   5.641   3.182  0.4844 -0.0040 -0.1496
12569W        W32849   0.585   7.825  13.142 -0.0111  0.1501 -0.1604
12570W        W32850  15.473   7.164  14.738  0.2133 -0.1538 -0.2138
12571W        W32851   7.833  12.489   0.406 -0.0229 -0.2911  0.2032
12572W        W32852  13.762   4.562  12.647  0.1258  0.0446 -0.0911
12573W        W32853   4.797   8.413  12.166 -0.0691 -0.0047  0.0352
12574W        W32854  17.674   4.127  12.492  0.1985 -0.1017  0.0201
12575W        W32855  14.273  13.748  11.334  0.3680  0.0467 -0.0395
12576W        W32856   2.193   8.069  14.742 -0.0707 -0.1208  0.3929
12577W        W32857   4.518   1.322   0.198 -0.0623  0.2151  0.0526
12578W        W32858  16.982   8.987   2.321 -0.1255  0.1088  0.2032
12579W        W32859   2.136   9.139  12.536  0.1906  0.0797  0.2562
12580W        W32860   8.951   1.393   9.589 -0.0397 -0.2048  0.0404
12581W        W32861   6.295   3.424  14.860 -0.0548 -0.1233 -0.2514
12582W        W32862   2.065   4.617  12.759 -0.1724  0.0383  0.0185
12583W        W32863   2.071  17.191  13.404  0.0020  0.0843  0.2925
12584W        W32864  14.676   5.921  12.760 -0.2328  0.0080  0.0202
12585W        W32865  14.637   4.488   1.152 -0.0984  0.1936 -0.0912
12586W        W32866   7.296  15.171   0.832 -0.2672 -0.0924  0.1154
12587W        W32867   3.717  15.397   2.102 -0.0830  0.1978 -0.3081
12588W        W32868   2.615  15.876  14.782  0.1094 -0.0873 -0.0936
12589W        W32869  15.226  11.682  12.480  0.2869  0.1638  0.2478
12590W        W32870  11.774   4.431  13.936 -0.2863  0.0092 -0.0706
12591W        W32871  17.373  17.310  14.429  0.1411  0.1528 -0.1611
12592W        W32872   3.901   6.554   3.761  0.4069 -0.1544  0.0520
12593W        W32873  11.937  16.691   1.467 -0.0979 -0.0498  0.2134
12594W        W32874   2.834  17.345  12.319 -0.2474  0.1492  0.0226
12595W        W32875   8.439   0.561   0.791  0.0293 -0.0486 -0.1769
12596W        W32876  18.527   5.809   0.964 -0.0086  0.1811 -0.0675
12597W        W32877   9.239   3.505  13.752 -0.0922 -0.0725 -0.0197
12598W        W32878   2.335  10.114  14.861 -0.0532  0.2442 -0.0483
12599W        W32879  15.641  16.249  14.288 -0.3168 -0.1981  0.1155
12600W        W32880   6.763  14.477   0.958  0.1190  0.0094 -0.0011
12601W        W32881  11.779   9.939  14.766 -0.0310  0.2933  0.0032
12602W        W32882   7.697   6.989   1.537 -0.0145  0.3621 -0.0013
12603W        W32883   5.191  11.734  14.191  0.0381 -0.3057 -0.1585
12604W        W32884   1.644  17.089  13.659 -0.0294  0.1028  0.1388
12605W        W32885  12.899   6.345  12.111 -0.3544  0.2849  0.1872
12606W        W32886   2.280   4.449  13.232  0.0642 -0.0153 -0.1117
12607W        W32887  11.664   5.846  13.188  0.0065 -0.2026  0.0401
12608W        W32888  13.305  15.483  14.343 -0.1550  0.0115  0.2683
12609W        W32889   6.588  14.413  14.336 -0.0753 -0.0780 -0.2804
12610W        W32890   8.971  10.276   1.233  0.2628 -0.0830  0.0602
12611W        W32891   1.872  10.334  12.267  0.0461 -0.3647 -0.0268
12612W        W32892  15.707   4.118  13.519 -0.0140  0.1605  0.0221
12613W        W32893  17.637  13.266  12.371 -0.1942  0.1516 -0.0706
12614W        W32894   5.516   7.349  14.890 -0.0123  0.1104 -0.1082
12615W        W32895   2.360   6.084   4.440  0.1890  0.0499  0.2505
12616W        W32896  12.593   3.053   0.461 -0.1527  0.0359 -0.0324
12617W        W32897  16.837   3.993  12.219 -0.1775  0.3443  0.0651
12618W        W32898  16.621  11.015   1.070  0.0563 -0.0206  0.2554
12619W        W32899  18.483   5.318   0.799  0.2606  0.0422  0.0757
12620W        W32900   2.981   3.434   4.513 -0.1990  0.4991  0.1664
12621W        W32901   3.010   4.688   3.241 -0.2173 -0.1397  0.2115
12622W        W32902  10.683   6.080   2.917 -0.3029  0.0267 -0.2442
12623W        W32903   1.916   2.299  12.316 -0.1202 -0.1442  0.0172
12624W        W32904  12.107   0.624   1.945  0.2874  0.3236  0.2207
12625W        W32905  18.609   3.271   3.161  0.1124  0.1219 -0.2650
12626W        W32906   8.109   8.364   4.888  0.3337  0.2027  0.0855
12627W        W32907   9.470  12.752   0.435  0.1128  0.0684  0.1312
12628W        W32908  15.903   1.332   1.609  0.3750 -0.0841 -0.1501
12629W        W32909   0.747   1.031  14.541  0.0683 -0.1686 -0.2246
12630W        W32910  13.702   5.870   0.550 -0.0469 -0.1711 -0.0882
12631W        W32911   5.537   8.096   4.356  0.0363 -0.1445  0.1605
12632W        W32912  14.464  13.522  10.968 -0.0095 -0.0300 -0.4454
12633W        W32913   9.884   2.950   1.223 -0.2193 -0.0935  0.0403
12634W        W32914  17.636   7.066   0.047  0.0800  0.2263 -0.0246
12635W        W32915   6.937  11.666   3.413 -0.1137  0.2198 -0.0099
12636W        W32916   1.071   1.459   0.580 -0.1033  0.2822 -0.2092
12637W        W32917  10.188  16.263  14.605  0.2616 -0.0993 -0.3004
12638W        W32918   9.302   1.681   2.817  0.3018  0.1848  0.1081
12639W        W32919  13.929  10.670  12.375 -0.0029  0.1399  0.0184
12640W        W32920   0.822   1.803  12.463  0.0878  0.1667  0.1074
12641W        W32921  10.179   9.696  13.809 -0.1300 -0.1255  0.0156
12642W        W32922   0.176   0.423  12.590 -0.2633 -0.1189 -0.2086
12643W        W32923   6.322   2.223   3.490 -0.2220 -0.1220  0.2048
12644W        W32924   2.888   1.954   0.407  0.0313  0.1779  0.2714
12645W        W32925  11.585  11.376  12.268 -0.0906 -0.0136 -0.1238
12646W        W32926  13.280   7.967   4.267  0.0348 -0.3137 -0.0185
12647W        W32927   7.391  10.912   2.860  0.1319 -0.3433  0.0973
12648W        W32928   3.090  16.942  13.576 -0.3091  0.1516 -0.3810
12649W        W32929  16.746   5.960   4.680  0.0675  0.3556  0.1174
12650W        W32930   5.245   9.522  13.853  0.0049  0.0726  0.1392
12651W        W32931   0.344   0.209   0.678  0.0776 -0.0364 -0.0376
12652W        W32932  17.751  15.559   4.337  0.0365  0.1316  0.1139
12653W        W32933  11.435  11.115   0.471 -0.0923  0.0613  0.1049
12654W        W32934   0.978   7.879   9.944  0.2917 -0.1203  0.0804
12655W        W32935  15.085   0.478  13.219  0.0531 -0.1017  0.0121
12656W        W32936   2.832  17.515  15.029 -0.2763 -0.0702 -0.1145
12657W        W32937  16.827   5.364  12.099 -0.1797  0.0382 -0.0193
12658W        W32938  17.179   7.953   1.202 -0.0478  0.0040  0.0586
12659W        W32939  10.970  12.820   1.601 -0.1501 -0.6449  0.0907
12660W        W32940  15.912  15.288  12.698 -0.2568  0.1225 -0.0796
12661W        W32941  14.662   1.522  14.300 -0.2291 -0.0028 -0.0978
12662W        W32942   8.370   8.421   0.390  0.1153  0.0734  0.1863
12663W        W32943  16.649   9.841   3.272 -0.1089 -0.1691 -0.3189
12664W        W32944   7.566  17.132  14.330 -0.0573 -0.0350  0.0776
12665W        W32945   7.916  13.684  12.085  0.2558  0.0762 -0.2900
12666W        W32946   4.699  15.324  11.754  0.1854 -0.3288 -0.0364
12667W        W32947  14.554   7.674   2.712  0.1736  0.3743 -0.0509
12668W        W32948  18.064  11.166   1.326  0.1135 -0.2046 -0.0878
12669W        W32949   0.798  15.172   2.914 -0.2364 -0.1025  0.3317
12670W        W32950   2.047   3.791  13.773  0.2547  0.1796  0.1897
12671W        W32951   4.355   4.770   2.430 -0.0823 -0.0053  0.1660
12672W        W32952  13.200  17.742  12.824 -0.0843 -0.0725  0.0618
12673W        W32953   0.734   8.664  14.967  0.1143  0.0488 -0.1276
12674W        W32954  17.765   5.521   2.608  0.0267  0.0634 -0.3006
12675W        W32955  11.513  17.939   1.867 -0.4467  0.0327  0.3193
12676W        W32956  16.739   5.823   4.231 -0.2251  0.2116  0.2382
12677W        W32957   4.865   7.585   3.667  0.0299 -0.1335  0.0021
12678W        W32958   2.916   3.308  12.779  0.1153  0.0921 -0.0594
12679W        W32959   8.322   4.242   3.013  0.3017 -0.0881  0.0437
12680W        W32960  13.646  14.806  14.490  0.1798  0.1573 -0.0890
12681W        W32961   2.402   8.912  11.575  0.0616 -0.2021 -0.0009
12682W        W32962   2.759   7.990  13.417 -0.0675 -0.1627  0.0242
12683W        W32963   6.385   5.406  12.328  0.2967 -0.4290 -0.1973
12684W        W32964   2.510  13.708   4.626 -0.1046  0.0592  0.0984
12685W        W32965   7.414  18.085  12.898  0.1512 -0.2148 -0.2444
12686W        W32966   1.196  14.548   1.680 -0.0529  0.0909 -0.2234
12687W        W32967  12.128   3.482  13.709  0.0767 -0.1265 -0.4613
12688W        W32968  13.345   6.503  11.069 -0.0690 -0.0880 -0.0022
12689W        W32969  11.021  17.522  12.887 -0.2342 -0.0261 -0.1368
12690W        W32970   2.760   2.230  15.130 -0.1218  0.2360  0.0392
12691W        W32971  17.291  17.778   3.319  0.0612 -0.1035 -0.4227
12692W        W32972   7.283  16.725  12.200 -0.2079 -0.1240  0.1305
12693W        W32973  14.771  12.243   3.183  0.1529  0.3449  0.0451
12694W        W32974   7.001   4.046   0.674  0.0536 -0.0243  0.1240
12695W        W32975   2.862   4.643  13.261  0.0058  0.0183  0.2169
12696W        W32976  17.111   8.632  11.430  0.0424  0.0896  0.0349
12697W        W32977   8.799  17.258  15.185 -0.1501 -0.2156  0.1025
12698W        W32978  12.159  10.025  12.903 -0.0490 -0.1761  0.0944
12699W        W32979   5.563   5.904  11.171 -0.3368  0.1272 -0.1942
12700W        W32980   2.071   2.192   1.289 -0.0514 -0.2838  0.2286
12701W        W32981   4.140   7.530  14.706  0.3051 -0.0618  0.1230
12702W        W32982  15.863  15.411   2.357 -0.4418 -0.1416 -0.1280
12703W        W32983  13.375  17.217   0.027  0.5347 -0.0647  0.2821
12704W        W32984   7.322  13.740  12.579  0.0812 -0.0570  0.2993
12705W        W32985  12.479  11.002   1.692 -0.2401 -0.0190  0.0631
12706W        W32986   4.264   1.800  13.687  0.1742 -0.1659  0.2346
12707W        W32987   7.814   0.937   3.683 -0.1128  0.0842  0.1315
12708W        W32988   1.314   6.195   0.021  0.1314 -0.0144  0.0327
12709W        W32989  13.827   2.925  13.407  0.2686 -0.0665  0.0275
12710W        W32990   6.442  18.363   0.707  0.2174 -0.0763  0.0418
12711W        W32991  12.954   7.064   3.450 -0.1820  0.1579  0.0013
12712W        W32992  10.997   0.430  15.140 -0.1020 -0.0473  0.1218
12713W        W32993   8.923   0.332  13.014 -0.1627  0.1401 -0.3121
12714W        W32994   0.363   3.581  11.127 -0.1367  0.1448 -0.2255
12715W        W32995   7.629  12.738  13.530 -0.2788 -0.1984  0.1058
12716W        W32996  12.873   1.572  12.995 -0.1192 -0.3072  0.1326
12717W        W32997  10.007  12.046  11.834  0.2539 -0.0163 -0.1527
12718W        W32998  12.110   1.966  13.567  0.1903 -0.1361  0.2274
12719W        W32999   7.498   4.719   1.861 -0.0317 -0.1428  0.0988
12720W        W33000   9.389  16.448   1.517 -0.3293  0.0904 -0.4087
12721W        W33001   4.826   4.779  10.987 -0.1186 -0.2563  0.2981
12722W        W33002  15.821   1.986  15.273 -0.0494  0.2929 -0.0959
12723W        W33003  17.593  12.491   2.046  0.1584  0.1299 -0.0747
12724W        W33004  10.434   4.433   2.171 -0.1694  0.1585  0.0406
12725W        W33005  16.563  13.135  13.780 -0.0874 -0.0397 -0.1130
12726W        W33006   7.955  11.311   2.439  0.1801  0.0591  0.0118
12727W        W33007  14.412  10.682  12.654 -0.2130 -0.0673 -0.1363
12728W        W33008  14.446   0.183  13.448 -0.2023 -0.4154  0.2455
12729W        W33009   8.343   1.689  13.626  0.3753 -0.1328 -0.1456
12730W        W33010  10.391   3.631  12.913  0.3057 -0.1835  0.1560
12731W        W33011   8.012   1.429  12.011 -0.2758 -0.1105  0.1223
12732W        W33012   7.938   1.193  14.784 -0.1157  0.0322  0.1217
12733W        W33013   3.814   6.688  10.762  0.1042  0.0243  0.0038
12734W        W33014  10.816   9.477   5.595 -0.0675  0.2490 -0.0956
12735W        W33015   5.069  12.364   1.653  0.0424 -0.0611 -0.2488
12736W        W33016  15.242  17.028   2.886  0.0666  0.2340  0.1849
12737W        W33017  15.924   9.292   4.661 -0.3011 -0.1222 -0.1595
12738W        W33018  11.736   8.467   4.695 -0.1475  0.2165  0.1819
12739W        W33019   8.523  14.600  11.501 -0.1404 -0.0842 -0.0350
12740W        W33020  14.742  11.980  13.325  0.0944 -0.2043  0.0307
12741W        W33021   2.921   1.986  12.388  0.0150  0.0502 -0.1763
12742W        W33022  12.068  12.334   1.119 -0.1563  0.0185 -0.2592
12743W        W33023  16.956   7.675   0.228 -0.2141  0.2292  0.1712
12744W        W33024  14.239  16.559   5.542 -0.0728 -0.0942  0.1832
12745W        W33025  14.157  17.543   4.592 -0.0554  0.1039  0.0550
12746W        W33026   2.298   3.462   0.801  0.0437 -0.0690 -0.0646
12747W        W33027   1.007  15.373   3.922 -0.1135 -0.1678  0.2653
12748W        W33028   8.452   8.758   3.155 -0.1195  0.2336 -0.0890
12749W        W33029  17.578  13.697   2.951 -0.0954  0.0316 -0.0410
12750W        W33030  10.139   7.066  15.352 -0.0266 -0.0408  0.2325
12751W        W33031   4.039  13.528  13.412  0.0077 -0.1870 -0.1148
12752W        W33032   7.646   5.976   1.229 -0.0176  0.0984 -0.1867
12753W        W33033  12.490   5.177  13.080  0.0751 -0.0256  0.4100
12754W        W33034   4.765   5.432  11.745  0.1573 -0.2649  0.1114
12755W        W33035  18.736  15.407  11.770  0.0570  0.0822  0.3192
12756W        W33036  18.252   3.601  13.099 -0.0353  0.0971 -0.0582
12757W        W33037  14.263   9.875   2.732  0.1271 -0.0469 -0.0009
12758W        W33038   4.831  11.164  13.180 -0.1332 -0.3401  0.1279
12759W        W33039   3.622   2.211   0.512  0.0513  0.0959 -0.0791
12760W        W33040  11.004   6.049  13.469 -0.1157  0.0759  0.2284
12761W        W33041   8.058  10.457   0.202  0.1198 -0.0096 -0.1899
12762W        W33042  13.086  15.517   3.513  0.2698 -0.1836  0.1200
12763W        W33043  16.804   6.173   0.092  0.2179  0.2295  0.0335
12764W        W33044   3.816   9.617   0.297  0.0245  0.2337 -0.0905
12765W        W33045  14.538   1.693   4.162  0.2709 -0.2389 -0.4402
12766W        W33046   1.600   6.396  14.178 -0.0454  0.0384  0.1813
12767W        W33047   0.467  11.397   2.430  0.2312 -0.0118 -0.0827
12768W        W33048   4.013   3.423   2.745  0.0698 -0.2123 -0.0687
12769W        W33049  17.555   1.317  14.713 -0.1733 -0.1000 -0.0835
12770W        W33050   3.149   1.564   1.073 -0.3508  0.1867  0.0913
12771W        W33051   5.282   4.412  11.583 -0.3288 -0.0229  0.1033
12772W        W33052   6.857  13.147  14.915  0.1154 -0.0592 -0.1750
12773W        W33053  14.170   6.821   2.869  0.1732  0.0434 -0.0442
12774W        W33054  11.365  10.570  11.278 -0.0350 -0.2456  0.2904
12775W        W33055   7.048  11.379  14.353  0.1065  0.1798  0.0270
12776W        W33056   8.107   4.015   3.993  0.1032 -0.0293 -0.3501
12777W        W33057   2.113   8.760   1.805  0.3820  0.1423 -0.3702
12778W        W33058   2.310  16.756  12.276  0.1424 -0.0889  0.0676
12779W        W33059  16.792   4.506   3.411 -0.1016 -0.0599  0.3360
12780W        W33060   8.433   0.307   2.622  0.0578  0.1169  0.1440
12781W        W33061   7.040  14.470  11.177  0.1090 -0.0238 -0.0795
12782W        W33062   0.028   4.793   0.464  0.0166 -0.0281  0.1068
12783W        W33063   4.547   7.676  13.932  0.0901 -0.0181  0.2631
12784W        W33064  12.571  17.003   0.649  0.1062  0.0097  0.1760
12785W        W33065  15.834   3.013   2.178 -0.0600  0.1305  0.0127
12786W        W33066  10.841  12.331  14.126 -0.2497  0.0729 -0.0097
12787W        W33067   9.283  12.001   0.808 -0.3239  0.2697 -0.0936
12788W        W33068   9.159   0.011   2.358 -0.0385 -0.0203 -0.3118
12789W        W33069   5.036   9.939   3.996 -0.2442  0.0473  0.0720
12790W        W33070  11.420   9.949   1.810 -0.1931  0.2831 -0.3638
12791W        W33071  16.486  15.492   0.061 -0.1700  0.0531  0.1353
12792W        W33072   0.417   7.636  11.505 -0.0004 -0.0979  0.2933
12793W        W33073   2.919  15.737  13.950  0.3075 -0.1248 -0.1223
12794W        W33074  17.084   5.048   0.962  0.1131 -0.1166 -0.2836
12795W        W33075   5.206   0.005   2.962 -0.0860  0.0238 -0.1250
12796W        W33076   9.437  10.880  11.141  0.0555  0.0707 -0.2169
12797W        W33077   7.428  12.626  10.710  0.2819  0.1388 -0.1220
12798W        W33078   0.580   3.607   3.874  0.0836  0.2150  0.0932
12799W        W33079  18.364  12.641  11.557 -0.4148  0.1824  0.0647
12800W        W33080  17.799   0.271  14.579  0.2668  0.1702 -0.1705
12801W        W33081   0.313  15.591   0.855 -0.2866 -0.1466 -0.1557
12802W        W33082  18.712   7.506  11.757 -0.4015  0.2202 -0.2334
12803W        W33083  13.317  18.287   0.954  0.0046 -0.1470 -0.2233
12804W        W33084  16.050  14.235   2.983  0.2695 -0.0361 -0.0960
12805W        W33085   3.859  11.176  12.262 -0.2522 -0.0885 -0.1828
12806W        W33086   6.161  17.921  14.338 -0.2135  0.3392 -0.1016
12807W        W33087  17.602  13.380  13.999 -0.1409  0.2649 -0.2943
12808W        W33088  15.394   4.838  12.161  0.3033  0.3735  0.0316
12809W        W33089   7.090   8.141  12.543  0.1060  0.1607  0.1637
12810W        W33090   8.730  13.311  14.780 -0.2242  0.1087  0.1686
12811W        W33091  15.293   6.210   0.618 -0.0416  0.2494  0.1243
12812W        W33092   7.710  12.565  12.746  0.0463  0.1857  0.1239
12813W        W33093  12.490   3.486   3.589  0.2869  0.4491  0.0981
12814W        W33094   6.364  16.419  15.276 -0.5670  0.0632  0.2573
12815W        W33095  16.257   0.160  12.556  0.2118 -0.1380  0.1966
12816W        W33096   3.909  14.180  11.290  0.0057 -0.0777  0.1132
12817W        W33097  12.274  10.094   0.707  0.1346 -0.4241  0.0675
12818W        W33098   0.088  17.231  11.810  0.1085 -0.1684  0.0188
12819W        W33099   3.401  11.258   1.098 -0.0324 -0.2149  0.0463
12820W        W33100   3.306   4.336  15.106 -0.0775  0.4535 -0.0445
12821W        W33101   1.872   1.666   2.575  0.1048 -0.0241 -0.2006
12822W        W33102  13.514   5.987  15.080 -0.0412 -0.3234  0.1538
12823W        W33103   1.115  13.124   0.022  0.1554  0.0379  0.0220
12824W        W33104   6.268  10.673   3.275  0.2283 -0.1180 -0.1716
12825W        W33105   9.429   7.667   1.246  0.0619 -0.0017 -0.0580
12826W        W33106  18.311  14.691  14.135 -0.2432  0.0833 -0.1139
12827W        W33107  12.375   8.177  11.248  0.0422  0.0229  0.0141
12828W        W33108  15.814  17.709   1.322 -0.2233 -0.1781  0.0683
12829W        W33109  17.402  11.669  10.137 -0.1292  0.0804  0.2440
12830W        W33110   9.645  14.030   1.914 -0.1277  0.4283 -0.0977
12831W        W33111   3.146  10.436  14.070  0.0668  0.0938  0.0318
12832W        W33112   2.804   3.287   1.213  0.0498  0.0270 -0.1552
12833W        W33113   1.866   8.995   2.782 -0.1642  0.0555 -0.2724
12834W        W33114  14.604  15.128  15.387  0.2304 -0.0606 -0.1428
12835W        W33115  11.274   9.857   2.889 -0.2640  0.2510 -0.3124
12836W        W33116   9.672   1.209   0.357 -0.3976 -0.1259  0.3076
12837W        W33117  10.543   3.417  15.200  0.0587  0.0765  0.1107
12838W        W33118   9.291  14.555   3.888  0.3117  0.0723  0.0235
12839W        W33119   4.664   4.253  11.451 -0.0454  0.1056 -0.0247
12840W        W33120   8.762  10.126   2.810  0.2555 -0.1251 -0.0598
12841W        W33121  16.335   9.687   4.489  0.0087 -0.2086  0.1407
12842W        W33122  14.372   3.352  12.113 -0.1596 -0.0338 -0.1128
12843W        W33123  13.440  10.539  12.139 -0.3178  0.2199 -0.3371
12844W        W33124   6.512  15.441  14.248  0.0515  0.1559  0.1167
12845W        W33125   8.966  15.920  11.441  0.0550  0.1665 -0.0160
12846W        W33126   3.329   1.775   0.567  0.2398 -0.0688 -0.0228
12847W        W33127   2.056  15.486  13.735 -0.0131  0.0221  0.1327
12848W        W33128   7.120   4.169  11.071 -0.0778  0.1900 -0.0885
12849W        W33129  11.840   2.789   0.728 -0.0176 -0.0047  0.1534
12850W        W33130  17.592  11.542   3.519  0.0840 -0.4075  0.0095
12851W        W33131  15.382   8.320  11.932  0.0404 -0.1058 -0.5503
12852W        W33132  13.357  10.627  14.917 -0.1612 -0.1547  0.1088
12853W        W33133  13.079  13.041  12.113 -0.1135 -0.0392  0.0173
12854W        W33134  13.941   3.714   1.736  0.2598  0.0667  0.0229
12855W        W33135  12.187   8.727   4.841  0.0883  0.0855  0.0863
12856W        W33136   7.878   7.684   4.361 -0.0561  0.0963  0.1510
12857W        W33137   4.098   5.672   1.186 -0.0515 -0.3332  0.0772
12858W        W33138   8.238   1.646   1.660 -0.1879  0.2845 -0.2103
12859W        W33139  15.886   7.029  12.288  0.0740  0.1045  0.3240
12860W        W33140   7.124   3.440   2.895 -0.1042  0.1620 -0.0031
12861W        W33141  14.916   8.110  13.298 -0.0917  0.2289  0.2308
12862W        W33142  10.476   0.612   2.750  0.2697 -0.1096 -0.0260
12863W        W33143   2.708   7.680  12.938  0.0421 -0.0994 -0.3443
12864W        W33144  14.667  17.492  11.391 -0.1997 -0.3808  0.1951
12865W        W33145   7.720  13.101   3.551 -0.0657  0.0128 -0.0629
12866W        W33146  10.594   9.545  12.092 -0.2670  0.0160  0.0785
12867W        W33147  17.181  18.216  15.003  0.0383 -0.0084 -0.0536
12868W        W33148  10.715   0.901  15.101 -0.0330  0.4167  0.2318
12869W        W33149  15.708  10.059   2.803  0.0106  0.1366  0.1406
12870W        W33150   9.627  16.822   0.187 -0.1755 -0.2910 -0.0064
12871W        W33151  10.132   7.656   0.733  0.0503  0.1742  0.2907
12872W        W33152  14.375   2.894  14.593  0.0123  0.1061 -0.0733
12873W        W33153   9.032   7.886  12.208 -0.4360 -0.1203  0.1488
12874W        W33154  13.569   9.881  13.000  0.0507 -0.3315  0.0740
12875W        W33155   9.867   7.088   1.489 -0.1919 -0.1639 -0.2332
12876W        W33156  15.094   1.697  13.964  0.0202  0.1595 -0.0516
12877W        W33157   6.075   3.138  12.132  0.1674  0.0634 -0.0632
12878W        W33158   1.056   1.173  13.644 -0.1702 -0.1645  0.2842
12879W        W33159  15.326   8.598  10.983 -0.0765 -0.1255 -0.4065
12880W        W33160   4.672   9.942   3.157  0.0162  0.0917 -0.1937
12881W        W33161  13.717   1.869  13.415  0.1299  0.0397 -0.1478
12882W        W33162  13.227  17.623  14.107 -0.1021  0.2825  0.0675
12883W        W33163  18.570   6.891   1.128  0.1845  0.1209 -0.1386
12884W        W33164   6.813  18.707  11.165 -0.0871  0.0501 -0.0286
12885W        W33165   2.520   8.123   1.005  0.0589 -0.1907  0.0950
12886W        W33166   4.047  11.382  11.517 -0.0005 -0.2343  0.0006
12887W        W33167   5.827  11.553   1.872 -0.1128  0.1438 -0.0543
12888W        W33168  15.550   5.317  13.363 -0.0779 -0.4058 -0.2637
12889W        W33169  12.047  12.757   1.623  0.0442  0.0493  0.0593
12890W        W33170  14.476   0.919   2.580  0.0146 -0.0543  0.0719
12891W        W33171  18.688  11.676   0.095  0.1789  0.0949 -0.0367
12892W        W33172  10.005  12.864   3.939  0.1282  0.1920  0.0429
12893W        W33173  14.867  13.337   3.705  0.3444  0.3529  0.1656
12894W        W33174  16.220   6.059  14.727  0.0705  0.0257 -0.0584
12895W        W33175   4.657   7.032   2.073  0.2076  0.2739  0.0535
12896W        W33176   4.232   0.293  10.733 -0.1002  0.1237 -0.3579
12897W        W33177  10.552  13.160   3.182 -0.0231 -0.1849 -0.0193
12898W        W33178  13.213   1.854  13.222 -0.1311  0.0364 -0.3322
12899W        W33179   5.624  12.801   3.932  0.2511 -0.0838  0.6272
12900W        W33180  18.639  12.959   0.757  0.2050 -0.1206  0.0422
12901W        W33181  15.050   1.181  14.236 -0.2495  0.0634 -0.1199
12902W        W33182   2.331   9.572  11.118  0.1677 -0.0039  0.0646
12903W        W33183   3.807   8.338   4.238 -0.1713  0.0514 -0.4754
12904W        W33184   2.080  13.447  15.134  0.1484 -0.4019  0.2781
12905W        W33185   7.820   6.356  12.547  0.2661  0.1600 -0.2234
12906W        W33186   4.030   5.105  13.021 -0.1900 -0.0527  0.3177
12907W        W33187   2.576  12.125  11.061 -0.3189  0.1438  0.1620
12908W        W33188   3.028   3.848  11.346 -0.3195  0.5588 -0.0903
12909W        W33189  10.125   8.797  13.481 -0.1444 -0.0332 -0.2513
12910W        W33190  14.593   6.346  14.970 -0.2692  0.2200  0.1267
12911W        W33191   8.786   4.515   3.909  0.1103 -0.0183 -0.0726
12912W        W33192  11.412   5.518   4.643  0.2924 -0.3445 -0.0348
12913W        W33193   0.678   0.676  13.317 -0.0456 -0.0833 -0.0636
12914W        W33194  18.294   7.332   1.294  0.1645 -0.1853  0.0596
12915W        W33195   1.901   1.205  11.971 -0.2820  0.1270 -0.2237
12916W        W33196  18.484   9.320   1.171 -0.0918 -0.1178 -0.0579
12917W        W33197   4.215  16.242  15.256 -0.0357  0.1274  0.1322
12918W        W33198  10.163  17.933  15.240 -0.1112  0.1537  0.0833
12919W        W33199  15.073  18.186   3.185  0.2000  0.0186  0.1715
12920W        W33200   2.369  17.108  14.263 -0.0047  0.0677  0.3928
12921W        W33201  15.064  14.336   0.084  0.0113 -0.1113 -0.2288
12922W        W33202  18.714   8.389  11.799 -0.2362 -0.0558 -0.1325
12923W        W33203   4.781   8.345  13.656  0.1618  0.0115  0.2392
12924W        W33204   6.241   7.773   1.560 -0.0893 -0.1315  0.2351
12925W        W33205   8.444   7.619   4.210 -0.0829  0.0876  0.2343
12926W        W33206  16.792  15.868   2.683  0.1237 -0.1737  0.1041
12927W        W33207   0.782   3.828  11.107 -0.0458  0.2843  0.4383
12928W        W33208  13.955  15.200  14.873  0.0695  0.1243  0.1787
12929W        W33209   9.210  17.871   3.156  0.0948  0.0627 -0.0424
12930W        W33210   0.731  16.555  12.320  0.0554  0.0983  0.0021
12931W        W33211  11.588  13.654   1.614  0.0486  0.2325 -0.2551
12932W        W33212   8.826  11.700  12.712  0.2285 -0.1540  0.1941
12933W        W33213   1.923  13.039  11.755 -0.0050  0.1069 -0.1247
12934W        W33214   3.357   2.296   2.863  0.1475  0.2864  0.2148
12935W        W33215   3.666   2.638   4.955 -0.1405 -0.1952 -0.3510
12936W        W33216  10.731   1.411  13.384  0.1275  0.0302 -0.1182
12937W        W33217   5.117  14.742  13.894  0.4098 -0.1726  0.3509
12938W        W33218  17.373   1.409  14.129 -0.0031  0.0148 -0.0050
12939W        W33219   9.966  16.636   1.031  0.0671 -0.4174  0.0797
12940W        W33220   1.967   5.049   3.369 -0.1138  0.0281  0.4457
12941W        W33221  16.114   5.035  12.061  0.0281  0.2526  0.0680
12942W        W33222   5.389   7.454   1.215 -0.2656  0.2224 -0.1845
12943W        W33223   4.251   5.474  13.955  0.1231  0.1106 -0.4791
12944W        W33224   4.618   4.668   3.964 -0.1028 -0.1658 -0.0907
12945W        W33225   2.486   5.474  13.377  0.0815  0.0828  0.1621
12946W        W33226  12.548  16.492   3.032  0.0866  0.0597  0.1352
12947W        W33227  13.659   3.209   0.781 -0.0055  0.2918 -0.0966
12948W        W33228   7.214   2.970   2.702 -0.0395  0.0689 -0.0939
12949W        W33229   4.420  13.288   0.885 -0.0249 -0.0818  0.2125
12950W        W33230  15.196   3.454  11.353 -0.1593  0.2352 -0.0054
12951W        W33231   1.764  17.916   2.288  0.1170 -0.0617 -0.2599
12952W        W33232   9.661  18.087  13.286 -0.1709 -0.0601 -0.2813
12953W        W33233   4.700  10.722  15.089 -0.0010 -0.2061  0.0766
12954W        W33234   7.912   8.314  11.145 -0.0349  0.3715  0.0506
12955W        W33235   4.525   2.948   4.403 -0.1584  0.0520 -0.2373
12956W        W33236  13.294  17.245   3.159 -0.3739  0.3112 -0.2801
12957W        W33237  17.482   7.440  11.561  0.0590 -0.0622  0.0331
12958W        W33238  10.818   0.143  11.167  0.2109  0.0067 -0.0945
12959W        W33239  17.223   0.804   1.753 -0.0377  0.0686  0.1751
12960W        W33240   8.792   9.604   1.872 -0.0732  0.0077  0.0802
12961W        W33241   6.987   6.776  11.134  0.1529 -0.1611  0.2278
12962W        W33242  13.102  14.683   4.320  0.1842 -0.3322  0.0639
12963W        W33243   7.778   6.871   4.546  0.1825  0.1208  0.0348
12964W        W33244   7.425   1.253   2.788 -0.1337 -0.1299 -0.1873
12965W        W33245  17.457  15.246   1.213 -0.1120 -0.0771  0.2146
12966W        W33246   9.373   8.323   4.802  0.0417  0.1377 -0.0907
12967W        W33247   6.113   8.308   2.048  0.0318 -0.1680  0.0931
12968W        W33248  17.566  16.872   3.069 -0.0801 -0.1122 -0.1400
12969W        W33249  17.097   4.891  12.271  0.1506 -0.1967  0.0900
12970W        W33250   9.944  14.131  13.966  0.1983  0.4456  0.0014
12971W        W33251   9.076  15.308   2.256  0.2270  0.0789 -0.2690
12972W        W33252   4.430  16.325  13.069 -0.3096 -0.0858  0.1072
12973W        W33253  12.534   0.557  11.601  0.1793  0.1405  0.0091
12974W        W33254  14.576  10.557   2.124 -0.2393 -0.1224 -0.0438
12975W        W33255  16.293  13.834   4.825 -0.0538 -0.1876  0.0487
12976W        W33256  14.654  16.162   3.942 -0.1516  0.3702  0.2036
12977W        W33257   8.348   2.929   3.575  0.3896 -0.0641  0.2420
12978W        W33258   3.656   6.693  13.883 -0.0001  0.1281 -0.3324
12979W        W33259   5.828  16.596   2.322  0.1120 -0.0173 -0.0578
12980W        W33260  17.665   9.489  14.575 -0.0520  0.0016  0.0032
12981W        W33261   0.694  10.227  13.856  0.1175 -0.2045 -0.1348
12982W        W33262   8.155   7.179   4.421 -0.0762  0.0842 -0.0740
12983W        W33263  16.125   9.584   2.022  0.0224  0.1655  0.1492
12984W        W33264   4.839  15.433   1.149 -0.1558 -0.2424  0.1943
12985W        W33265   6.944   6.059  13.340 -0.3930 -0.2666 -0.0545
12986W        W33266  15.420   0.257   1.885  0.3464 -0.4175  0.1210
12987W        W33267  15.734   9.181  11.433  0.0882 -0.0152  0.0988
12988W        W33268   5.686  18.343   3.394  0.0598 -0.0083 -0.0675
12989W        W33269  14.965  18.671  15.098  0.1654 -0.0161 -0.0309
12990W        W33270  12.120  17.003  14.672 -0.0965  0.0273  0.1790
12991W        W33271  10.249  13.493  13.338  0.0908  0.0743  0.0964
12992W        W33272  11.903  13.709   1.168  0.1452  0.0009  0.2140
12993W        W33273   9.882   0.436  15.160  0.0523  0.1549  0.0618
12994W        W33274  18.551   1.265  11.512 -0.2651 -0.2551  0.2215
12995W        W33275   0.487   8.385   0.362  0.2357  0.1709 -0.0245
12996W        W33276   4.505  14.099  11.019  0.2038 -0.1373 -0.2577
12997W        W33277   9.833  14.634  14.725  0.1623 -0.0253 -0.0303
12998W        W33278   9.794   5.952   0.692 -0.1012 -0.2134 -0.1248
12999W        W33279   5.690  12.997  12.920 -0.1077  0.1726  0.1572
13000W        W33280  14.815   9.240  12.464  0.0571  0.3117  0.0862
13001W        W33281   2.444   1.246  13.921  0.0291  0.0641  0.0420
13002W        W33282   5.102  10.861  11.550  0.0095  0.1873 -0.0342
13003W        W33283   1.663   4.315   2.678 -0.1181  0.1265  0.2636
13004W        W33284  11.838   6.265  11.439  0.2526 -0.2345 -0.1016
13005W        W33285   1.267  13.231  13.603 -0.3078  0.0971 -0.0139
13006W        W33286  14.532  10.127   2.365  0.2416  0.2697 -0.1988
13007W        W33287   5.014  16.995  10.865 -0.1929 -0.0858  0.1686
13008W        W33288   1.557  13.887   2.800 -0.0234  0.0572  0.3269
13009W        W33289   8.473   0.906  14.048  0.3155 -0.2214  0.1486
13010W        W33290  13.314   0.746  11.781 -0.0217 -0.0156 -0.1924
13011W        W33291   9.279   0.141   3.013 -0.4166  0.0110  0.2404
13012W        W33292  17.223  12.782   3.058  0.1916 -0.1407 -0.0858
13013W        W33293  18.067  13.523  12.594 -0.3270 -0.0323  0.0654
13014W        W33294  12.766   5.638   3.937 -0.1380  0.1392 -0.1900
13015W        W33295  13.322  13.905  14.046  0.0844  0.2310 -0.1399
13016W        W33296  14.685   8.795  10.495 -0.2497 -0.2253  0.0180
13017W        W33297  14.911   0.684   0.806 -0.0069 -0.1262 -0.3029
13018W        W33298  14.436  12.167   0.022  0.3225  0.1457  0.0705
13019W        W33299   5.500   4.986  13.057  0.0801 -0.3034  0.1426
13020W        W33300  17.959  16.760  12.208  0.1708 -0.0788 -0.1357
13021W        W33301   0.284   0.592  13.589 -0.4680 -0.1989 -0.0187
13022W        W33302   3.184  12.138   2.088 -0.0243  0.3556 -0.1808
13023W        W33303   2.167   5.949   0.108  0.0612  0.0285 -0.1052
13024W        W33304   6.433   1.211  14.535  0.0420 -0.2388  0.2560
13025W        W33305   8.998   5.862   2.556  0.2243  0.0084  0.0878
13026W        W33306   2.012   4.932   2.401  0.0882 -0.3157  0.2459
13027W        W33307   8.551  16.185  11.716 -0.0949 -0.1400  0.1298
13028W        W33308   2.554  15.955   2.220 -0.0738 -0.0076  0.2912
13029W        W33309   9.548  12.249   2.649  0.0919  0.0656 -0.0562
13030W        W33310   5.530   1.266   3.402  0.1331  0.1322  0.2929
13031W        W33311  14.430  13.573  12.622  0.1791  0.2020 -0.4220
13032W        W33312   3.557   8.722   5.113 -0.1735  0.0513 -0.0516
13033W        W33313   1.568   9.188  15.389 -0.2137  0.1008 -0.0458
13034W        W33314   5.537   7.930   2.285 -0.0110  0.0724 -0.0227
13035W        W33315   8.354   3.137  13.594 -0.0840  0.1385 -0.1143
13036W        W33316  14.741   4.081  12.378  0.0847 -0.0731  0.1130
13037W        W33317   7.265  15.912  13.493  0.0147  0.3464  0.0565
13038W        W33318   0.413   1.808  14.317  0.3218 -0.2167 -0.2402
13039W        W33319  18.395   8.013  13.581  0.0265  0.0979 -0.4504
13040W        W33320   7.776   2.968   4.348 -0.1525  0.2233 -0.0528
13041W        W33321   3.032   6.373   3.749 -0.0634  0.2135 -0.1953
13042W        W33322   0.722   6.003   0.831 -0.3592  0.3462  0.1293
13043W        W33323  11.218  16.123  14.390 -0.1460 -0.2585  0.2768
13044W        W33324   9.225   5.211   3.354  0.3358  0.2445  0.2202
13045W        W33325  17.312   2.246  12.486  0.1859 -0.2545 -0.2277
13046W        W33326  16.811  14.060   3.256  0.1392 -0.0010  0.0406
13047W        W33327   6.952   0.424   1.956  0.0919  0.2290 -0.0799
13048W        W33328  12.385   6.416   2.883  0.1428 -0.0975 -0.0109
13049W        W33329  10.071   1.477   1.555 -0.1519  0.2284  0.3095
13050W        W33330   7.235   1.576  14.150  0.2047 -0.2119 -0.0047
13051W        W33331  10.898   5.494  12.803  0.0726 -0.0787  0.0741
13052W        W33332   8.067  18.226   3.042 -0.0468  0.2723 -0.1860
13053W        W33333   3.117   0.063  14.444  0.0745 -0.2337 -0.0752
13054W        W33334  16.055  16.213   3.492  0.1567 -0.1315 -0.1248
13055W        W33335   5.760   5.111  14.828 -0.1031 -0.1637 -0.0986
13056W        W33336  13.113  18.613  11.168 -0.3226  0.0837 -0.3354
13057W        W33337  16.227   0.778  15.049  0.2372  0.2374 -0.0378
13058W        W33338   2.654   5.367  11.300  0.2166 -0.0143 -0.1167
13059W        W33339   4.989  10.434  12.649 -0.1326 -0.1212  0.3221
13060W        W33340   7.115   5.625  13.252 -0.0710  0.1365  0.2293
13061W        W33341  15.836   9.182   1.694 -0.1248 -0.0228 -0.0122
13062W        W33342  11.287  15.161  12.642 -0.1129  0.1423  0.1957
13063W        W33343  14.766   2.629   0.134 -0.2054  0.0268  0.0184
13064W        W33344   3.505   3.753   3.324  0.2659  0.0224  0.0716
13065W        W33345   4.241  14.627   0.794  0.1614 -0.0485 -0.0032
13066W        W33346  17.512   2.376  11.506  0.0432  0.2005  0.1816
13067W        W33347   6.444   6.329  11.502 -0.2376  0.1697  0.3034
13068W        W33348  11.921   4.150  14.348  0.0723 -0.2276 -0.1801
13069W        W33349   9.686   0.243  11.324 -0.1727  0.2369  0.1575
13070W        W33350   2.778   1.005   3.446  0.0899  0.1382  0.3664
13071W        W33351   9.116  10.430   3.129 -0.0813  0.0204 -0.0512
13072W        W33352  16.657  18.193  15.066 -0.0035  0.1277  0.1917
13073W        W33353   4.431  11.558   1.339  0.0707  0.2930  0.0312
13074W        W33354  13.786  14.470  12.096 -0.0989  0.1675 -0.0427
13075W        W33355  18.403   3.907   0.309 -0.0946 -0.1234 -0.0679
13076W        W33356   0.965   3.372  14.853 -0.2755  0.3307 -0.0956
13077W        W33357   7.853   4.583  12.263  0.0503 -0.1217  0.2797
13078W        W33358   5.160   7.297  15.302 -0.0456 -0.0046 -0.1077
13079W        W33359  14.231  17.248  12.608 -0.1062  0.0992  0.0938
13080W        W33360   7.615  12.209  14.817  0.1584  0.2012 -0.0705
13081W        W33361  15.263  11.670  14.155 -0.0199  0.0037  0.0098
13082W        W33362  10.149   0.597  11.532 -0.0113 -0.0988 -0.0556
13083W        W33363   5.016   7.677   1.503 -0.1709  0.4449 -0.2663
13084W        W33364   4.608  15.323  13.854  0.0951 -0.0474 -0.0087
13085W        W33365  11.788  13.558  11.647  0.0222 -0.0044  0.0774
13086W        W33366   0.664  13.205  15.057  0.0406 -0.0456 -0.2272
13087W        W33367  13.671   1.519  12.295 -0.0895  0.0998 -0.1003
13088W        W33368   9.611   2.315  12.522 -0.1563  0.0099  0.0598
13089W        W33369   6.148   1.536  13.820 -0.0063 -0.0847  0.0798
13090W        W33370   2.291  16.340   2.334  0.1233 -0.0315 -0.0816
13091W        W33371   9.440  16.934   4.067 -0.3002 -0.1920 -0.2107
13092W        W33372   3.990   1.359   4.004 -0.0453  0.0201 -0.0440
13093W        W33373   3.922   2.613   0.626 -0.2013 -0.1118 -0.0097
13094W        W33374  17.010  15.125   1.292  0.1222 -0.3535 -0.0650
13095W        W33375   9.424   1.264  11.999  0.3346 -0.0168  0.0224
13096W        W33376   7.106   3.073  11.331  0.0962 -0.0895 -0.0260
13097W        W33377  18.185  13.512  12.058 -0.0355 -0.0286 -0.2670
13098W        W33378  14.888   3.540  12.313 -0.2496 -0.0927  0.0424
13099W        W33379   2.339  10.440   2.290  0.0740  0.2760 -0.1443
13100W        W33380   5.741   7.109  11.176 -0.2715 -0.1285  0.1852
13101W        W33381  16.121  14.505  13.522  0.0219  0.0300 -0.0210
13102W        W33382  14.595   2.124   0.112  0.1262  0.0334 -0.0838
13103W        W33383   7.242   5.155  11.226 -0.3063  0.0370  0.1140
13104W        W33384  18.336  10.630   5.341  0.0399  0.0487  0.2331
13105W        W33385   1.976  16.325   0.746 -0.1041 -0.1396  0.0647
13106W        W33386   0.797   5.673  12.861 -0.0396 -0.0075 -0.2336
13107W        W33387   0.934   4.048  15.060 -0.2335 -0.1717 -0.0569
13108W        W33388   5.690  10.555   1.210 -0.0167 -0.0218 -0.1140
13109W        W33389   6.015  18.356  15.200 -0.0168 -0.2345 -0.1664
13110W        W33390   1.555   9.523  11.426 -0.0871  0.3220  0.0783
13111W        W33391  17.403   3.112   2.915 -0.0854  0.0573 -0.0436
13112W        W33392   1.757   1.903   3.317 -0.1791 -0.1299  0.0193
13113W        W33393   3.946  17.706   1.325 -0.1424  0.1416  0.2374
13114W        W33394   4.637  15.957   1.128  0.1031 -0.0571  0.1278
13115W        W33395   1.945   9.611   0.261  0.0723 -0.2602 -0.0107
13116W        W33396  13.827  11.608   1.830  0.0260 -0.0782  0.0021
13117W        W33397   1.511   9.294   2.586 -0.2604  0.1010  0.1328
13118W        W33398   4.679   0.622  11.517 -0.0569 -0.0306 -0.0818
13119W        W33399  17.397  13.721  11.637 -0.1514 -0.1879 -0.1075
13120W        W33400  15.716  16.911  12.403  0.2154 -0.0211 -0.1760
13121W        W33401   6.021   4.034  14.043 -0.1572 -0.1316  0.1022
13122W        W33402   1.557  15.802   5.850  0.0808  0.0214 -0.1034
13123W        W33403   5.796   3.531   2.554  0.0087  0.1133 -0.1656
13124W        W33404  12.214  12.842  15.362 -0.2334  0.1925 -0.0755
13125W        W33405  18.507   2.978   4.561  0.0806  0.1353  0.0156
13126W        W33406  11.647   4.356  15.163  0.0944 -0.0148  0.0559
13127W        W33407  17.637   4.924   2.704 -0.1387 -0.1244  0.1119
13128W        W33408   4.614   8.763  14.602 -0.0272 -0.0971 -0.1369
13129W        W33409  13.731  13.899   1.180  0.1706 -0.1094  0.1319
13130W        W33410   1.264   1.855   1.268 -0.2193  0.0602  0.3052
13131W        W33411   5.357  18.703   4.030  0.0943 -0.3413 -0.4718
13132W        W33412   6.517   3.648  12.746 -0.1204 -0.3770  0.1527
13133W        W33413  13.680  14.168  11.252  0.1051  0.4437  0.2997
13134W        W33414  12.795   8.102   1.428  0.1125 -0.2211  0.0539
13135W        W33415  11.166   2.829  13.045  0.1526 -0.1326  0.0696
13136W        W33416  12.249   9.100  10.889  0.1645 -0.0011 -0.0623
13137W        W33417   2.837  16.588  11.001  0.3240  0.1475  0.1504
13138W        W33418  12.642   8.787   0.132 -0.1602 -0.1074 -0.4666
13139W        W33419  12.782  14.349  11.508  0.1402 -0.2082  0.0927
13140W        W33420   7.446  17.700   3.967  0.0600 -0.3352 -0.0620
13141W        W33421  13.501   8.306  11.882  0.2159 -0.4998  0.0360
13142W        W33422  17.147  15.433  11.135  0.1331 -0.0383  0.0594
13143W        W33423  16.662   5.284   1.142 -0.0722 -0.2274  0.0841
13144W        W33424  17.222   0.912   3.498 -0.1078 -0.3721 -0.0105
13145W        W33425   8.213   3.969  13.749 -0.1502 -0.1039  0.1646
13146W        W33426   5.813   6.141   2.588 -0.0574 -0.0576  0.3086
13147W        W33427  11.755   2.814  11.308 -0.1932 -0.0644  0.1481
13148W        W33428   8.518  18.573  14.306  0.0760 -0.2220 -0.0320
13149W        W33429   1.508   3.201   1.326  0.2348  0.1004 -0.0761
13150W        W33430  11.685   7.202  14.043  0.2103  0.3096 -0.0180
13151W        W33431  10.478  16.760  13.907 -0.0580 -0.1643 -0.1031
13152W        W33432   8.406  10.392  12.355  0.0580 -0.0175  0.2591
13153W        W33433  17.765   7.699   2.163  0.0661  0.0399  0.3346
13154W        W33434   4.183   4.437   3.770  0.1345 -0.1860 -0.1005
13155W        W33435  11.937  11.014   3.899 -0.1300 -0.1150 -0.0952
13156W        W33436   5.730  10.671   2.955  0.3143 -0.0741  0.0524
13157W        W33437   4.921  18.207   2.428 -0.1594 -0.0401  0.0364
13158W        W33438   4.507  10.078  15.321  0.2769  0.1320  0.1278
13159W        W33439   6.909   6.129  11.921 -0.0422 -0.0567 -0.1763
13160W        W33440   0.026  15.667   0.454 -0.1089 -0.0231  0.1991
13161W        W33441  18.447   6.288   3.155 -0.1183  0.1139  0.4224
13162W        W33442  12.550   2.636  11.948  0.1381 -0.1861  0.0241
13163W        W33443  16.086   6.393   5.772  0.1427  0.0081 -0.3546
13164W        W33444   1.481   5.797   4.707 -0.0832 -0.0600 -0.3938
13165W        W33445   1.689  15.779  14.704 -0.0690  0.3583  0.4466
13166W        W33446  11.704   5.192   0.106  0.1188 -0.0683 -0.1493
13167W        W33447   7.237  12.878  11.679 -0.2184  0.2562  0.2218
13168W        W33448  14.729  16.323  12.523  0.1291  0.0180 -0.4065
13169W        W33449  15.714   2.637  13.094  0.0330  0.1003 -0.0557
13170W        W33450  17.606   4.216   0.388  0.0357 -0.2038  0.1195
13171W        W33451  17.352   7.509  15.349 -0.5495  0.0055  0.0168
13172W        W33452   1.946   0.449   3.982  0.2792  0.0300  0.2393
13173W        W33453   5.018  17.727  10.366 -0.2360 -0.0297  0.0186
13174W        W33454  17.883  10.772  11.142 -0.0837 -0.0508  0.0691
13175W        W33455   2.146   5.383  11.403 -0.2114  0.2082 -0.0987
13176W        W33456   0.717   8.319   1.669 -0.0572 -0.1234  0.1901
13177W        W33457  17.699  16.437   1.667  0.0324  0.0162 -0.3082
13178W        W33458   8.981   9.697   5.055  0.2583 -0.0957 -0.3030
13179W        W33459  15.380   3.438  12.336  0.0820  0.3164 -0.1915
13180W        W33460  17.168   7.262   4.054  0.3191 -0.0770 -0.0052
13181W        W33461   3.150   7.593   3.234  0.3254 -0.1278 -0.0512
13182W        W33462   4.803   7.430   0.435 -0.0860 -0.0928  0.0565
13183W        W33463   8.510   2.663  12.723 -0.0575  0.1194  0.0807
13184W        W33464  14.309  12.055   3.479 -0.1538  0.2241 -0.1537
13185W        W33465   4.936  12.258  15.084 -0.1424  0.3296  0.1598
13186W        W33466  10.500   6.361   1.190 -0.2718  0.0405 -0.0795
13187W        W33467  10.027  14.441   3.501 -0.1433 -0.1868  0.0171
13188W        W33468   1.502   5.979  12.028  0.1525  0.0320 -0.0783
13189W        W33469   0.968   3.325   0.989  0.1343  0.0364 -0.1333
13190W        W33470   6.643   1.360   0.512  0.1844 -0.1110 -0.2042
13191W        W33471   7.634  17.815  10.530 -0.2290 -0.0238  0.1462
13192W        W33472   4.151   2.889   2.012  0.2913  0.1575  0.4936
13193W        W33473   8.577  11.818  14.913  0.0362 -0.1489 -0.1292
13194W        W33474  12.891  15.293  14.153  0.0037 -0.0557 -0.0227
13195W        W33475   6.519   2.790  13.503 -0.3873 -0.0367 -0.2383
13196W        W33476  14.954   2.391  12.005 -0.2508 -0.1607  0.3684
13197W        W33477   3.889  15.425   4.003 -0.4075 -0.2501  0.0408
13198W        W33478  14.812   3.237  11.757 -0.0908 -0.1580  0.4407
13199W        W33479  16.804   6.148   1.641  0.0755  0.0164  0.0192
13200W        W33480   0.512  10.023   3.943  0.2931  0.0363 -0.0524
13201W        W33481  16.873   8.536   0.172  0.1654  0.1667 -0.2424
13202W        W33482   5.197   0.555   2.379  0.1957  0.1666 -0.0025
13203W        W33483  18.242  12.750   3.146 -0.2133  0.0266  0.0469
13204W        W33484   5.912  15.194   1.189 -0.1309  0.0618 -0.0820
13205W        W33485  12.923  15.985   3.377 -0.3941  0.0673 -0.3010
13206W        W33486   3.073  17.546  12.780  0.1159  0.1370  0.1779
13207W        W33487   5.581   2.567   1.736  0.1621 -0.2244  0.0870
13208W        W33488  12.178   7.419  12.640  0.0016  0.1440  0.0218
13209W        W33489  13.732  18.071   2.127 -0.1260 -0.0785 -0.5222
13210W        W33490   3.132  10.603   2.789  0.2338 -0.1792 -0.0671
13211W        W33491   1.902  10.040   3.000 -0.0633 -0.1799  0.0675
13212W        W33492   2.920   5.444   3.612  0.4774 -0.0530 -0.0324
13213W        W33493  16.629  14.548  15.112  0.3271  0.1464 -0.1796
13214W        W33494  12.036   5.928  14.246 -0.0922  0.1360 -0.0150
13215W        W33495   8.485  12.954  12.704 -0.1463 -0.1328  0.0839
13216W        W33496  11.651   4.826  11.883 -0.1983 -0.0887  0.1803
13217W        W33497   5.278  13.549   4.456 -0.2128 -0.2761  0.3933
13218W        W33498   7.843   8.671  11.889  0.3002  0.0870  0.1476
13219W        W33499   1.105  17.852   2.805  0.2458 -0.1799  0.2312
13220W        W33500   9.667  11.115   0.649  0.0214 -0.4758  0.1763
13221W        W33501  11.535  11.603   3.329  0.3013  0.1279  0.3211
13222W        W33502  17.603  15.873   5.552  0.0555  0.0010 -0.2109
13223W        W33503  11.587   2.562  11.835 -0.1709  0.2083 -0.0374
13224W        W33504  10.981   2.511   0.847  0.2880  0.3146 -0.0068
13225W        W33505   0.931  13.888  12.898 -0.1378 -0.0236  0.0233
13226W        W33506   0.729  15.305  11.508  0.1351 -0.2333  0.1371
13227W        W33507  17.197   6.058   4.497 -0.2788 -0.0489 -0.1033
13228W        W33508  17.279   4.326   3.363 -0.2629  0.2522  0.0587
13229W        W33509   4.785  11.695   2.367  0.0066 -0.1072  0.1086
13230W        W33510  14.112  14.992  15.328  0.2530 -0.0734 -0.0731
13231W        W33511   7.257  16.638   2.103 -0.1664 -0.1426  0.0239
13232W        W33512  16.557  12.780   0.010 -0.0814  0.2000  0.1873
13233W        W33513   3.933   7.648  13.790  0.2644 -0.2540 -0.0013
13234W        W33514   9.883   2.571  14.241  0.2410 -0.1456  0.0743
13235W        W33515   2.031   9.209   0.781 -0.2157  0.2580 -0.0004
13236W        W33516   7.710  15.888  14.468  0.0613  0.2927 -0.1356
13237W        W33517  13.241   4.960   1.421 -0.1699  0.1634 -0.0939
13238W        W33518   2.962  12.263   3.363 -0.1281 -0.0675  0.3641
13239W        W33519  10.411   3.069  11.096 -0.2754 -0.2413 -0.1126
13240W        W33520   8.805   9.759  12.360  0.2137 -0.1583  0.0152
13241W        W33521  12.580   3.574  12.336  0.0074 -0.0074 -0.0011
13242W        W33522   6.504  12.790  14.893  0.0031  0.2162  0.0207
13243W        W33523  12.632  12.825   0.363 -0.0892 -0.3603 -0.1652
13244W        W33524  11.007   8.553  14.748 -0.3250 -0.4517  0.1704
13245W        W33525   2.149  10.893   2.982 -0.0781 -0.1780  0.4580
13246W        W33526  16.647   5.370   1.918  0.0803  0.1533 -0.2729
13247W        W33527  18.634   9.618   4.646  0.1273 -0.2478  0.1426
13248W        W33528  12.072  16.374  12.649 -0.1380  0.0599 -0.1669
13249W        W33529   2.882   5.423   2.829 -0.0849 -0.1216  0.1653
13250W        W33530  14.756   9.613   2.099 -0.0179 -0.0330  0.1283
13251W        W33531  10.003   9.595  15.086  0.2932 -0.0242  0.1048
13252W        W33532   0.332  15.433   4.641  0.3928 -0.0467 -0.1998
13253W        W33533   0.020   5.138  14.505 -0.0399  0.0150 -0.0683
13254W        W33534   3.927  11.963   0.743 -0.3154 -0.0173 -0.1984
13255W        W33535  14.406  16.808   4.156  0.0227 -0.0755  0.2595
13256W        W33536   2.552   3.375  11.942 -0.1351 -0.1500  0.0910
13257W        W33537  18.560   0.555   1.593  0.1756  0.2905  0.2122
13258W        W33538  17.646  13.614   4.576 -0.5334 -0.1911 -0.5160
13259W        W33539   3.284  15.393  14.524  0.0048  0.1546  0.0286
13260W        W33540   5.736   2.032  14.683 -0.4215  0.0478  0.1695
13261W        W33541  10.005  12.103  14.825  0.2214 -0.0960  0.0666
13262W        W33542  15.415   0.604   0.576  0.1614 -0.1692 -0.0963
13263W        W33543   6.237   3.809   1.585  0.1302  0.2793 -0.0500
13264W        W33544   9.126   6.523  12.117 -0.1019  0.1826 -0.1505
13265W        W33545   4.089  12.058  15.242 -0.0439 -0.0301  0.3139
13266W        W33546  13.450  14.661  12.424  0.1493  0.2414 -0.4083
13267W        W33547  12.301  18.428   3.457  0.1569  0.3650 -0.0683
13268W        W33548  17.745  12.055   0.285  0.0755  0.0071  0.1382
13269W        W33549  12.658   4.079  15.054  0.3572  0.2978  0.2207
13270W        W33550   5.859  18.083   2.993  0.0593  0.0886  0.1001
13271W        W33551  17.105  15.860  11.521  0.4319  0.0974  0.0784
13272W        W33552  17.007  17.675   2.902 -0.0584  0.2966  0.0919
13273W        W33553  10.006   2.787  11.361  0.1955 -0.2873 -0.1309
13274W        W33554   7.873   8.780   4.649 -0.1917 -0.0684  0.2178
13275W        W33555   5.547   8.189   2.698  0.1659 -0.1212  0.0898
13276W        W33556  17.728   2.154   3.896 -0.1243  0.2420 -0.1440
13277W        W33557  16.826  12.702  12.300  0.1964 -0.2500  0.3356
13278W        W33558   1.433   6.744   3.471 -0.3011  0.1231 -0.0220
13279W        W33559  18.057  12.818   0.586  0.1782  0.0741  0.1620
13280W        W33560  17.752  10.123   1.977 -0.2140 -0.1382  0.0363
13281W        W33561   5.896  10.878  11.345 -0.0321  0.0090 -0.3682
13282W        W33562  13.992   7.809   3.729  0.3633 -0.0906 -0.0807
13283W        W33563  17.507   3.005   1.588 -0.0547 -0.2334 -0.0097
13284W        W33564   5.791  15.726   4.393 -0.0626  0.2872  0.0958
13285W        W33565  12.352   0.083   3.955 -0.2998  0.0752  0.0246
13286W        W33566  12.802   7.327  13.308 -0.0481  0.0696  0.1039
13287W        W33567  18.428  13.019  11.193 -0.0409 -0.1051 -0.3170
13288W        W33568  18.127  12.273  11.962 -0.1890 -0.3532 -0.1875
13289W        W33569   6.337   3.684   2.384 -0.1294 -0.0602  0.2401
13290W        W33570   5.036  12.260  14.133  0.1678  0.2571  0.0692
13291W        W33571   6.920   1.020  13.410 -0.2324  0.3185 -0.4751
13292W        W33572   6.374   4.665   0.342  0.0339  0.1540  0.1402
13293W        W33573   7.534   1.641  11.443  0.1683 -0.0277  0.0691
13294W        W33574  17.545   6.259   4.850 -0.0426  0.1549 -0.0120
13295W        W33575  11.229   4.194  15.337  0.0681  0.2660 -0.2033
13296W        W33576  11.514   3.477  14.884 -0.1698 -0.0509 -0.1028
13297W        W33577  13.325  12.941   2.719 -0.2375 -0.1826 -0.2611
13298W        W33578  10.762  15.875   3.814 -0.0652  0.1367  0.3888
13299W        W33579  14.362  16.655   1.391  0.2192  0.0541  0.0160
13300W        W33580  12.747   5.424  13.830 -0.1318  0.1874  0.2190
13301W        W33581   1.400   8.423  14.162 -0.0341 -0.1335 -0.0159
13302W        W33582   3.212  13.673  11.472 -0.0423  0.2881 -0.2454
13303W        W33583   6.040  17.565   2.919  0.0879 -0.0643 -0.1662
13304W        W33584  18.141  18.131   3.878  0.0795  0.1256 -0.0211
13305W        W33585   1.779  18.379   3.994 -0.0898  0.3362  0.1154
13306W        W33586  14.180  15.679   2.839 -0.0632 -0.0522  0.0749
13307W        W33587  18.706   0.026  12.343  0.3431  0.2724 -0.0805
13308W        W33588   1.133   7.930  12.207  0.2159 -0.0790 -0.1728
13309W        W33589  14.219   4.489   3.028 -0.1249  0.0819  0.0854
13310W        W33590   0.354  11.457   4.173  0.2379  0.0080 -0.1751
13311W        W33591  18.395  17.896  15.207 -0.1224  0.0551 -0.2849
13312W        W33592  18.282  17.863   3.278  0.2133 -0.2229  0.1172
13313W        W33593   9.196  15.474  11.717  0.2651  0.0789  0.0351
13314W        W33594  15.772   9.809  11.946  0.0602  0.3179  0.1877
13315W        W33595   5.960   6.159   3.076 -0.0733 -0.0252 -0.0658
13316W        W33596   6.712  16.740  14.517  0.3162  0.2686 -0.0457
13317W        W33597   7.195   3.607   1.886  0.1951 -0.1361 -0.2797
13318W        W33598  13.332   0.219   1.570 -0.0953 -0.0726  0.1542
13319W        W33599  16.567  12.295   1.711  0.0016 -0.1808  0.0942
13320W        W33600   7.239   1.239   3.926  0.0173 -0.2433  0.1028
13321W        W33601  13.793  17.836   4.288  0.3157 -0.3636 -0.0588
13322W        W33602   4.235  17.349   2.568 -0.0914  0.2060  0.0013
13323W        W33603   3.424   8.424  15.349 -0.1218 -0.3407 -0.0076
13324W        W33604  10.484  18.737   1.483 -0.2684  0.2336  0.1184
13325W        W33605   4.993  18.006   0.561  0.0096 -0.0920  0.1344
13326W        W33606   1.224   8.485   0.560 -0.0267 -0.2367 -0.1424
13327W        W33607  15.193   9.580   1.749  0.1848 -0.0624 -0.1410
13328W        W33608   8.604  15.367   0.635 -0.2827 -0.2012 -0.3072
13329W        W33609  17.392   8.869   4.127 -0.0591 -0.1710 -0.2063
13330W        W33610  17.390   9.584  14.196 -0.1481 -0.2117  0.0928
13331W        W33611  12.619   1.341   0.053 -0.0281  0.1714  0.0079
13332W        W33612   5.750  18.035  12.369  0.0526 -0.0729 -0.0860
13333W        W33613  10.921  17.504  14.708 -0.1247  0.2912 -0.3356
13334W        W33614   5.563  17.304  13.814 -0.0742 -0.3583 -0.0566
13335W        W33615  18.169   2.916   4.188  0.1748  0.2044 -0.2481
13336W        W33616   0.113   1.754   2.211  0.2899  0.1418  0.1406
13337W        W33617  12.000  13.257   2.362  0.0734 -0.0355  0.0614
13338W        W33618   0.264   5.452  12.426 -0.0424 -0.0098  0.0469
13339W        W33619   4.675  15.222   3.484 -0.0342  0.3231 -0.0486
13340W        W33620  15.648  18.389  14.601  0.0808 -0.1211  0.3272
13341W        W33621   2.726   6.287  14.937 -0.0844  0.0474 -0.0665
13342W        W33622   7.444   2.745   4.028  0.2205  0.0519 -0.0916
13343W        W33623   5.787   1.146  13.930 -0.0024  0.2417  0.0084
13344W        W33624  16.953   2.293  10.065 -0.1574 -0.1834 -0.0589
13345W        W33625  17.489   3.255  11.491 -0.2732  0.2355  0.0538
13346W        W33626  13.818   2.350  11.710  0.1191  0.0543  0.0990
13347W        W33627   1.067   6.666  11.096 -0.2696 -0.0798  0.1027
13348W        W33628  13.477  11.844  12.057 -0.0473  0.1085  0.1388
13349W        W33629  12.070   7.456  13.909 -0.3417 -0.0691 -0.1115
13350W        W33630  10.529  11.210   0.741 -0.1245 -0.1126  0.0071
13351W        W33631   1.858  11.305   4.214  0.1316  0.2135 -0.0258
13352W        W33632   4.715   5.933  11.678  0.0224  0.2576  0.0521
13353W        W33633   5.723  10.043   0.402  0.2545 -0.1672  0.1776
13354W        W33634   1.700  11.826   1.862  0.1417  0.1897  0.0489
13355W        W33635   2.842   8.829  13.071 -0.0997 -0.1879  0.0483
13356W        W33636   3.359   2.885  11.121  0.1080  0.1876  0.1035
13357W        W33637  12.363  14.234  14.951  0.0770 -0.1164  0.1265
13358W        W33638  11.403  14.641  10.865  0.2590  0.1185 -0.2179
13359W        W33639  10.230   0.306  13.935  0.1844 -0.1969  0.3975
13360W        W33640  17.324   6.014   1.312  0.0150  0.0582 -0.0664
13361W        W33641   3.050   3.430  15.097  0.2344  0.4063  0.3076
13362W        W33642   7.131  18.328  12.036 -0.0569  0.0133 -0.4683
13363W        W33643  18.307   6.964  13.298 -0.0209  0.0520 -0.0308
13364W        W33644  14.049  15.086   2.025  0.0092  0.2479  0.0032
13365W        W33645   3.614  13.670  14.360 -0.4377  0.0560 -0.0026
13366W        W33646  14.312  14.111   4.216  0.1141  0.0800  0.0695
13367W        W33647  17.168  17.405  14.941 -0.1469 -0.0786  0.1648
13368W        W33648   0.119  14.413   2.847  0.0413 -0.2532  0.0836
13369W        W33649   4.113  14.887   3.989 -0.1459 -0.2439  0.4104
13370W        W33650   5.019   2.196  12.958 -0.1042 -0.0861 -0.0072
13371W        W33651   6.846  14.414  12.338  0.0101  0.1681 -0.1693
13372W        W33652   0.893   8.410  12.385 -0.0134  0.2614 -0.1172
13373W        W33653   6.848  13.834   0.402 -0.3174 -0.1362  0.0577
13374W        W33654  12.756   9.517  12.700 -0.2058  0.0781 -0.0129
13375W        W33655  11.275  10.361   3.736 -0.0157 -0.1286  0.0063
13376W        W33656  10.870   8.212   4.184  0.0975  0.0987  0.0124
13377W        W33657   7.298   4.003  12.442  0.0571  0.0841  0.0261
13378W        W33658   4.948  12.771  12.773  0.5234 -0.1078 -0.3268
13379W        W33659  16.988   0.036   4.322  0.2200  0.1633  0.1077
13380W        W33660   3.092   6.815  14.922  0.1272 -0.2003  0.0549
13381W        W33661   7.893  15.286  13.350  0.0120 -0.1729 -0.0790
13382W        W33662   9.447  14.513   1.804  0.1042 -0.3538 -0.0667
13383W        W33663   8.468  15.803  15.277 -0.1002  0.1895  0.1021
13384W        W33664   7.570  11.497   0.050 -0.1349  0.0308  0.2147
13385W        W33665   6.041  18.221  12.844 -0.0398  0.1274  0.2899
13386W        W33666  12.833   4.821  12.620  0.0323  0.0139  0.1189
13387W        W33667  18.265  18.308  11.766  0.0121  0.1122  0.1887
13388W        W33668  16.584  14.677  13.261 -0.0333  0.0134  0.2951
13389W        W33669   9.492  14.230   2.620  0.0291 -0.0871 -0.1239
13390W        W33670   3.029   0.569  14.429  0.0786 -0.0593 -0.0868
13391W        W33671   8.730  16.794  11.016 -0.0825  0.3356  0.1350
13392W        W33672  12.516  10.093   0.039  0.1312  0.0505  0.2015
13393W        W33673   5.946  17.204   3.759  0.0599 -0.0867  0.2032
13394W        W33674   3.988  12.503  12.729 -0.0885  0.0033 -0.0330
13395W        W33675   8.348  12.320  13.952  0.0974 -0.3228  0.1039
13396W        W33676  17.936  12.981   2.489 -0.2616 -0.1903  0.2830
13397W        W33677  16.076  18.511   5.464 -0.0471 -0.0895  0.3686
13398W        W33678  18.521  11.704  13.596 -0.1658 -0.0800  0.3545
13399W        W33679  14.295  15.419   0.263 -0.0902  0.0310  0.1846
13400W        W33680   8.069   4.835   4.371  0.1182 -0.2494  0.1976
13401W        W33681   9.139   7.360  14.482  0.1974  0.1241  0.0571
13402W        W33682   8.823   5.948   4.307 -0.0927  0.0886 -0.0043
13403W        W33683  14.962   3.849   3.541 -0.1823  0.1656 -0.0885
13404W        W33684  15.911   9.900   0.123 -0.1821  0.0426  0.1097
13405W        W33685   6.331  16.567   2.140 -0.2423  0.2489 -0.1144
13406W        W33686   7.278   4.766   3.286  0.2218  0.1860 -0.0789
13407W        W33687  18.529   7.101  15.241  0.0288  0.1131 -0.0489
13408W        W33688   9.088   0.221  12.516  0.1038 -0.1002  0.2138
13409W        W33689   1.065   3.875   3.439 -0.2283  0.1839  0.3226
13410W        W33690   5.481   4.340   2.393  0.1009 -0.2001  0.0278
13411W        W33691   6.118   8.187   4.557 -0.0312 -0.1560 -0.0847
13412W        W33692  11.269   9.414   3.241  0.0051 -0.0236 -0.1219
13413W        W33693  16.875   4.568   3.889 -0.0610  0.2351  0.0125
13414W        W33694  17.937  15.395   1.903 -0.3312  0.0848 -0.0435
13415W        W33695   1.969  13.474   2.280  0.1336 -0.3418 -0.3629
13416W        W33696   3.272  12.115  15.170 -0.0527 -0.3298  0.4590
13417W        W33697  14.963   0.274  13.655 -0.0653  0.1341 -0.4898
13418W        W33698   9.724   4.423  15.095  0.1225 -0.4480 -0.2704
13419W        W33699  16.194   1.026   2.748 -0.1047 -0.0173  0.2490
13420W        W33700   8.796   5.891  13.681  0.0921 -0.0594  0.0545
13421W        W33701   3.707   9.940  14.911  0.0364  0.0516  0.0190
13422W        W33702   0.750  12.054  13.877  0.2329 -0.2110  0.0721
13423W        W33703  10.022   8.051   4.290  0.1103  0.0288 -0.0019
13424W        W33704  11.779   3.911  12.802 -0.1048 -0.4133  0.0073
13425W        W33705   4.518   2.377   1.861  0.2919  0.0385 -0.0732
13426W        W33706   5.974  17.087  13.486 -0.2492 -0.2046  0.0819
13427W        W33707  18.481   8.582  14.171 -0.0390 -0.1717  0.2634
13428W        W33708   0.791   7.364  14.224 -0.1695  0.0658 -0.1692
13429W        W33709  13.844  17.171   0.776 -0.2790 -0.0986 -0.2638
13430W        W33710   5.637   9.703  11.511 -0.1775 -0.0003  0.0279
13431W        W33711   9.614  14.269   3.091  0.0994  0.1024  0.0766
13432W        W33712  14.678   8.415  12.521  0.0444  0.0008  0.0742
13433W        W33713  10.414   2.049  13.788 -0.1964  0.0991 -0.0815
13434W        W33714  15.396  13.475   0.166  0.0786  0.0461  0.2127
13435W        W33715  15.563   7.378  13.373  0.1196  0.1445 -0.0080
13436W        W33716  11.871   2.756  14.872 -0.0296 -0.1477  0.0675
13437W        W33717   9.586   1.951  15.055 -0.1004  0.1351 -0.2473
13438W        W33718  13.841  10.675  14.193  0.2443 -0.0999  0.3046
13439W        W33719  14.360   7.231   0.401  0.2994  0.1182 -0.0880
13440W        W33720   8.189   7.646  11.737  0.0270 -0.0374 -0.3710
13441W        W33721   7.836   3.163   5.282  0.1768  0.1508  0.1597
13442W        W33722   0.517   3.911   2.775 -0.0641 -0.1253  0.1423
13443W        W33723   1.786  15.480  12.543 -0.0417  0.2421 -0.0907
13444W        W33724   8.718   7.202  13.316  0.2396 -0.2349  0.2399
13445W        W33725  18.272  13.285  11.659 -0.2030  0.3797 -0.0209
13446W        W33726  15.145   0.088  14.442 -0.0746  0.2058  0.0660
13447W        W33727  11.299  12.969   3.928  0.2298  0.0651  0.0590
13448W        W33728  17.094   5.816  12.425  0.0420  0.1342  0.2848
13449W        W33729   9.802  12.904  13.064 -0.1328  0.1056  0.0397
13450W        W33730  15.140   5.633   4.355  0.1360  0.2147 -0.0821
13451W        W33731  16.963  11.210   2.735  0.1272  0.1401  0.2308
13452W        W33732  13.198   3.495   3.707  0.0138 -0.1538  0.0321
13453W        W33733  18.187  17.360   3.387  0.1524  0.1535 -0.0901
13454W        W33734   1.344  13.401   2.679 -0.1586 -0.1219  0.1297
13455W        W33735  10.232   4.626   1.733  0.2233 -0.0631 -0.0674
13456W        W33736  17.735  10.738  13.782  0.1622  0.1894 -0.2320
13457W        W33737  18.068   6.755  11.859  0.0620 -0.4763 -0.1432
13458W        W33738  12.980   1.884  14.149 -0.1680 -0.2813  0.0456
13459W        W33739  11.326   8.660  14.032 -0.2223 -0.0827  0.1110
13460W        W33740  12.437   1.540  11.878  0.3571  0.2256 -0.2828
13461W        W33741   2.660   9.545   1.403  0.0638  0.1837  0.0715
13462W        W33742   1.186  11.037  15.191  0.1675 -0.1085  0.2176
13463W        W33743  12.444  11.323   3.575 -0.0262 -0.0879 -0.3148
13464W        W33744   2.465  13.740  12.245 -0.1222 -0.0507  0.2150
13465W        W33745   0.335   7.904   2.371  0.0446 -0.0151  0.0164
13466W        W33746   7.936   5.455  14.773  0.1198 -0.0768 -0.0778
13467W        W33747   2.109   2.110  13.988  0.1381  0.1302  0.2175
13468W        W33748   7.131   1.112  10.845 -0.0502  0.1616 -0.0555
13469W        W33749   3.198  12.465  14.763  0.0688 -0.0375 -0.0903
13470W        W33750  18.078   9.190  14.486 -0.1396 -0.2177  0.0241
13471W        W33751   9.685   1.335  11.318 -0.0825  0.0471 -0.0940
13472W        W33752  10.177   1.810  12.007  0.1310 -0.2543 -0.0824
13473W        W33753  10.021   5.238  11.287  0.0891 -0.4018 -0.0846
13474W        W33754  15.407   1.375   3.175 -0.0335  0.0620  0.0598
13475W        W33755   8.420  15.947   1.819  0.0563 -0.2804 -0.6231
13476W        W33756  13.513  15.527   1.551 -0.3182 -0.0021 -0.0574
13477W        W33757   1.059   4.234   0.522  0.0427  0.2354 -0.2557
13478W        W33758  17.712   1.591  11.877  0.0419  0.1234  0.0370
13479W        W33759   8.024  12.374  14.391  0.0446 -0.1783 -0.1088
13480W        W33760   2.752   1.365   1.509  0.0878 -0.0204  0.2892
13481W        W33761   0.871   0.433   2.924 -0.2305 -0.2017 -0.1270
13482W        W33762  12.872   1.168  10.877  0.0371  0.0512 -0.0608
13483W        W33763   7.005  15.341  14.468 -0.2020  0.1091  0.2309
13484W        W33764  11.811   2.509   0.336 -0.0012  0.3187 -0.0922
13485W        W33765   7.753  17.024   3.189  0.2302  0.1304  0.3118
13486W        W33766  11.689   2.034   3.438  0.1000  0.3667  0.0173
13487W        W33767  10.696   2.942  15.126 -0.0925  0.0574  0.1746
13488W        W33768  17.134  10.146  13.498  0.2997 -0.1953 -0.1692
13489W        W33769   1.443  10.037  11.439  0.0912  0.0774  0.2029
13490W        W33770   9.893   7.751  11.570 -0.4451 -0.0696  0.3282
13491W        W33771   1.286  15.198   2.801 -0.0989 -0.1664  0.0933
13492W        W33772  10.311   7.770   3.022  0.1468  0.0765 -0.1146
13493W        W33773   5.216  13.560  15.296 -0.1094  0.1078 -0.2037
13494W        W33774  10.473   5.865  12.199  0.0511  0.2654 -0.0788
13495W        W33775  12.779   8.866   0.742 -0.2302  0.1648 -0.0372
13496W        W33776   9.359  11.444  13.357  0.1371  0.2749 -0.1938
13497W        W33777  10.076  11.372   2.411  0.0527  0.0538 -0.1582
13498W        W33778   4.413   1.015  12.435 -0.0348  0.0649 -0.1139
13499W        W33779  17.355   6.259   4.044  0.0896  0.2224 -0.2636
13500W        W33780   9.830  11.041  13.397  0.0277  0.2313  0.2064
13501W        W33781  14.296  17.958   1.100 -0.0597 -0.0696  0.5100
13502W        W33782  16.710   7.204  11.999  0.0782  0.1368  0.2433
13503W        W33783  14.904  14.191   0.943  0.0603  0.0544 -0.1361
13504W        W33784   2.548   3.226   4.578  0.2438  0.0891  0.0253
13505W        W33785  16.185   1.845  14.893  0.0595  0.0072 -0.1956
13506W        W33786   7.322  18.484  13.162 -0.2449 -0.0409  0.0893
13507W        W33787  13.395  16.226  12.968 -0.1421  0.1459  0.2828
13508W        W33788  18.469  11.358  11.906 -0.2412  0.1023  0.0164
13509W        W33789   2.981   7.184   4.124  0.4093  0.1875  0.1036
13510W        W33790   7.604   9.429  12.976  0.0803  0.0675 -0.3821
13511W        W33791  15.328   5.175  12.960 -0.0833  0.0368 -0.0421
13512W        W33792   7.229   6.348  14.304 -0.2538 -0.1795  0.0903
13513W        W33793  11.607   4.055  13.418  0.0218  0.0010 -0.2269
13514W        W33794   5.330  13.826   1.845  0.0660  0.1225  0.3962
13515W        W33795   2.311   7.937  14.246  0.0235  0.1564  0.3457
13516W        W33796  17.407   7.868   0.301 -0.2051  0.1358 -0.0617
13517W        W33797   1.938   7.969   0.098  0.0028  0.0848 -0.0179
13518W        W33798  18.698  15.409   2.465  0.0299  0.2793  0.0514
13519W        W33799   6.251   9.859   3.396  0.1454 -0.0541  0.0670
13520W        W33800   5.401   2.304   2.176  0.0033  0.1147  0.1003
13521W        W33801   3.700   4.541   3.578  0.0875  0.1656 -0.0464
13522W        W33802   5.584  12.580  11.140 -0.2191  0.0845 -0.0934
13523W        W33803  13.726   7.341  13.885 -0.0326  0.2925  0.0058
13524W        W33804  15.141  15.931   4.550  0.0866  0.1224 -0.0049
13525W        W33805   1.149  15.964   1.314 -0.1442  0.0913 -0.2129
13526W        W33806  13.990   8.670   4.847  0.0635 -0.0528  0.0417
13527W        W33807  15.005  12.594   1.071  0.2166 -0.2599  0.4117
13528W        W33808  15.788  18.444   0.696 -0.1995 -0.1220 -0.0130
13529W        W33809  15.763   7.447   0.552  0.0098 -0.3195 -0.2203
13530W        W33810   5.417   8.946  11.891 -0.3897 -0.4801 -0.0981
13531W        W33811   9.376   3.172   1.133 -0.0782 -0.2067  0.1108
13532W        W33812  11.390   9.450  14.705 -0.2133  0.1117  0.2434
13533W        W33813   0.659   8.122  10.775  0.0590  0.1995  0.0034
13534W        W33814  11.181   1.036   1.995 -0.1370 -0.3811 -0.0550
13535W        W33815   3.423   5.193  11.570 -0.3246  0.2931  0.0711
13536W        W33816  13.716  14.571  11.586  0.1349 -0.5964 -0.0640
13537W        W33817  10.129  11.951  13.583  0.0487  0.0527  0.0992
13538W        W33818   7.362  15.341   1.314 -0.2232 -0.0927  0.3360
13539W        W33819  13.246   2.997   3.845  0.0726  0.0185  0.1274
13540W        W33820  14.260  13.764  10.517  0.1438  0.1015 -0.2209
13541W        W33821  15.743  14.354   1.839 -0.0886 -0.2059 -0.2979
13542W        W33822  15.269  17.653   2.351  0.0240 -0.0671 -0.3617
13543W        W33823   9.537  15.566   0.256  0.1537  0.1995 -0.0443
13544W        W33824  15.252  17.558  12.529  0.1994  0.0778  0.3190
13545W        W33825  17.603   0.174  13.789 -0.0218 -0.0385  0.1449
13546W        W33826  12.091   2.698  12.221  0.0546 -0.0407 -0.3409
13547W        W33827   5.781   9.467  12.418  0.2793  0.0143  0.0656
13548W        W33828  13.204   3.918  14.093 -0.2596 -0.0801 -0.0524
13549W        W33829   8.434  10.193   3.189  0.0604  0.0953  0.2496
13550W        W33830   2.415   3.485  13.597  0.0227  0.0622 -0.2674
13551W        W33831   0.886  14.299   4.808 -0.0481  0.0188 -0.1380
13552W        W33832   4.917  16.790   3.523 -0.0771 -0.1396  0.1151
13553W        W33833   1.886  16.991  14.142 -0.3355  0.1134 -0.3964
13554W        W33834   4.322   8.485   1.599 -0.1227  0.0061  0.2846
13555W        W33835   6.126  14.873   0.229 -0.3105  0.2159 -0.0693
13556W        W33836   7.100   0.140  13.404  0.0690  0.2476  0.1003
13557W        W33837  12.483  13.058   2.194 -0.0408 -0.1640 -0.2955
13558W        W33838   8.664  12.600  15.274  0.3262  0.0450 -0.1288
13559W        W33839  15.598   1.538  14.085 -0.2277 -0.0425  0.2114
13560W        W33840  10.701   5.300  15.012  0.1096 -0.2525 -0.1232
13561W        W33841   1.584   3.888  12.681 -0.0362  0.2317  0.0149
13562W        W33842  15.712  14.884  14.261 -0.1316  0.1266  0.4317
13563W        W33843  13.414  13.228  12.707 -0.6084 -0.1356 -0.1024
13564W        W33844   2.459  15.484   3.974 -0.2822 -0.0119  0.0146
13565W        W33845  11.209   4.851   0.633  0.0570  0.2421 -0.0013
13566W        W33846  11.215  10.664   3.175 -0.0110 -0.1261 -0.0512
13567W        W33847   3.513  17.329  10.886  0.3062 -0.5137 -0.0855
13568W        W33848  10.713   8.472   1.820 -0.0716  0.0811 -0.1361
13569W        W33849   8.455  18.436   1.249 -0.2481  0.1039  0.4912
13570W        W33850  15.349   2.571   4.510 -0.3493  0.1690 -0.2070
13571W        W33851   7.076  13.976  14.844 -0.0193 -0.2780 -0.0777
13572W        W33852   4.782   9.975   2.363 -0.0289  0.3425 -0.2678
13573W        W33853   9.010   3.268   0.744  0.0302 -0.2733 -0.3012
13574W        W33854  12.350   3.458   0.194 -0.1387 -0.1091  0.0598
13575W        W33855   2.586   4.661   0.117 -0.2486  0.2648  0.0109
13576W        W33856  18.168  17.396   3.885 -0.0341  0.1639 -0.0455
13577W        W33857  14.327   6.354  13.456 -0.0766 -0.0473  0.0130
13578W        W33858   3.284  11.961   4.160 -0.0903 -0.0938 -0.1336
13579W        W33859   8.337  12.619   0.382  0.0966 -0.0780  0.2097
13580W        W33860   7.216   2.812   0.841 -0.0259 -0.1008  0.2418
13581W        W33861   4.569  17.687   0.875 -0.0318  0.1246 -0.1647
13582W        W33862   0.000   9.986  13.114 -0.1427  0.1905 -0.0669
13583W        W33863   3.720   0.346  15.285 -0.0557  0.0601  0.1203
13584W        W33864   8.035   7.983   0.593  0.0289 -0.2570  0.1531
13585W        W33865   6.682   0.209  13.090 -0.0259 -0.0140 -0.0717
13586W        W33866   1.875   3.194  11.837  0.0811 -0.3564  0.0638
13587W        W33867   0.021   1.230   1.440 -0.2532 -0.0443  0.1170
13588W        W33868  15.366   6.537  11.659 -0.0062  0.0289  0.1298
13589W        W33869  13.612  12.567  12.402  0.1865  0.2114  0.1037
13590W        W33870  10.015   5.144   1.943  0.3182 -0.2468  0.3535
13591W        W33871   6.229  13.721  14.348 -0.0423  0.2893  0.1739
13592W        W33872   5.284   6.281  12.282 -0.0810 -0.1888  0.0391
13593W        W33873   9.033  11.864  14.921  0.1827 -0.1116 -0.1898
13594W        W33874   0.460  16.656  14.381 -0.0645 -0.3300  0.3194
13595W        W33875   1.538   0.961  12.215  0.1781  0.0417  0.2198
13596W        W33876  18.673  17.916  11.943 -0.2339  0.1734 -0.1080
13597W        W33877  14.716   2.017   1.937 -0.0175 -0.0014 -0.0742
13598W        W33878   2.312  12.490   1.265 -0.1712  0.3979 -0.1157
13599W        W33879  10.662   0.422  11.661 -0.1018  0.1245 -0.1412
13600W        W33880  16.330   6.053   1.498 -0.0643 -0.1293  0.1562
13601W        W33881  15.089  18.179  14.180  0.1431  0.1092  0.1066
13602W        W33882  11.405  16.394  11.463 -0.1137  0.3914  0.0714
13603W        W33883   5.350  14.363  11.130  0.4094  0.0295 -0.0124
13604W        W33884   5.350  16.981  13.533 -0.2136  0.0764  0.1619
13605W        W33885  12.669  14.069   3.257  0.0176 -0.1551  0.3842
13606W        W33886  18.536   5.932   4.826 -0.0388  0.3523  0.2920
13607W        W33887   9.353  16.688  10.909  0.0984  0.0086  0.0562
13608W        W33888  15.050  14.673   4.253 -0.0803 -0.3275  0.0397
13609W        W33889   7.073   4.429  12.575  0.1004  0.3547  0.1202
13610W        W33890   8.643   0.997   3.439  0.1668 -0.0041  0.0166
13611W        W33891  16.194  13.094   3.921  0.0415 -0.4361 -0.1408
13612W        W33892   3.406   9.463  11.790  0.2334 -0.1130  0.2914
13613W        W33893   4.064  12.493   1.517 -0.1660  0.1117 -0.1653
13614W        W33894   7.840   4.686   3.298 -0.2589 -0.1103 -0.1066
13615W        W33895   8.362  18.152  15.106 -0.1249  0.1270 -0.0816
13616W        W33896   6.541  11.655   3.078 -0.0315  0.2114 -0.2950
13617W        W33897   6.515  10.763   1.846 -0.1573  0.0970 -0.0762
13618W        W33898  11.420  14.967  13.490 -0.1090 -0.2219  0.0880
13619W        W33899   4.047   6.529  15.240 -0.0534 -0.2852  0.0338
13620W        W33900   8.717   0.772   0.048 -0.0775 -0.2096  0.2050
13621W        W33901  18.337   9.873  11.953 -0.3217  0.2145 -0.0304
13622W        W33902   7.799  12.794  11.426  0.0237 -0.1556 -0.3227
13623W        W33903   1.791  15.413   2.505  0.0750 -0.2238 -0.2675
13624W        W33904   6.535   2.951   3.299 -0.1486 -0.1412  0.0674
13625W        W33905  13.711   4.675   1.668 -0.1620 -0.0555  0.2142
13626W        W33906   5.231  17.997  12.701 -0.1394 -0.0420 -0.0915
13627W        W33907   2.813  18.324   3.911 -0.1153  0.0112 -0.0188
13628W        W33908  12.290   1.717   0.064  0.2357 -0.1236 -0.0797
13629W        W33909  10.486   6.777  11.722 -0.1164 -0.0865 -0.2528
13630W        W33910   8.420  12.795  10.636 -0.0522 -0.0673 -0.0245
13631W        W33911   8.073   1.605  11.194  0.2772 -0.0593 -0.1349
13632W        W33912  17.033   1.604   2.532 -0.0624  0.0408  0.1661
13633W        W33913   2.284   8.406   4.074 -0.0118  0.1351 -0.0953
13634W        W33914  11.381   0.947   1.496 -0.2501  0.4946  0.2097
13635W        W33915   4.652   7.457  12.237  0.3188  0.0718  0.1675
13636W        W33916   2.747  10.435  11.236  0.0276 -0.1872  0.2244
13637W        W33917   6.977   7.977  13.881  0.0874 -0.4619  0.1476
13638W        W33918   2.462  14.710   0.978  0.0118 -0.0392  0.0309
13639W        W33919   0.740   1.790  11.674 -0.0038 -0.3306 -0.2524
13640W        W33920   8.594  13.893   4.019 -0.2477 -0.2048  0.2401
13641W        W33921   3.330  10.812  15.190 -0.1701  0.1546  0.0210
13642W        W33922   3.777   5.948  11.802 -0.3403  0.0275  0.2051
13643W        W33923   8.786   2.779  11.999 -0.1551  0.3451  0.1318
13644W        W33924   1.596  18.149  14.696 -0.1762  0.1452 -0.3609
13645W        W33925   7.103  15.329   2.632 -0.1667 -0.0337  0.0981
13646W        W33926   5.118  10.015  13.997 -0.2701 -0.2542  0.1104
13647W        W33927  16.066  11.260   2.441 -0.1074 -0.0054  0.0180
13648W        W33928  13.639   6.184  14.339 -0.0719  0.0227 -0.1253
13649W        W33929   7.802  13.135   0.987 -0.2466 -0.2032 -0.0420
13650W        W33930  14.731  15.177  11.184 -0.2836  0.3520  0.0878
13651W        W33931   8.750  13.587  15.203  0.1088 -0.2625 -0.2972
13652W        W33932   7.520   8.352  12.117  0.0018  0.2389  0.2535
13653W        W33933   2.378  12.272  11.911  0.3415 -0.0079  0.2895
13654W        W33934   6.730   4.649   3.956  0.0788  0.0204 -0.4248
13655W        W33935  14.835   4.044   2.159  0.3132  0.3776 -0.0306
13656W        W33936  13.634  16.879  11.659  0.3694  0.1511  0.1968
13657W        W33937   3.879  14.013   2.446  0.2153  0.0359 -0.4573
13658W        W33938  13.215   4.911  13.586 -0.1638  0.1354  0.2191
13659W        W33939   9.417   0.266   4.790  0.1926  0.0090  0.0305
13660W        W33940   0.442   5.783  13.737  0.0651 -0.0039 -0.1027
13661W        W33941   9.822  13.612   4.044 -0.1192 -0.0737 -0.1268
13662W        W33942  13.078  18.420  13.512  0.1546 -0.1011  0.2589
13663W        W33943  11.064  16.032  10.575 -0.3056 -0.0999  0.2217
13664W        W33944   5.798  11.766   3.345  0.1840  0.0562  0.1617
13665W        W33945   2.416   2.554  11.546 -0.0052 -0.2254  0.1354
13666W        W33946  12.160  13.020   0.429 -0.1672 -0.0431  0.1350
13667W        W33947  17.417   0.770   2.282 -0.0127 -0.0278 -0.2856
13668W        W33948  18.517   4.493  10.019  0.1133 -0.0885  0.2331
13669W        W33949   0.085  13.124   2.697 -0.0561  0.0116 -0.0254
13670W        W33950  13.883  10.310   0.089  0.0445 -0.3875 -0.0884
13671W        W33951   9.088  17.817  10.982  0.0567  0.0760 -0.2290
13672W        W33952   8.124   9.173   3.807  0.1659 -0.0020  0.0261
13673W        W33953   0.638   9.252   3.295  0.0147  0.2675 -0.2227
13674W        W33954  17.636  11.862  12.743 -0.0211  0.0049 -0.3194
13675W        W33955  17.216   6.879   2.377 -0.0147  0.1890  0.1060
13676W        W33956  10.612  15.039   1.690 -0.2111  0.0470 -0.1192
13677W        W33957  16.432  15.476   2.511  0.2179 -0.1294 -0.0428
13678W        W33958  10.746   5.365   0.093 -0.0135  0.0063  0.0481
13679W        W33959  11.092   0.149   0.130 -0.1972 -0.3300 -0.0046
13680W        W33960  16.721  14.877   4.417  0.1166  0.0811 -0.3070
13681W        W33961   3.835  14.510   4.208 -0.0784 -0.1068  0.2612
13682W        W33962  13.294   4.113   2.542  0.1257 -0.0946  0.1225
13683W        W33963  11.529   0.401  12.664 -0.2044  0.0820 -0.2740
13684W        W33964   6.099  11.400   3.259  0.0936  0.1941  0.3128
13685W        W33965  11.153  16.727  12.849 -0.1164  0.1441 -0.3376
13686W        W33966  18.610  12.893   1.388 -0.0297  0.3377 -0.0137
13687W        W33967   7.891  10.540  14.443 -0.0085  0.2881  0.1730
13688W        W33968   7.668  14.010  12.863  0.1358  0.2272 -0.1968
13689W        W33969  10.931   5.839   3.846  0.1402  0.5097  0.2598
13690W        W33970   6.645   0.740   4.144 -0.3011 -0.1330 -0.1103
13691W        W33971  11.037   4.568   0.193 -0.2286 -0.1864  0.3982
13692W        W33972   8.177   0.711   2.686 -0.2692 -0.0808  0.1917
13693W        W33973   2.356  11.989   1.353 -0.3380  0.3167  0.1606
13694W        W33974   3.644  11.835  15.358 -0.0865 -0.0740 -0.0472
13695W        W33975  13.346  11.360   2.106 -0.0100 -0.2235  0.0767
13696W        W33976   6.568   0.873  11.000 -0.4316  0.4384 -0.0430
13697W        W33977  13.043  12.008  14.691 -0.0534 -0.0547  0.0348
13698W        W33978  15.837  16.051  12.416  0.1436  0.2918  0.0586
13699W        W33979   1.370   7.638   0.460 -0.0794 -0.2165  0.3361
13700W        W33980  12.724   0.978   0.907  0.2110 -0.1923  0.0712
13701W        W33981  10.712   1.053  11.000 -0.3127 -0.1395 -0.0964
13702W        W33982  14.170  10.525  15.150 -0.0841  0.1515 -0.1139
13703W        W33983   9.855  16.262   3.770 -0.0375 -0.0755  0.1544
13704W        W33984  17.542   0.758   3.147 -0.3285  0.0490  0.1445
13705W        W33985   5.752  17.270  13.005 -0.0015 -0.2858  0.1116
13706W        W33986  12.403   6.132  12.710  0.0257 -0.2640 -0.3641
13707W        W33987   3.272  14.226   5.001  0.1785 -0.0896  0.2166
13708W        W33988   0.675  16.430   3.622  0.1622 -0.0925  0.0385
13709W        W33989  16.957   6.563  13.725  0.5475 -0.2335 -0.0723
13710W        W33990  10.589   8.004   1.900 -0.0686 -0.1741 -0.0261
13711W        W33991  17.161  10.836   4.667 -0.0903 -0.2753  0.1140
13712W        W33992  14.572   5.755   4.093  0.0557  0.1259  0.3339
13713W        W33993  13.487   7.754  13.857  0.1365  0.0949  0.0464
13714W        W33994  13.481  16.179  12.480 -0.3386 -0.0774  0.1802
13715W        W33995   9.897   6.312   1.089  0.0251  0.0524 -0.2067
13716W        W33996  14.137  17.653  15.205  0.1022  0.0699  0.3275
13717W        W33997   2.906  15.823   1.335  0.1745  0.2246 -0.0660
13718W        W33998   5.268  16.924  14.028 -0.0860  0.0856 -0.2463
13719W        W33999  18.415   1.028  14.322 -0.1008  0.0822  0.0344
13720W        W34000   6.464   6.328  13.299  0.0410  0.2180  0.0351
13721W        W34001  12.481   3.810   4.021 -0.0092  0.0717 -0.2920
13722W        W34002  13.306  10.760   4.316 -0.2234  0.2133  0.0816
13723W        W34003   5.274  15.384   3.011 -0.0089  0.0308 -0.0388
13724W        W34004  13.686   7.877   0.481 -0.1898 -0.0290 -0.0829
13725W        W34005  10.947  18.736  11.666 -0.2513  0.1053  0.0632
13726W        W34006  10.559   1.601   1.433 -0.0525 -0.3139  0.3344
13727W        W34007  16.661   5.959  11.970  0.0472  0.1562  0.1879
13728W        W34008  16.231  15.464  11.193 -0.3360  0.6020  0.0287
13729W        W34009   4.566   9.861  12.052  0.0813 -0.1947 -0.1451
13730W        W34010   5.603   1.928   3.099  0.0853 -0.0072 -0.4628
13731W        W34011   4.761  16.037  10.046 -0.4174  0.0983 -0.2999
13732W        W34012   5.889  12.988   4.394 -0.1135  0.0596  0.0664
13733W        W34013   0.268  15.811  14.347 -0.1506 -0.4029 -0.4225
13734W        W34014  16.286   7.347   0.437  0.1183 -0.0307  0.2825
13735W        W34015   6.858  18.028   1.661  0.1310 -0.1103 -0.3535
13736W        W34016   1.625   6.277  10.661 -0.0692  0.0093  0.0949
13737W        W34017   7.645  12.479   2.627  0.1401  0.1385 -0.0600
13738W        W34018   9.137  16.569  14.367 -0.2516 -0.1483 -0.1468
13739W        W34019  18.575  17.464  10.355 -0.3788 -0.0764 -0.1063
13740W        W34020   5.953  17.852  10.656  0.0020 -0.0013 -0.0630
13741W        W34021   8.628  10.112  11.321 -0.1616  0.0960 -0.0824
13742W        W34022  18.513  10.179  12.348 -0.2991  0.1618 -0.2389
13743W        W34023   7.597   9.026  13.432 -0.1903  0.0245  0.0452
13744W        W34024  15.094   6.395  14.746  0.0994  0.1567 -0.2680
13745W        W34025  16.388   4.491  14.341  0.2640  0.0102 -0.2006
13746W        W34026   1.572   2.243   1.410  0.0152 -0.0192 -0.2641
13747W        W34027   6.618  14.839  11.129 -0.1586  0.0619  0.4090
13748W        W34028   3.264   5.988  11.767  0.0276  0.2004 -0.0555
13749W        W34029   1.322   0.836  10.273 -0.0887 -0.3582  0.1129
13750W        W34030  15.222   7.016  11.933  0.0232 -0.0245  0.0096
13751W        W34031   3.138  18.023   0.461  0.1016  0.0052 -0.1709
13752W        W34032  10.603  18.484   2.532 -0.1545  0.2506  0.3368
13753W        W34033  16.926  15.187   3.911 -0.0484  0.2412  0.0602
13754W        W34034  11.745  13.617   0.631  0.1697  0.1577  0.0523
13755W        W34035   3.642   1.491   0.865 -0.2817  0.2170 -0.0250
13756W        W34036  11.896  16.728  13.884  0.1383  0.4338  0.0055
13757W        W34037   4.230  10.770  14.805  0.0279  0.1413  0.0841
13758W        W34038   3.165  17.543   2.403 -0.0840  0.0269  0.1709
13759W        W34039  14.108   8.228  15.275 -0.3623  0.2604 -0.0041
13760W        W34040   5.761   0.079   3.284  0.1272 -0.0709 -0.0313
13761W        W34041  10.693  14.644   5.081 -0.0025 -0.1438 -0.2116
13762W        W34042  16.550   9.104  11.662 -0.4516  0.0554 -0.3695
13763W        W34043   9.022   6.630   4.792  0.2709 -0.1893  0.0090
13764W        W34044   7.915   2.902  12.241  0.1159 -0.3445 -0.4825
13765W        W34045   1.262   2.704   5.115  0.1910 -0.1419 -0.1030
13766W        W34046  18.720  17.471  13.331 -0.0349 -0.0143 -0.1255
13767W        W34047  11.674  11.691   0.359  0.3473 -0.0134 -0.2189
13768W        W34048  15.986  14.471  14.690  0.2747  0.2135 -0.0217
13769W        W34049   7.321   7.801   3.169 -0.0145 -0.4667 -0.0433
13770W        W34050   7.947  16.947  12.918 -0.0977  0.1050 -0.0635
13771W        W34051   4.246  18.537   1.002 -0.0682 -0.1311 -0.1536
13772W        W34052  16.479  14.432   3.017 -0.3314 -0.1338 -0.3067
13773W        W34053  17.120   2.769  13.896  0.0896  0.0382  0.1486
13774W        W34054   8.539   6.260  14.869 -0.1176 -0.1446  0.0558
13775W        W34055   3.443   4.820  12.433  0.0908  0.2128  0.1374
13776W        W34056  13.657   1.610  13.015 -0.2430  0.0022  0.1879
13777W        W34057  13.416  16.493   2.627 -0.0229 -0.2055  0.1265
13778W        W34058   1.497   1.496  11.891 -0.2992  0.2173  0.1211
13779W        W34059   9.057  17.010   2.688  0.2259 -0.0915  0.1574
13780W        W34060   0.423   2.095  13.729  0.1471 -0.0475 -0.1485
13781W        W34061  18.717   6.707   4.147 -0.4230 -0.1662 -0.0803
13782W        W34062  15.512   4.571   4.403  0.1316 -0.1734 -0.0587
13783W        W34063   7.099   3.746  12.045  0.0754 -0.1328  0.2632
13784W        W34064  13.551  13.194  11.311  0.3565 -0.1779 -0.0562
13785W        W34065  13.354   1.365  12.713  0.0207  0.4763 -0.1567
13786W        W34066  10.852  11.790  12.887  0.2884 -0.3607  0.0003
13787W        W34067  16.173   0.539   0.965 -0.1369 -0.0302 -0.1895
13788W        W34068   2.247   7.010  11.264  0.1608 -0.0120  0.2806
13789W        W34069  16.692  14.792   2.125  0.1930 -0.3894  0.3412
13790W        W34070   0.796   6.407  11.439  0.1227  0.1825 -0.0217
13791W        W34071  14.164  11.198   3.038 -0.2692  0.3245  0.0035
13792W        W34072  16.571  14.963   2.588 -0.0608 -0.0664 -0.0911
13793W        W34073  17.470  11.028  11.356 -0.0482  0.0255 -0.1494
13794W        W34074  15.834   6.637   2.336 -0.0842 -0.1064 -0.1328
13795W        W34075  17.438  10.684   1.118 -0.0335 -0.1306  0.0948
13796W        W34076   9.646   8.670  12.489 -0.2341 -0.1760 -0.1966
13797W        W34077  18.738   3.470   0.708  0.0405  0.0953  0.0764
13798W        W34078   1.659  14.683  13.269 -0.0643  0.2632  0.0348
13799W        W34079  15.907   2.390   4.510  0.0154 -0.3918  0.0485
13800W        W34080  17.690  14.845   2.075  0.0787 -0.1267 -0.2474
13801W        W34081   3.216   3.092  13.885  0.0798 -0.1651 -0.1207
13802W        W34082  14.433   7.167   1.978 -0.2207 -0.0287  0.0067
13803W        W34083   9.179   2.071  13.814 -0.1035 -0.0564 -0.0508
13804W        W34084  11.638  18.596  12.523 -0.1720  0.3183 -0.1882
13805W        W34085   4.766   1.911   1.520  0.1252  0.1034 -0.0564
13806W        W34086   5.044   2.053  11.312  0.0818 -0.0761 -0.0386
13807W        W34087   6.411   6.515   0.277  0.3164  0.0514 -0.2655
13808W        W34088   3.973  15.625  14.519 -0.0166  0.1989  0.2184
13809W        W34089   8.394  11.409  13.512  0.1808 -0.2962  0.0340
13810W        W34090  14.582   6.847  12.456 -0.0529 -0.1137 -0.1221
13811W        W34091  14.877   1.519  12.336 -0.1917  0.0364 -0.0743
13812W        W34092  16.002   6.189  13.779  0.2079  0.1569  0.2085
13813W        W34093   9.084  12.002   3.978  0.2847  0.0715 -0.2452
13814W        W34094   2.574   4.225   4.339  0.0462 -0.0121 -0.0909
13815W        W34095   8.536   1.181   1.428  0.0675 -0.0034 -0.0421
13816W        W34096  12.279   7.714   0.303 -0.0285 -0.1602  0.2294
13817W        W34097  15.252   3.345   2.932  0.0128  0.1036  0.1663
13818W        W34098   5.648   9.574   2.037 -0.0923  0.1800  0.1746
13819W        W34099   8.837   9.248   4.574  0.0957  0.0526  0.1289
13820W        W34100   5.368   1.624   4.083 -0.0443  0.0961 -0.2230
13821W        W34101   3.969  16.400  14.342 -0.0759 -0.2068 -0.1198
13822W        W34102  17.060   8.509  15.099 -0.1065  0.2792  0.0363
13823W        W34103   2.674   7.774   2.825 -0.2781  0.0133 -0.0222
13824W        W34104  13.718  12.956  14.449 -0.2811  0.0521 -0.0272
13825W        W34105   3.044   2.813   3.462 -0.2481  0.3212  0.1087
13826W        W34106   3.250   4.257   3.394  0.0434  0.2189 -0.1242
13827W        W34107  10.907   4.590   3.311  0.0069 -0.2370  0.0992
13828W        W34108  12.399   3.412   1.897 -0.3910 -0.0752  0.3089
13829W        W34109   7.086   7.693  13.380  0.1035 -0.3789  0.3388
13830W        W34110   5.648  16.876   1.053 -0.4442 -0.1062 -0.0817
13831W        W34111   3.920  14.225  13.295  0.0697 -0.1151  0.1747
13832W        W34112  18.535   3.707  13.480  0.1141 -0.2660  0.2068
13833W        W34113  14.617  12.061  12.101 -0.1006  0.1103  0.0958
13834W        W34114   6.161   4.660  11.325  0.1468  0.0983  0.0368
13835W        W34115   5.061   0.799  12.758  0.0106  0.2853  0.3243
13836W        W34116  14.675  11.444  10.149  0.0538 -0.0346 -0.1580
13837W        W34117   6.519   4.256   4.214 -0.3123 -0.0896  0.2194
13838W        W34118  18.425  14.495  11.133  0.1078 -0.0728 -0.0420
13839W        W34119  13.013   8.375   4.107 -0.0791 -0.1322  0.0811
13840W        W34120   9.418   7.570   5.545  0.3292  0.0022 -0.0228
13841W        W34121   4.558  12.183  11.602  0.2933  0.1377  0.0878
13842W        W34122   6.611  16.277  13.507  0.2112  0.1482  0.2470
13843W        W34123   8.922   2.933   2.954 -0.4993  0.0043 -0.1208
13844W        W34124  14.755  18.623   3.833 -0.2074  0.1570  0.0210
13845W        W34125  10.720   6.863   1.967  0.2443  0.3345 -0.0522
13846W        W34126  18.288  17.689   4.256 -0.2300  0.1411 -0.0195
13847W        W34127   5.112  16.946   2.150 -0.3039 -0.0194 -0.2491
13848W        W34128  18.264  17.560   2.861 -0.2965 -0.1152  0.1101
13849W        W34129  17.545  11.482  14.018  0.0635 -0.1605 -0.0432
13850W        W34130   2.096  17.171   0.402 -0.2510  0.1367  0.0166
13851W        W34131   2.450  18.665  13.190  0.3400  0.1004 -0.0177
13852W        W34132  14.901  18.207   0.598  0.0432 -0.0523 -0.4307
13853W        W34133  16.592  13.532   3.184 -0.0079 -0.1897 -0.2187
13854W        W34134  15.699   5.088   1.040 -0.1466 -0.0490  0.3500
13855W        W34135  10.441   0.565   1.460 -0.1387  0.1057  0.0782
13856W        W34136   5.631   9.015   4.442 -0.2179  0.1727 -0.0986
13857W        W34137   9.482  16.866  13.746  0.1271  0.1335  0.1374
13858W        W34138  17.450  11.944  13.766  0.1222  0.1284  0.0340
13859W        W34139   6.722  13.584  11.951  0.1210 -0.3120  0.1511
13860W        W34140  14.328  18.479  14.271  0.0191 -0.1036 -0.2301
13861W        W34141   9.773   6.248  14.014 -0.0169 -0.0067  0.0742
13862W        W34142  16.007  16.190  15.115  0.2136  0.1011 -0.0907
13863W        W34143  14.348   2.863  10.503 -0.2044 -0.2110  0.0875
13864W        W34144  15.376   1.922  13.167 -0.2440 -0.0264  0.1896
13865W        W34145   0.331  11.780   3.736  0.0095 -0.1274 -0.1469
13866W        W34146   0.656   7.504   3.123 -0.0562  0.1906 -0.0155
13867W        W34147   4.590   5.569   1.268 -0.0392 -0.1685  0.0294
13868W        W34148  17.403  14.422  14.873 -0.2084 -0.2748  0.1748
13869W        W34149  14.569   2.295   3.339  0.1514 -0.2303  0.0141
13870W        W34150  17.681   6.253   1.651 -0.1741 -0.0540 -0.1320
13871W        W34151   0.647   0.236   4.070 -0.1222 -0.2520  0.2858
13872W        W34152   7.195   3.291  14.058  0.1131 -0.0999  0.1406
13873W        W34153  14.831  17.605   3.938  0.4887  0.0254 -0.1433
13874W        W34154  12.784  18.008  13.112 -0.3955  0.0862  0.1334
13875W        W34155  12.768   1.492  13.970 -0.1206  0.2524 -0.0876
13876W        W34156   9.167   1.916   1.718 -0.1186 -0.1004  0.1006
13877W        W34157   9.202  11.846   0.281  0.0069  0.2189  0.0599
13878W        W34158   9.020   0.386   1.754  0.1249 -0.0766  0.0883
13879W        W34159  14.119  13.635   4.181  0.0910  0.0756  0.3991
13880W        W34160   6.102   2.830   0.844 -0.1033 -0.2382 -0.1277
13881W        W34161  11.252  11.000  13.650 -0.1399  0.1745 -0.0434
13882W        W34162   8.681  17.735  15.158  0.0739 -0.0508  0.0197
13883W        W34163   4.433  10.573   1.360  0.0125 -0.0294 -0.2820
13884W        W34164  18.579   4.510   2.562  0.1688  0.1731 -0.1880
13885W        W34165   5.210  18.441  14.531 -0.1019  0.2632 -0.3079
13886W        W34166   1.489  16.037   4.363 -0.1074 -0.0541 -0.0599
13887W        W34167   1.512   7.509  13.448  0.1729  0.0862 -0.0519
13888W        W34168  17.961  10.655   1.253 -0.2334 -0.0066 -0.1467
13889W        W34169   6.352  14.001  12.926  0.1056 -0.1113 -0.0633
13890W        W34170   8.715  14.719   3.894 -0.1995  0.0150 -0.2622
13891W        W34171   0.300   9.057   2.341  0.0973 -0.1710 -0.1050
13892W        W34172   5.789   0.178  10.882  0.1632  0.0415 -0.0405
13893W        W34173  16.687   6.674   1.163  0.0357  0.0645  0.1571
13894W        W34174   9.262   9.505  13.049 -0.1988 -0.1061  0.0919
13895W        W34175  11.044  15.378   3.073 -0.3066  0.0263 -0.1133
13896W        W34176   1.775   0.155  12.526  0.0675  0.0103 -0.2983
13897W        W34177   7.015  12.303  11.482  0.2924 -0.0023  0.0106
13898W        W34178   1.803  11.222   3.229 -0.2396  0.2783  0.2689
13899W        W34179   9.032  14.166  12.318 -0.0101  0.0472 -0.2453
13900W        W34180   1.328  10.548   0.656 -0.0650 -0.0891  0.2497
13901W        W34181  15.521  17.875  11.092  0.1559  0.1364 -0.1138
13902W        W34182  13.008  17.106   0.399 -0.0090 -0.4050  0.0115
13903W        W34183  14.572   5.293  15.022 -0.1156 -0.0163  0.0117
13904W        W34184   1.335   6.705   0.059 -0.0133 -0.1232 -0.0987
13905W        W34185   7.670  18.193   1.279 -0.0918  0.0539  0.0555
13906W        W34186   8.441  17.637   1.581 -0.0035  0.0317 -0.0425
13907W        W34187   0.313  17.991  14.026  0.2538 -0.2494 -0.0295
13908W        W34188   6.377   2.462   4.301  0.2200 -0.2670  0.2550
13909W        W34189   0.148  17.512   1.194  0.1707  0.2209  0.0712
13910W        W34190  14.693  13.216  14.295 -0.2484 -0.1715 -0.0638
13911W        W34191   2.050  14.576   0.528  0.0498  0.2154 -0.3539
13912W        W34192   0.290   7.790   2.921  0.2387 -0.0930  0.2115
13913W        W34193  10.519  13.898  14.870 -0.1900  0.2100 -0.0780
13914W        W34194  11.423   3.306  15.312  0.0363  0.3171  0.3973
13915W        W34195  16.001  17.020  11.168 -0.0784 -0.3741 -0.1362
13916W        W34196  11.636  17.118   9.817  0.1500 -0.1900 -0.0874
13917W        W34197  18.211  14.716  13.522  0.2790  0.1450 -0.3304
13918W        W34198   6.995   5.730   0.442 -0.2611  0.0680 -0.1309
13919W        W34199  13.382   4.364   0.769 -0.1461  0.0654 -0.0666
13920W        W34200   3.580  12.431   1.360  0.1739 -0.0943 -0.0461
13921W        W34201  12.799   1.042   5.191 -0.2215 -0.0732 -0.2148
13922W        W34202  15.740   2.974   0.281 -0.1537  0.0108 -0.1464
13923W        W34203   6.679   7.640   0.979  0.1161 -0.0823  0.1107
13924W        W34204   2.595   1.163   2.296 -0.1774  0.0348  0.1011
13925W        W34205  10.441   4.115   4.350  0.0453  0.1302  0.0715
13926W        W34206  10.875  18.298  14.873  0.4274  0.1833 -0.1468
13927W        W34207   8.248  10.854  12.536  0.1332 -0.1897 -0.0857
13928W        W34208   3.887  12.013   4.117  0.2710 -0.1563  0.0755
13929W        W34209   1.556   7.511  13.960 -0.1119  0.0400 -0.1777
13930W        W34210  14.469  13.365  14.793  0.1250  0.0867 -0.1241
13931W        W34211   1.264   7.600   3.829  0.3863  0.3705  0.3912
13932W        W34212  11.518  13.852  14.594  0.0024 -0.1008 -0.0365
13933W        W34213   8.289   3.867  12.227 -0.0502  0.1307 -0.0996
13934W        W34214   3.497   6.810  11.158  0.2526  0.0933 -0.0995
13935W        W34215  12.107   3.052   1.582  0.0191 -0.0037 -0.2083
13936W        W34216  12.771   2.391   1.195  0.1826  0.1232  0.0676
13937W        W34217  10.523  16.568   4.010 -0.2183 -0.0373 -0.2008
13938W        W34218   6.992   9.194  11.731  0.1166  0.1985 -0.0273
13939W        W34219   8.483   6.720  11.653  0.3388  0.3413 -0.0801
13940W        W34220  17.859   1.993  12.237 -0.2901  0.0450  0.0875
13941W        W34221  18.448  18.727   2.359  0.0897 -0.0372  0.3613
13942W        W34222  10.440   1.829   4.219 -0.3281  0.1773  0.2298
13943W        W34223  10.309   6.401   2.738 -0.2250  0.1191  0.0962
13944W        W34224  10.313  10.722  11.581 -0.2651  0.3550 -0.2929
13945W        W34225   4.278   2.427   2.769 -0.2424 -0.0589 -0.0190
13946W        W34226  11.804  13.160   1.846 -0.2538  0.1374  0.0872
13947W        W34227  10.858   2.830  14.176  0.0718 -0.1646  0.0118
13948W        W34228   5.531  17.805  13.045  0.0384  0.2601  0.0632
13949W        W34229  17.601  11.974   3.225  0.0335 -0.0408 -0.2150
13950W        W34230  17.020   9.907   0.130 -0.0782 -0.0274  0.3645
13951W        W34231  11.949  10.081   1.114 -0.1121 -0.0475 -0.1084
13952W        W34232  15.538  10.090   0.557  0.1875 -0.2875  0.1460
13953W        W34233   8.482  17.563  14.308  0.2451 -0.0447  0.1952
13954W        W34234   1.578  11.879  13.954 -0.0945  0.1692  0.2336
13955W        W34235  14.579  10.954   0.835 -0.0347  0.2230  0.1476
13956W        W34236  10.000  15.100  12.029  0.0955 -0.0806 -0.1447
13957W        W34237   3.503  14.657   1.628  0.0298  0.0041  0.0641
13958W        W34238   3.105  17.655  11.001 -0.3896 -0.1701  0.0295
13959W        W34239   2.314  14.994   1.778  0.3701 -0.3477 -0.0930
13960W        W34240  10.118  15.991  10.283  0.0539 -0.0565 -0.0656
13961W        W34241  14.520   6.164   0.010  0.0274 -0.1071  0.0199
13962W        W34242   4.627  13.917  13.607 -0.0698  0.2027 -0.2532
13963W        W34243   4.466  13.984  15.133  0.3708  0.0606 -0.1792
13964W        W34244   5.897  15.638  15.102 -0.3510 -0.0728 -0.1644
13965W        W34245   0.110   4.922   3.515  0.1660  0.0750  0.1457
13966W        W34246   1.147   1.406  14.482 -0.2908  0.3572 -0.0463
13967W        W34247   4.941   1.330   4.242  0.0994 -0.1223 -0.1780
13968W        W34248   8.050  15.635  12.973 -0.0411  0.0376 -0.0391
13969W        W34249   8.459   9.900  14.421  0.1532  0.1678 -0.1113
13970W        W34250   6.173   6.011   1.108  0.0466  0.3039 -0.2403
13971W        W34251  10.474   8.933   4.942 -0.2187 -0.1658 -0.3102
13972W        W34252   3.717  16.232   1.576  0.3238 -0.1169 -0.2113
13973W        W34253   2.040   1.604  14.098  0.0250 -0.0777 -0.2207
13974W        W34254  16.749   8.037   4.370 -0.0442  0.0443  0.1312
13975W        W34255  13.336   1.681  14.467 -0.2409 -0.1443 -0.1031
13976W        W34256  18.291  11.150   2.152  0.1592 -0.1666  0.0176
13977W        W34257  15.976   0.057  13.909 -0.0486  0.0037 -0.2197
13978W        W34258   1.841   1.828  12.164 -0.1104  0.0691 -0.0039
13979W        W34259   3.429   2.073  11.475 -0.0709  0.1623  0.0450
13980W        W34260  15.618   0.618  11.965  0.1519 -0.1679  0.0312
13981W        W34261  16.227  13.067  12.991 -0.1258  0.0196 -0.0709
13982W        W34262  14.944   6.164   0.308 -0.1116 -0.0193  0.2603
13983W        W34263   9.335   5.575  12.866 -0.0122  0.0733 -0.1330
13984W        W34264   0.514   9.131  13.341 -0.0313 -0.0173  0.1736
13985W        W34265  17.506   7.317  14.452 -0.0089 -0.1067  0.3017
13986W        W34266  14.145   4.227   0.483  0.1837  0.0841 -0.0862
13987W        W34267   3.580   3.757   2.808 -0.3222 -0.4924 -0.1692
13988W        W34268  17.854   3.143  14.657  0.1117  0.2745 -0.0326
13989W        W34269  17.032   5.175  14.773 -0.1210 -0.5163 -0.1909
13990W        W34270  16.527   8.270   2.413  0.0615  0.3349 -0.0001
13991W        W34271   5.247  15.728   4.143 -0.0134  0.3845 -0.3081
13992W        W34272   8.651  18.619   3.928  0.0508  0.0290  0.0123
13993W        W34273  18.358   0.962   1.210 -0.2072 -0.0002  0.0290
13994W        W34274   9.632   8.309   2.960  0.0750 -0.0081  0.0641
13995W        W34275   2.093  16.693  12.773 -0.0829  0.0022 -0.2420
13996W        W34276   2.203   5.851   0.745 -0.0002  0.0861  0.1830
13997W        W34277   7.102   1.841  15.254  0.3874 -0.0017 -0.1131
13998W        W34278  12.399   2.882  13.519  0.3579 -0.1794  0.0499
13999W        W34279   9.618   9.579  11.996 -0.1706  0.2619  0.1058
14000W        W34280  13.159  13.999   3.304 -0.0783 -0.2102 -0.0323
14001W        W34281   0.708   0.517  12.440  0.3333 -0.1364 -0.1615
14002W        W34282   7.456   8.059  11.238 -0.0748 -0.2451 -0.0111
14003W        W34283  18.091   7.174   4.403 -0.0535 -0.3497  0.1511
14004W        W34284   7.239  11.167  13.898  0.3025  0.1049 -0.0189
14005W        W34285  11.814   9.072   2.442 -0.0093 -0.1676 -0.2079
14006W        W34286   8.563  17.953  14.651 -0.1770 -0.1221 -0.2482
14007W        W34287   1.198   4.795  13.184  0.0352 -0.6679 -0.0680
14008W        W34288   2.087   3.331  13.209  0.0400 -0.0208  0.2562
14009W        W34289  18.367   1.696   4.478  0.0845  0.0961 -0.2229
14010W        W34290   9.163  16.164   1.196  0.2043 -0.0687  0.1071
14011W        W34291   9.736   4.196   3.010 -0.0742 -0.0353  0.2067
14012W        W34292   3.042   4.870  14.517 -0.2221  0.0227 -0.0145
14013W        W34293  17.077  14.099   3.937 -0.0782 -0.0375  0.0137
14014W        W34294   9.413   1.690   0.019  0.0876 -0.0073  0.1328
14015W        W34295   0.246   7.888  14.995 -0.1293 -0.2960  0.1670
14016W        W34296  17.870   6.261  11.780 -0.1386  0.0766  0.0405
14017W        W34297  14.044   1.327  11.567  0.0273 -0.1040  0.0686
14018W        W34298  10.878  11.901  12.004  0.0454  0.0788  0.0994
14019W        W34299  18.572   3.570   1.255 -0.1473  0.2856 -0.3832
14020W        W34300   1.208   7.147  11.367 -0.0625  0.3087  0.2296
14021W        W34301   7.415   3.243   0.890 -0.1642  0.1128 -0.2988
14022W        W34302  12.651   9.324   2.624 -0.3545 -0.2038 -0.1171
14023W        W34303  17.681  17.266   1.042  0.1978  0.2425 -0.1893
14024W        W34304  11.081   3.346   1.824 -0.0273 -0.0638 -0.1641
14025W        W34305   8.952  17.757   3.770 -0.1052  0.0246  0.2578
14026W        W34306   3.587   7.520   3.491  0.0867 -0.0643 -0.2874
14027W        W34307  13.693  17.627  14.241  0.0237  0.2905  0.1364
14028W        W34308   7.262   7.982   4.995  0.0637  0.0299 -0.1172
14029W        W34309  17.177  18.667  12.485 -0.4311 -0.0380 -0.1240
14030W        W34310   2.152   7.232  13.645  0.1815  0.0338  0.1046
14031W        W34311   6.635   2.932  11.386 -0.2796  0.1499 -0.0752
14032W        W34312   3.123   8.315  14.371  0.0169 -0.3223 -0.0118
14033W        W34313  18.325  16.788   2.135  0.1874  0.2251  0.1119
14034W        W34314   3.615   5.312  10.506 -0.0637  0.2946  0.0586
14035W        W34315   6.035   4.801  13.466 -0.0395 -0.1448  0.2309
14036W        W34316   4.315  13.763   2.092  0.0651  0.0254 -0.0724
14037W        W34317   3.265  10.770  11.397  0.3412  0.0180  0.1126
14038W        W34318   4.332  15.845   0.369 -0.2987  0.1168  0.1040
14039W        W34319  11.028  11.383   4.217 -0.3006  0.2436  0.3230
14040W        W34320   7.569  12.474   3.570 -0.1883  0.1412 -0.0276
14041W        W34321  11.362   3.248  12.713  0.1366 -0.2513  0.3423
14042W        W34322  15.367  15.205   2.272  0.0901  0.2215  0.1281
14043W        W34323   4.183   8.395  10.754 -0.1650 -0.2439  0.0742
14044W        W34324   5.148  17.371   0.236 -0.0762 -0.1737  0.0492
14045W        W34325  11.817   5.515  13.582  0.0117  0.0482  0.1372
14046W        W34326   1.175   7.240   2.506 -0.0556  0.4175 -0.2760
14047W        W34327   6.906   0.743  10.358  0.1634  0.0072  0.0696
14048W        W34328  17.127   2.187   1.259  0.0242  0.3405 -0.0580
14049W        W34329  10.930   0.360   1.361  0.0676  0.1197 -0.2553
14050W        W34330  18.379   6.273   2.535  0.0874 -0.3359 -0.4355
14051W        W34331  13.629  16.608  13.792  0.5157 -0.2403 -0.3276
14052W        W34332   9.610  14.911   0.931 -0.0526 -0.1187  0.0812
14053W        W34333  14.822  13.389  13.786 -0.1207  0.0520  0.1205
14054W        W34334  11.757   7.479   2.757 -0.0723 -0.1216  0.0164
14055W        W34335   7.624   7.660   3.584 -0.0606  0.0093  0.0224
14056W        W34336  16.416   7.993   1.030  0.2544  0.0508  0.0196
14057W        W34337  10.194   0.264   1.808 -0.0107  0.0103 -0.0739
14058W        W34338  13.852   4.205  12.168 -0.2282 -0.0991 -0.1337
14059W        W34339  11.250  15.638   2.637  0.0188  0.0935  0.2942
14060W        W34340   9.405  18.315   5.199  0.1208 -0.1080 -0.5601
14061W        W34341   8.979  18.150   0.587 -0.0119  0.0450 -0.0111
14062W        W34342   6.042  18.074  13.847  0.0978  0.0967 -0.1950
14063W        W34343  14.855  14.624   0.709  0.0258 -0.2909  0.0861
14064W        W34344   0.019  16.507   0.705  0.0062  0.2248 -0.0012
14065W        W34345  15.986  10.861   0.152 -0.1895  0.1909 -0.1238
14066W        W34346   7.676  10.498  13.357 -0.4213  0.0304 -0.1201
14067W        W34347   5.304  14.094   3.844  0.1732  0.3293  0.3017
14068W        W34348  13.000  18.005  14.611  0.2832 -0.1955 -0.1302
14069W        W34349  17.063   2.422   2.210  0.2569 -0.1705 -0.3727
14070W        W34350  12.002   1.147  13.753  0.0795  0.0028  0.3425
14071W        W34351   5.056   3.657  13.944 -0.3360  0.0385  0.2137
14072W        W34352  11.109   3.007   0.039  0.2781 -0.1705  0.0791
14073W        W34353   4.661  17.208   0.955 -0.1155  0.0603 -0.0841
14074W        W34354   3.334   4.842  14.968 -0.0266  0.0573  0.1967
14075W        W34355   2.882   6.748   4.368 -0.0982  0.1845 -0.1063
14076W        W34356   5.936  17.808   1.618  0.1061 -0.1155 -0.3124
14077W        W34357   1.046  18.620   3.780  0.1983 -0.1224 -0.0581
14078W        W34358  10.418   4.579  12.747  0.0092 -0.3291 -0.2236
14079W        W34359  15.893  13.355   1.054  0.3046  0.0676 -0.1587
14080W        W34360   8.613   9.998   1.494 -0.0065  0.2859  0.1702
14081W        W34361   6.921   5.177  13.203 -0.1695 -0.1191 -0.1065
14082W        W34362  13.366  10.895   1.962 -0.2650  0.0948 -0.1982
14083W        W34363  17.597  17.827   1.026  0.0233  0.0370  0.0804
14084W        W34364  14.977   2.486   2.849  0.0492 -0.0615  0.1046
14085W        W34365   5.044  13.972   0.869  0.0615 -0.0214  0.0524
14086W        W34366  15.633   6.755  12.696  0.0448 -0.1007 -0.0677
14087W        W34367   5.269  10.460   2.968  0.0148 -0.0213  0.0081
14088W        W34368  12.355  12.965   2.705  0.2899  0.2722 -0.1921
14089W        W34369  12.647   2.136   3.536  0.1349  0.1641 -0.0485
14090W        W34370  10.321  17.220   2.203  0.0504  0.0849 -0.0939
14091W        W34371  15.265   8.250   3.894 -0.2693  0.1733  0.1308
14092W        W34372  18.557  13.215  12.508  0.5042  0.3173  0.0355
14093W        W34373  15.107   3.215   2.365  0.1975 -0.0910  0.2279
14094W        W34374   2.141   7.591   2.794 -0.2048 -0.2248  0.1021
14095W        W34375  17.900  10.818   2.943 -0.1594  0.1326 -0.0823
14096W        W34376   8.974   8.005   0.392  0.0391  0.0933 -0.0153
14097W        W34377   8.844   8.277   1.911 -0.3564 -0.0952 -0.0743
14098W        W34378   7.989  11.318   0.135 -0.0506 -0.0616 -0.1195
14099W        W34379  14.890  16.126  13.872  0.0770 -0.1501  0.2716
14100W        W34380  17.836  12.178   4.125 -0.0565  0.0807 -0.2685
14101W        W34381  14.428   1.959  14.586  0.0389 -0.0384  0.0305
14102W        W34382   0.269  13.528  11.548  0.0520  0.0396 -0.4022
14103W        W34383   9.651   5.663   3.507 -0.1896 -0.1970  0.2728
14104W        W34384  10.190  17.213  13.664 -0.0769  0.2560  0.2759
14105W        W34385   9.386  11.809  11.479 -0.1553  0.0034  0.0446
14106W        W34386  13.210   5.526  13.644  0.1165 -0.1551  0.0059
14107W        W34387   7.729  16.602  13.758 -0.0597 -0.0925  0.1441
14108W        W34388  14.131   7.748  13.061  0.1341 -0.0231 -0.2139
14109W        W34389   0.643   8.313  14.196 -0.0596 -0.1916  0.1012
14110W        W34390  17.905   9.270   1.798  0.0836  0.1198 -0.1987
14111W        W34391   5.604  18.271  13.817  0.1532 -0.0208  0.4090
14112W        W34392  10.625   9.184  12.438  0.1786  0.0739 -0.1687
14113W        W34393  18.604   1.269  14.803 -0.1398 -0.0116 -0.3476
14114W        W34394   3.447  17.744   3.519  0.0880  0.0963  0.3540
14115W        W34395   9.898  13.312  14.145 -0.0327  0.1182 -0.0053
14116W        W34396   6.736   6.122   2.167 -0.2652  0.2802  0.1087
14117W        W34397   7.873   4.669   0.498 -0.0803  0.0476 -0.1724
14118W        W34398   7.676   2.998  14.837 -0.1787 -0.4699  0.0503
14119W        W34399   4.224  16.600   3.780  0.1437  0.3767  0.0892
14120W        W34400   5.858  17.443   3.354 -0.0353 -0.2082 -0.2781
14121W        W34401   0.921  11.818   0.428  0.1313 -0.0179 -0.0997
14122W        W34402  18.325   3.185  14.297 -0.1992 -0.0426  0.0917
14123W        W34403  11.141   8.716  15.247  0.4724 -0.0319 -0.3439
14124W        W34404   5.667  13.968  12.781  0.0172 -0.2180 -0.4019
14125W        W34405   8.037   5.122  14.375 -0.0551  0.2172  0.2032
14126W        W34406  11.817   9.339   0.591 -0.0497  0.1493 -0.0932
14127W        W34407   3.657   1.575   3.137 -0.0796  0.0071  0.2558
14128W        W34408  11.739   0.468  11.683 -0.0933  0.2792  0.0593
14129W        W34409  18.620  17.469  12.197  0.2780 -0.0936 -0.1010
14130W        W34410  18.171  16.378  15.249  0.0510  0.1185  0.0903
14131W        W34411  18.071  12.644  14.149 -0.0521  0.0259  0.2534
14132W        W34412  14.302   2.717   3.330 -0.2106  0.1881 -0.1376
14133W        W34413   5.080   6.578   0.091  0.0134  0.0554 -0.0527
14134W        W34414  10.078   2.424  13.771 -0.1031 -0.2461  0.0164
14135W        W34415   8.396  11.126  12.094  0.3023  0.2711 -0.1930
14136W        W34416   4.495  18.386   1.499 -0.0928  0.1904 -0.2474
14137W        W34417  17.286  14.440   0.479 -0.3306  0.0472  0.3298
14138W        W34418  10.407   4.849   1.316  0.0456  0.1215 -0.0736
14139W        W34419   5.249  11.335  14.949  0.1366  0.0582 -0.4408
14140W        W34420  10.987  15.237   1.276  0.2334  0.1181 -0.2218
14141W        W34421  11.734  12.108  15.331 -0.1154  0.2453  0.2931
14142W        W34422  16.132   2.157   1.067 -0.2211 -0.2168  0.1744
14143W        W34423   9.555   5.528   1.001  0.0289 -0.3090  0.0548
14144W        W34424   0.203  17.172   3.545  0.3515  0.3182  0.0141
14145W        W34425   1.815   6.767  13.279  0.1926  0.2905 -0.0481
14146W        W34426   9.026   3.006  14.693 -0.1289 -0.0437 -0.0819
14147W        W34427  12.225  10.013   3.993 -0.0716  0.0265 -0.1488
14148W        W34428   6.327   4.755  15.179 -0.2241  0.0007 -0.1003
14149W        W34429  17.918   7.222  11.503 -0.1356 -0.0738 -0.0939
14150W        W34430  14.190   8.244  13.776 -0.2978  0.1850 -0.1301
14151W        W34431   2.371  13.862   2.302 -0.1045 -0.3219 -0.0901
14152W        W34432  15.327   3.127   3.387  0.1416 -0.0417 -0.0495
14153W        W34433  12.541  14.793   0.369  0.0606  0.0219  0.1779
14154W        W34434  13.406   6.286   0.228 -0.2316 -0.2155 -0.1212
14155W        W34435   6.864   4.516   0.554  0.2262 -0.0688  0.0683
14156W        W34436  14.340   6.818   2.402 -0.3837 -0.0950 -0.2635
14157W        W34437   8.639   8.760   0.751  0.3631 -0.0242  0.2005
14158W        W34438  13.693  15.744  12.335  0.1118 -0.0431  0.1320
14159W        W34439   1.022   6.089  14.347 -0.1584 -0.2317  0.2579
14160W        W34440  13.332  17.533  11.097 -0.1089  0.0604  0.1143
14161W        W34441   8.092   6.525   4.430 -0.3246  0.1592  0.0175
14162W        W34442   6.063   0.525   3.476  0.2149 -0.3507  0.0009
14163W        W34443   3.658   5.614  15.180 -0.0130  0.2293 -0.1201
14164W        W34444   8.449   5.943   0.307 -0.5636 -0.0603 -0.1047
14165W        W34445  17.079  17.381   1.061  0.0439  0.1325  0.0531
14166W        W34446   2.093   2.813  13.050  0.0380 -0.1358 -0.1249
14167W        W34447   8.397   1.133  14.546 -0.1268 -0.0266  0.1217
14168W        W34448   7.510   2.128  10.967  0.1779  0.0954 -0.1248
14169W        W34449   7.499   4.139   4.079 -0.0752  0.0639 -0.1049
14170W        W34450   6.169   0.975   3.848  0.1272  0.0596 -0.2651
14171W        W34451  10.026  15.816  15.010 -0.1795  0.0580 -0.0922
14172W        W34452   2.696  12.725   1.498  0.0773  0.0875 -0.1199
14173W        W34453   9.055  16.643  13.702  0.2426  0.2043  0.1584
14174W        W34454  11.778  10.520   0.144 -0.0960  0.0415  0.0358
14175W        W34455   0.152  11.676  12.159 -0.1369  0.0958 -0.0798
14176W        W34456  10.696   9.078   1.335  0.0533 -0.0945 -0.0230
14177W        W34457  18.508  14.343  13.416  0.0191  0.3150  0.2773
14178W        W34458  18.015  11.206   3.870 -0.1386 -0.3964 -0.0657
14179W        W34459   3.522  14.277   3.867  0.1925  0.2145  0.0877
14180W        W34460  11.560  13.025  13.981  0.0186  0.2520  0.3273
14181W        W34461  11.973   1.428  11.110 -0.0499 -0.1874  0.0223
14182W        W34462   5.258   1.190   3.857  0.0484  0.1181 -0.1335
14183W        W34463  11.233  15.725  12.946 -0.1526  0.0566  0.2325
14184W        W34464  16.876  11.384   4.097  0.3701 -0.1581 -0.1273
14185W        W34465   0.618  14.236   1.028  0.1138  0.0104  0.0309
14186W        W34466  17.036   0.769  14.580  0.0820 -0.1399 -0.2406
14187W        W34467  10.437   5.237   1.634  0.1015  0.2202 -0.2497
14188W        W34468   8.206  11.577  11.810  0.1022 -0.2137  0.1442
14189W        W34469  14.356   6.116   3.154 -0.0625  0.1182 -0.0126
14190W        W34470  10.275  16.535   3.548 -0.0274  0.1060 -0.0144
14191W        W34471   6.979   6.227   3.239  0.1124  0.0647 -0.3375
14192W        W34472  15.364  13.007   5.769 -0.0817 -0.2361  0.0700
14193W        W34473   2.062  11.069   0.027 -0.1804 -0.0657  0.2754
14194W        W34474   1.921  16.641   1.125  0.5262 -0.2367  0.2091
14195W        W34475   7.078   5.045   1.951 -0.0110  0.3270 -0.0944
14196W        W34476  14.770  12.139   1.328 -0.0599 -0.1644 -0.2522
14197W        W34477  10.941  11.314  13.445  0.1781 -0.1673  0.1286
14198W        W34478   5.130  14.565  12.735  0.1115 -0.2641  0.0175
14199W        W34479   7.750  10.770  11.698  0.1553  0.0747  0.0492
14200W        W34480  16.349   4.173   1.183  0.4246 -0.0867  0.2564
14201W        W34481  10.159  13.321   1.808  0.1642 -0.0244 -0.1576
14202W        W34482  16.871   6.146  13.957  0.3313  0.3619  0.1366
14203W        W34483  15.909  13.886   0.980 -0.1053  0.1531  0.0575
14204W        W34484  15.213   7.457  12.115 -0.1867  0.2149 -0.1598
14205W        W34485   2.953   1.569   1.918  0.0661 -0.0721  0.0987
14206W        W34486  14.549   2.723  12.755 -0.3029  0.1772 -0.0455
14207W        W34487   5.336  10.632  15.338  0.2532  0.1280 -0.3061
14208W        W34488  15.742   9.317  11.945 -0.1159 -0.0316 -0.0048
14209W        W34489  12.773  12.576  12.125 -0.0233 -0.0244 -0.1225
14210W        W34490  18.744   6.510   1.569  0.0877  0.1299 -0.1094
14211W        W34491   9.430   6.227   0.456  0.1548 -0.0464 -0.0749
14212W        W34492  11.214  17.979  12.959  0.1409 -0.0279  0.0049
14213W        W34493   8.847  18.121  12.998  0.0636 -0.2660 -0.3532
14214W        W34494   4.722  14.033  13.124 -0.0746  0.0312 -0.1776
14215W        W34495  11.628   3.336   1.714  0.2064 -0.0285 -0.0746
14216W        W34496  16.648  15.155  11.308  0.0385 -0.0431 -0.0223
14217W        W34497   7.403   0.680   3.495 -0.2324  0.1118  0.0768
14218W        W34498  18.291   2.770   0.991  0.1675  0.2225 -0.2784
14219W        W34499   4.174   6.644   4.364 -0.0045 -0.0194  0.1079
14220W        W34500   7.872   5.161  13.861 -0.2017 -0.0516  0.0184
14221W        W34501   6.369   1.064   0.922  0.0461  0.0712  0.1187
14222W        W34502   6.449  16.849   2.762 -0.1299 -0.3477  0.1314
14223W        W34503  13.344   2.497  14.899 -0.3859  0.2609  0.1731
14224W        W34504   8.577  11.666   2.218  0.0603 -0.0317  0.1211
14225W        W34505   0.605   1.088   2.233  0.1085 -0.1372 -0.1873
14226W        W34506   7.176  10.045   0.068  0.0355  0.4064 -0.1027
14227W        W34507  13.917  15.638   4.672 -0.3266  0.0792 -0.1183
14228W        W34508   5.914  15.769  12.207 -0.1742 -0.1921 -0.2518
14229W        W34509   8.948  14.955   2.762 -0.1467 -0.1368 -0.3296
14230W        W34510  15.693  10.407   3.378 -0.1766  0.1394 -0.0885
14231W        W34511  18.701   5.774   3.797 -0.0199  0.0889  0.2772
14232W        W34512  11.987  12.521  14.817  0.0310  0.0245  0.0571
14233W        W34513   4.263  10.044   2.816 -0.0236  0.0081 -0.1506
14234W        W34514  15.864  15.705   0.544 -0.0957 -0.4195  0.0231
14235W        W34515  15.216  18.379   1.405 -0.1379  0.0089  0.0509
14236W        W34516  11.184   5.135   0.230 -0.1486 -0.1054  0.1448
14237W        W34517   1.459   6.385   0.460 -0.1110 -0.0959  0.1703
14238W        W34518  10.581   2.423  15.076  0.0448 -0.0579 -0.0943
14239W        W34519  12.220  18.437   2.463  0.2126 -0.1093 -0.1899
14240W        W34520  17.472  14.870   0.903  0.0689  0.0627 -0.1127
14241W        W34521  13.715   9.880   1.360  0.2744 -0.1475  0.0123
14242W        W34522   4.322   1.354   3.460 -0.0632 -0.1003  0.0306
14243W        W34523  15.122   2.729  15.054  0.4209  0.2734 -0.2999
14244W        W34524   6.112   6.066  13.006 -0.2267 -0.0530  0.4006
14245W        W34525   1.883  14.160  13.028  0.0309  0.3178 -0.0185
14246W        W34526   5.837   3.201   4.355  0.1674  0.2268  0.2037
14247W        W34527   4.317  12.873  12.769 -0.1964  0.1305  0.0857
14248W        W34528   6.985   2.616  14.751 -0.0121  0.1338  0.1687
14249W        W34529  14.900   3.765  13.577 -0.1897 -0.1366 -0.1347
14250W        W34530   5.959  16.981   0.638  0.2507 -0.0437 -0.1340
14251W        W34531   0.165   8.042   0.102 -0.0411 -0.1217 -0.1242
14252W        W34532   3.744  12.880   1.368 -0.2900 -0.2089 -0.1323
14253W        W34533  15.834   3.239   4.946  0.0989 -0.0986 -0.1986
14254W        W34534   5.667   2.916   3.154 -0.1035 -0.1414  0.0741
14255W        W34535  17.209  11.756   3.078  0.1273 -0.1016  0.3473
14256W        W34536  13.056  16.499   2.310 -0.3930 -0.0557 -0.1228
14257W        W34537   5.529  15.503  13.860 -0.0732 -0.1698 -0.0022
14258W        W34538  14.879  10.319   4.457  0.0336  0.0019 -0.1323
14259W        W34539   9.897  15.773   3.897 -0.0696 -0.0290 -0.1757
14260W        W34540   1.418   0.841   1.736 -0.0312  0.1122 -0.0213
14261W        W34541  13.160  14.646  11.227 -0.1358 -0.0431 -0.1260
14262W        W34542   0.975   6.907  14.322 -0.0608  0.0653 -0.1869
14263W        W34543  17.198  18.631  13.686 -0.0335 -0.3818  0.0977
14264W        W34544  12.126  10.681   1.969  0.1567 -0.0007  0.2758
14265W        W34545   0.454   9.230  13.838  0.1061  0.2748 -0.1173
14266W        W34546  18.511  16.358   3.037 -0.0595  0.3408 -0.0046
14267W        W34547  17.430   1.268   2.324  0.0094 -0.0753 -0.0051
14268W        W34548   9.178  15.380  13.020 -0.2191  0.0129 -0.0493
14269W        W34549  16.370   5.537  15.386 -0.1154 -0.0992 -0.0172
14270W        W34550  14.776   3.285  13.474  0.2752 -0.0456 -0.2113
14271W        W34551  16.898  18.124   1.795  0.0851 -0.1047  0.1021
14272W        W34552   8.109   0.740  14.755  0.0136 -0.2717  0.0822
14273W        W34553  17.133  18.340   2.456 -0.1931 -0.1359 -0.1337
14274W        W34554   4.324  17.193  13.127  0.1035  0.3356  0.0400
14275W        W34555   0.183   1.061  14.033 -0.1711  0.0855  0.0845
14276W        W34556  15.865   4.370  15.123  0.0706  0.1330 -0.4149
14277W        W34557   3.790  17.879  15.248 -0.1264  0.1819 -0.0265
14278W        W34558   2.709   2.451   3.552  0.1263 -0.0482 -0.3040
14279W        W34559  16.625   5.747  12.434  0.0110 -0.1529  0.2486
14280W        W34560   7.085  16.019  11.688 -0.1016  0.2947  0.1638
14281W        W34561  14.302  12.477  11.164 -0.2211  0.3317 -0.0078
14282W        W34562   5.786   2.635  11.836  0.1920 -0.1843 -0.2598
14283W        W34563   8.749   9.173  14.906 -0.4579 -0.2243  0.3105
14284W        W34564   7.372   1.961   0.295 -0.3029  0.1471  0.2286
14285W        W34565   2.641   8.526   1.255 -0.5064  0.1738  0.0584
14286W        W34566  15.664  14.200   4.484  0.1575  0.3383 -0.1502
14287W        W34567  17.103   8.064  13.419  0.1306 -0.0470 -0.1548
14288W        W34568   7.382   7.256  15.136 -0.1694  0.1854 -0.0430
14289W        W34569  17.618   9.663   1.989  0.2402 -0.0191 -0.1617
14290W        W34570  13.710  16.029   0.414  0.0670 -0.0292 -0.0864
14291W        W34571  10.709  11.006   4.060 -0.2708 -0.1525 -0.1838
14292W        W34572  10.930   8.713   2.347 -0.0917 -0.0954  0.1748
14293W        W34573   3.705  15.007  11.225  0.1127  0.2836  0.3466
14294W        W34574  12.840  17.122  13.047 -0.2603  0.4163  0.2303
14295W        W34575  10.678   2.527   2.377  0.1526 -0.0514  0.0436
14296W        W34576   1.765  14.895   2.581  0.1438  0.0302  0.0880
14297W        W34577  11.386  17.466   1.391  0.0079 -0.0647 -0.0774
14298W        W34578  12.477  18.004   2.454  0.2159 -0.1742 -0.2448
14299W        W34579   1.712   8.013  15.074  0.0349 -0.0747 -0.1280
14300W        W34580  10.348   4.048   0.413  0.0154  0.1844 -0.0192
14301W        W34581   5.501  10.586  11.501  0.2043  0.2872 -0.1994
14302W        W34582   0.706   5.272   0.234 -0.2316 -0.2488  0.4420
14303W        W34583   9.711  17.752  14.946  0.1355 -0.1707  0.1547
14304W        W34584  12.940   2.225   3.108 -0.1924 -0.0025  0.2947
14305W        W34585  10.044   3.796   1.680  0.5484 -0.2349 -0.2933
14306W        W34586  14.543  16.977  11.515  0.0696 -0.2510 -0.2008
14307W        W34587   5.507  13.927  15.183 -0.1186  0.2963 -0.2807
14308W        W34588  11.643   3.685  11.166  0.2982  0.0145 -0.1337
14309W        W34589   9.667  17.663  13.038  0.2884  0.1587 -0.0056
14310W        W34590   0.993  16.623  15.247 -0.0933  0.1323  0.0160
14311W        W34591  17.814  13.538  11.638 -0.3597  0.0801 -0.0406
14312W        W34592  10.984  11.405  14.433 -0.1449  0.0408  0.0952
14313W        W34593   4.105  16.801  12.396  0.0845  0.1581 -0.2651
14314W        W34594   1.905  11.883  12.475  0.0650 -0.1633 -0.3004
14315W        W34595  13.981  12.730   0.667  0.3848  0.0978 -0.1853
14316W        W34596   9.403  10.690   3.813 -0.0477 -0.5277  0.0730
14317W        W34597  17.693  12.828   2.940  0.0755 -0.0390 -0.1020
14318W        W34598   9.913  15.359  15.349 -0.1301 -0.0780 -0.2152
14319W        W34599  15.932   0.758   0.567 -0.0316  0.0423  0.2038
14320W        W34600  15.733  15.940   3.152 -0.0794 -0.1623  0.1968
14321W        W34601   0.726  14.337  14.428 -0.1655  0.3768  0.0560
14322W        W34602   5.145   0.751   3.705  0.2308 -0.1813  0.0035
14323W        W34603  14.075   5.094   1.293  0.0241 -0.1916 -0.0655
14324W        W34604  17.030   6.595  13.215 -0.1335 -0.2286 -0.0459
14325W        W34605   9.176   2.352  14.843 -0.0604 -0.0377 -0.2332
14326W        W34606   2.271   0.295  14.018  0.0218  0.1854  0.1470
14327W        W34607   5.423   2.492  15.309 -0.1026  0.2768 -0.0245
14328W        W34608   9.929   2.214  10.241  0.0590 -0.0811  0.6181
14329W        W34609  15.750  15.072   3.597  0.2244 -0.0979 -0.2092
14330W        W34610  16.681   2.770   0.571 -0.0607  0.1147 -0.1616
14331W        W34611  13.400   6.827   3.476 -0.0766 -0.5528 -0.3250
14332W        W34612   8.760   5.352  12.992 -0.1278  0.2034 -0.1695
14333W        W34613  17.333  10.847   5.147  0.0000  0.1585  0.1003
14334W        W34614  16.536  13.487   2.538  0.0197  0.0679  0.0328
14335W        W34615   8.106  17.712  11.563 -0.0599  0.2376 -0.1654
14336W        W34616   6.345  16.833  11.305 -0.0469  0.1927 -0.1789
14337W        W34617   2.365   6.725   2.417  0.1551 -0.2621  0.0490
14338W        W34618   8.037   1.514  15.256 -0.2863  0.0129 -0.2044
14339W        W34619  17.202   1.693  14.537 -0.0750 -0.1543  0.2627
14340W        W34620  17.567  10.662  15.319 -0.1723  0.0107 -0.1955
14341W        W34621   8.886   7.762   3.581 -0.1127 -0.1618 -0.0870
14342W        W34622  17.609  11.459  13.356 -0.1334  0.2951 -0.1958
14343W        W34623   5.944   0.284  12.092  0.1169  0.2520 -0.0701
14344W        W34624   5.224   4.318   1.267 -0.1506  0.1073 -0.1951
14345W        W34625  12.740   8.951   2.968 -0.1699  0.1246  0.0438
14346W        W34626   2.258  11.621  13.299  0.0597 -0.0729 -0.3267
14347W        W34627   6.383   0.492   1.015 -0.2242 -0.2289 -0.1449
14348W        W34628   9.590   9.937  11.618 -0.0094  0.3232  0.0200
14349W        W34629   9.669  15.380  13.045  0.0463 -0.2501  0.0785
14350W        W34630   2.532  14.462   4.429 -0.0649 -0.0581 -0.1634
14351W        W34631   0.318   4.584   3.860 -0.0808 -0.0691  0.1417
14352W        W34632  12.916   7.269  14.999  0.0329  0.0476  0.3902
14353W        W34633   9.891   4.892  14.457  0.0799  0.0551  0.2913
14354W        W34634  10.516   8.502  13.532 -0.0318 -0.1516 -0.1994
14355W        W34635  14.934   4.954  12.173  0.0715  0.0326 -0.0169
14356W        W34636   7.413  16.145   3.028 -0.1145 -0.2448  0.1155
14357W        W34637  15.882   5.077  13.090 -0.1360  0.0103 -0.1877
14358W        W34638   1.007  18.466  11.335  0.0409  0.1247  0.0684
14359W        W34639  16.536  14.342  12.069  0.0008 -0.0701  0.0672
14360W        W34640   3.872   5.382  11.690  0.2038 -0.3254  0.0041
14361W        W34641  11.571  12.953   2.340  0.0333 -0.0261  0.2497
14362W        W34642  14.440  15.023  12.493  0.1022  0.1186 -0.2059
14363W        W34643  14.631  13.857   0.140 -0.2370 -0.0002  0.1268
14364W        W34644   6.819   7.984  13.010  0.2000 -0.3191  0.1824
14365W        W34645  13.135  15.273  13.159  0.1591  0.0052 -0.1676
14366W        W34646   8.323  14.059  13.517 -0.2083 -0.0001 -0.2241
14367W        W34647   4.578  13.100   3.266 -0.1749  0.0422 -0.0545
14368W        W34648   0.430  17.137  11.421 -0.1192 -0.1469  0.0810
14369W        W34649   6.372  11.857  12.858 -0.1454  0.2278 -0.0222
14370W        W34650   0.583  13.742  15.184 -0.1367 -0.1592 -0.2087
14371W        W34651   1.898  12.133   2.221  0.1069 -0.0596 -0.0178
14372W        W34652   9.802   1.628   1.959  0.2775  0.0267 -0.0602
14373W        W34653  18.530  10.282  14.963  0.3843  0.0857  0.0461
14374W        W34654   7.229  12.644  14.547  0.2536  0.0664  0.2370
14375W        W34655   9.358  17.251  13.074 -0.2787  0.1462  0.1037
14376W        W34656  12.413   2.577  14.869  0.0992  0.0180  0.1287
14377W        W34657  11.602   3.174   3.057 -0.0842 -0.0348  0.0502
14378W        W34658   1.313   3.832   0.671 -0.2231 -0.2981  0.1974
14379W        W34659   8.025   3.262   4.030 -0.0506 -0.0802  0.2971
14380W        W34660   1.557   7.564  15.372  0.0352 -0.1355 -0.1453
14381W        W34661  16.084   9.240   3.241 -0.0133  0.2219  0.2914
14382W        W34662  18.181  16.858  14.481 -0.1032  0.1823 -0.0127
14383W        W34663  10.235   9.829  11.304  0.0966  0.1630 -0.2652
14384W        W34664  10.255  11.973   0.596 -0.0642  0.3561  0.0473
14385W        W34665  17.202   9.666  11.323  0.1401  0.1146 -0.2778
14386W        W34666   0.881  14.134  15.194  0.2400 -0.1968  0.1332
14387W        W34667  16.902   0.047   1.256 -0.0230  0.3413 -0.0765
14388W        W34668  17.160   2.906   0.441  0.0588  0.0313  0.0074
14389W        W34669   3.780   6.388   2.704  0.0550  0.0417 -0.1913
14390W        W34670  13.540  14.157   3.572  0.1109  0.3164  0.0701
14391W        W34671   2.760   8.978   2.929  0.2169 -0.1935 -0.1102
14392W        W34672   4.250   8.107  13.743  0.0579 -0.2353  0.1270
14393W        W34673  18.648   5.744  12.746 -0.2270 -0.1541  0.2438
14394W        W34674   9.626  13.991   4.344 -0.0699 -0.1985 -0.0555
14395W        W34675   7.607   5.826  12.596 -0.0583 -0.0571 -0.2566
14396W        W34676  11.675   3.018  12.339  0.1846  0.2296  0.0122
14397W        W34677  13.298  11.420   1.173  0.0275  0.0463 -0.0738
14398W        W34678   3.670  14.228  14.613  0.0334 -0.1301  0.1764
14399W        W34679  13.861  16.492  13.341  0.1224  0.2144  0.1601
14400W        W34680   9.626  18.128  11.675  0.0997  0.0886 -0.0634
14401W        W34681   2.716  16.340  14.869  0.0645 -0.5252  0.1945
14402W        W34682   7.151   9.977  12.179 -0.2485 -0.1380 -0.1989
14403W        W34683   4.122  15.150  11.688  0.1097 -0.1444 -0.4825
14404W        W34684  12.281  12.604  12.216  0.0881 -0.0520  0.2966
14405W        W34685   2.857  14.096   0.383  0.3812  0.0698  0.1964
14406W        W34686  14.854   1.918  11.665 -0.0140  0.1083  0.2335
14407W        W34687   6.719   8.508  13.024 -0.1368  0.1014 -0.0250
14408W        W34688   9.553   4.873  12.147 -0.0795  0.1107  0.0392
14409W        W34689  10.253  15.903  13.486  0.1356  0.0566 -0.1525
14410W        W34690   0.343  12.596   0.435  0.0551 -0.0825 -0.1060
14411W        W34691  11.657   3.518  11.901  0.1870  0.0901  0.0668
14412W        W34692  15.712  15.179  12.245 -0.0271  0.0167  0.1703
14413W        W34693  11.102  10.830   3.715 -0.0815  0.1952 -0.0934
14414W        W34694   5.874   2.835  10.785  0.1494  0.0275 -0.2131
14415W        W34695   5.197  10.777   4.189  0.0035  0.0019  0.1520
14416W        W34696   2.096   5.183  12.883  0.0308 -0.0222 -0.2679
14417W        W34697   6.566   5.606  15.226  0.0469 -0.0422  0.1752
14418W        W34698   4.077  13.023   3.426 -0.0132 -0.2652 -0.0045
14419W        W34699   1.607   6.590  15.066 -0.1659  0.0611  0.0065
14420W        W34700  10.731   2.068   2.577  0.1563  0.1287 -0.1868
14421W        W34701   2.559   1.536  14.858  0.1000  0.2272 -0.0049
14422W        W34702  17.734  17.461  15.373 -0.1228 -0.1431  0.1180
14423W        W34703  11.063   9.785  14.084  0.0404 -0.0170  0.1393
14424W        W34704   6.905   3.085  13.715 -0.0238 -0.3439  0.1735
14425W        W34705  16.793  18.000  11.842 -0.2848 -0.1593 -0.1449
14426W        W34706  11.844  12.815   3.520  0.2102  0.1136 -0.2173
14427W        W34707  17.419   3.387   4.203 -0.0573 -0.1495 -0.2210
14428W        W34708   3.511  15.189   3.018  0.0851 -0.0791 -0.0092
14429W        W34709  11.622  14.698   2.331  0.2735 -0.1293  0.0811
14430W        W34710   2.621   3.363   2.968 -0.0546  0.2533 -0.0352
14431W        W34711  13.725   6.331   2.605 -0.2084  0.0020 -0.0637
14432W        W34712   8.779   2.674   1.741  0.1192  0.1223  0.3343
14433W        W34713  16.722   1.209   2.839 -0.1281  0.2981  0.4977
14434W        W34714   1.011   6.522   4.062  0.2571 -0.4163 -0.0456
14435W        W34715   0.201  10.379   2.402  0.0829  0.1016  0.1708
14436W        W34716  10.872   3.093  11.944 -0.3835 -0.0959  0.1408
14437W        W34717   4.753   5.838  14.842  0.3939  0.0312  0.2024
14438W        W34718   3.449   7.937  11.873 -0.0312  0.0278 -0.1623
14439W        W34719   7.109   8.945   2.472 -0.3300  0.0336  0.1346
14440W        W34720   3.153  13.585  14.272  0.4615 -0.0582  0.0167
14441W        W34721  10.118  13.394  12.235  0.3960  0.0162 -0.2344
14442W        W34722   0.412   6.631  11.663 -0.0778  0.0026 -0.0076
14443W        W34723   9.680  11.360  14.218 -0.3436 -0.3508 -0.0135
14444W        W34724  11.136  17.902  14.983  0.4276  0.0755  0.1067
14445W        W34725  17.673   6.171  13.874  0.3016  0.2953  0.0813
14446W        W34726   5.833   4.264  11.620 -0.4482  0.2472  0.2206
14447W        W34727  11.318  12.710   0.630 -0.0574 -0.0390  0.1049
14448W        W34728  16.442  13.854  11.797 -0.3837  0.0758  0.1699
14449W        W34729  15.956   7.803   2.922 -0.0965 -0.0837 -0.2632
14450W        W34730  11.155  14.254  14.455 -0.0169 -0.3140 -0.0705
14451W        W34731   7.025  11.114  12.431 -0.3823  0.3049  0.0901
14452W        W34732   5.237   2.652   0.495 -0.1758  0.0072 -0.0754
14453W        W34733   2.382  13.810   1.018  0.1698 -0.2650 -0.0484
14454W        W34734  10.143   1.638   3.359  0.0604  0.0074  0.0665
14455W        W34735  17.772  13.177   5.734 -0.2618  0.1593  0.2027
14456W        W34736   9.457   7.091  14.780  0.2295 -0.0072 -0.0111
14457W        W34737   5.834  11.296  14.969  0.1248  0.0391  0.0311
14458W        W34738  16.257  14.798  12.239 -0.1160  0.2680 -0.2357
14459W        W34739   7.768   1.639   0.397  0.3953 -0.3549  0.0413
14460W        W34740   5.243   5.234   2.530  0.0966 -0.1528 -0.3202
14461W        W34741   2.390   3.841  12.150  0.2633 -0.2095  0.1499
14462W        W34742  15.349   2.288   2.053 -0.0092 -0.2225 -0.1463
14463W        W34743  13.776   2.345  15.198  0.0806 -0.0235 -0.0725
14464W        W34744  11.772  16.689  11.200  0.3912 -0.1697  0.2795
14465W        W34745   2.124   3.467   3.241 -0.1159  0.0745  0.2739
14466W        W34746  14.950   0.834  13.734  0.0235 -0.1783 -0.0223
14467W        W34747   1.655   1.874   2.177 -0.4187 -0.0300 -0.2154
14468W        W34748   4.079  17.686   4.205  0.3275 -0.0917  0.0525
14469W        W34749   5.391   6.772  12.378 -0.2774  0.2906  0.3237
14470W        W34750  10.876   5.004   1.524  0.0066  0.0253  0.0987
14471W        W34751  18.495   0.100   1.316  0.0982 -0.0423 -0.0147
14472W        W34752  13.273   1.545   4.250  0.2890 -0.4834 -0.1542
14473W        W34753   1.202   9.461   0.237  0.0285 -0.0574  0.5087
14474W        W34754  10.408   6.353   3.235  0.1065  0.0848  0.1162
14475W        W34755  11.561   6.548   0.230 -0.1094  0.0221  0.1207
14476W        W34756   5.181   6.996   2.243 -0.0315 -0.1780 -0.0484
14477W        W34757   9.236  10.333   0.766  0.0253  0.0002 -0.1053
14478W        W34758   8.403   4.689   2.233 -0.0199 -0.1352 -0.0569
14479W        W34759  12.035  12.873  14.357 -0.0622  0.0858 -0.1823
14480W        W34760   0.139  16.158   3.312  0.1176  0.0195 -0.0201
14481W        W34761   5.412  18.287   0.472  0.0341  0.0885 -0.0337
14482W        W34762  12.651  13.799   0.285  0.0946  0.1950  0.1007
14483W        W34763  16.043  17.091   1.628 -0.0727  0.0083  0.1592
14484W        W34764   0.391   2.720  10.743 -0.2204  0.2746  0.1865
14485W        W34765   6.591  11.394  15.377 -0.1065 -0.0857  0.0211
14486W        W34766  15.587   6.871   4.058 -0.1025  0.0342 -0.0566
14487W        W34767  10.756  12.243   3.651 -0.3293  0.2335 -0.2841
14488W        W34768  11.333   7.182  12.776  0.0833  0.1813 -0.1801
14489W        W34769   7.609   8.785  12.395 -0.2413  0.0271 -0.2878
14490W        W34770  14.466  16.853  10.100  0.1662  0.3814 -0.0432
14491W        W34771   1.596  11.415   3.687 -0.2061  0.0716 -0.2494
14492W        W34772   9.362  10.434   1.696  0.0596 -0.0171  0.1418
14493W        W34773  14.782   0.503   1.841 -0.0479  0.1693  0.2182
14494W        W34774  17.551   0.722   3.861 -0.0504  0.0177 -0.0546
14495W        W34775  17.087   3.977   3.006 -0.1363  0.0050  0.1802
14496W        W34776   1.958  17.491  12.488  0.0479 -0.2438 -0.1142
14497W        W34777  10.776  17.617   3.820 -0.0177 -0.1131  0.0552
14498W        W34778  14.839   8.543   0.972  0.1510 -0.1953  0.0289
14499W        W34779  10.601   4.744   2.575 -0.0331 -0.0966  0.0172
14500W        W34780  16.131  11.915  14.522 -0.1577 -0.3826 -0.3942
14501W        W34781   9.375   1.776  11.887 -0.1815 -0.2229 -0.1372
14502W        W34782   0.401   2.124  14.993  0.0192  0.2331  0.1782
14503W        W34783   2.110  18.035  12.669 -0.1229 -0.0017 -0.0267
14504W        W34784  11.747  14.877   0.465 -0.0055 -0.1619 -0.2530
14505W        W34785  15.513  16.049   0.693 -0.0532 -0.1672  0.0563
14506W        W34786   1.757  14.903  11.840  0.1083  0.1475  0.0482
14507W        W34787  11.392   9.659   0.716 -0.3572  0.1409  0.1793
14508W        W34788  10.286   8.588   4.582 -0.2704 -0.2696  0.1735
14509W        W34789  14.132  12.461   1.713  0.4533 -0.2028  0.3068
14510W        W34790   6.205   8.167  15.304 -0.1138  0.1282  0.2643
14511W        W34791   4.474  16.774   4.207  0.1785 -0.0341 -0.2993
14512W        W34792  17.752  18.456   0.790 -0.1203  0.1075  0.1593
14513W        W34793   9.539  15.975  14.125  0.2681  0.1632 -0.0991
14514W        W34794  18.298  11.249   2.703 -0.1745  0.0127  0.1800
14515W        W34795  10.488   9.723   1.665 -0.1542 -0.0694 -0.0044
14516W        W34796   8.976   6.931  12.897 -0.1100  0.1751  0.0425
14517W        W34797  15.546   9.707  13.451 -0.0678 -0.1021  0.2942
14518W        W34798  10.467  16.127  12.395 -0.0358 -0.2810  0.0769
14519W        W34799  18.480  17.682   0.914 -0.0881 -0.0798 -0.2131
14520W        W34800  16.496   1.446   0.858 -0.4198 -0.0079  0.1440
14521W        W34801  11.946   0.939   0.590  0.1429 -0.2696  0.1412
14522W        W34802   1.520  13.453   3.592 -0.1570  0.1275  0.1270
14523W        W34803  13.830   4.853   0.113  0.1653  0.2520  0.2906
14524W        W34804  12.505  17.199  14.259  0.2268 -0.1174 -0.0107
14525W        W34805  13.675  16.086   2.731 -0.1226 -0.0127 -0.1271
14526W        W34806   2.835  14.982  13.728  0.0398 -0.2446 -0.0394
14527W        W34807   7.693  13.354   1.842 -0.1764  0.2429 -0.0242
14528W        W34808  10.120   9.022   3.388  0.0201  0.2909  0.0360
14529W        W34809   0.562  14.355  13.506  0.1048 -0.4375 -0.0073
14530W        W34810  11.355   2.860   0.985 -0.1494  0.0477 -0.1526
14531W        W34811   1.383  17.894  13.161 -0.1939  0.3123 -0.0010
14532W        W34812  18.571   8.960  13.887  0.3799  0.1473 -0.0932
14533W        W34813  13.733   0.968  12.534  0.2377  0.0109 -0.1520
14534W        W34814  11.665   7.236   3.650 -0.1979 -0.0056  0.0803
14535W        W34815  10.617   1.795   3.335 -0.1557 -0.1946  0.0182
14536W        W34816   8.697   1.630   0.425 -0.2881  0.1029  0.1719
14537W        W34817  18.660   9.963   2.523 -0.2355  0.1774 -0.0831
14538W        W34818  17.737   9.957  14.117 -0.1148  0.0208 -0.1289
14539W        W34819   3.543   2.808  14.551  0.2057  0.2408 -0.0454
14540W        W34820   3.442   8.945   1.758  0.3635 -0.1874  0.2655
14541W        W34821   7.857   7.401   2.038 -0.2677  0.2153 -0.1269
14542W        W34822   7.795   5.344   2.610  0.1076 -0.0492 -0.0488
14543W        W34823  16.481  17.205   0.293  0.3036  0.1105  0.0545
14544W        W34824   8.944  13.332   4.675 -0.0099 -0.1380 -0.1857
14545W        W34825   7.161   6.141   0.704 -0.2415 -0.0024 -0.0756
14546W        W34826   9.656   9.531   0.534  0.2899 -0.1673  0.0157
14547W        W34827  15.344   8.946  14.489  0.2590 -0.0039  0.2200
14548W        W34828  17.016  16.807   2.418 -0.3694 -0.2619  0.1006
14549W        W34829   3.467   9.210  10.476 -0.3031 -0.2828 -0.0655
14550W        W34830   9.757   4.112  11.481  0.1178  0.0539 -0.0107
14551W        W34831  11.753   8.186   4.277  0.1886 -0.0573 -0.1482
14552W        W34832   0.863  13.400   0.398  0.0211 -0.3493  0.3247
14553W        W34833   5.762  14.924   3.844 -0.0248  0.1661 -0.0797
14554W        W34834   1.954   0.113   2.249 -0.3050  0.1295  0.0079
14555W        W34835   0.355   7.478  14.695 -0.0602 -0.1045 -0.0818
14556W        W34836  12.180   1.009   3.512  0.2539 -0.1043 -0.0865
14557W        W34837   3.413   0.433  14.929 -0.0281 -0.2706  0.1455
14558W        W34838   2.966  15.016  12.739 -0.1520 -0.2108  0.0895
14559W        W34839   7.046   8.611   4.385  0.1005 -0.0091 -0.0801
14560W        W34840  14.276   5.657   4.500  0.1976  0.2019 -0.0290
14561W        W34841  10.642   6.875  12.242  0.0271  0.2902  0.1433
14562W        W34842   5.531   7.804  14.638 -0.2875  0.1057 -0.0245
14563W        W34843   7.867   7.784   3.144 -0.0598  0.1476 -0.1956
14564W        W34844   2.556  11.792   0.110 -0.1089 -0.2975 -0.1650
14565W        W34845   5.184  16.142   0.677  0.1795 -0.1586  0.0680
14566W        W34846  11.432  15.939  13.369  0.2732  0.1330  0.0736
14567W        W34847   9.663  13.933   0.020  0.0007 -0.0478  0.0263
14568W        W34848   4.063  17.933  13.317  0.1809 -0.5190  0.2160
14569W        W34849   6.228  18.702   1.303 -0.0438 -0.3104  0.1159
14570W        W34850   2.852   7.242  12.180  0.3092  0.2122  0.0208
14571W        W34851  13.899  11.466   2.422  0.0334 -0.0036  0.0322
14572W        W34852  13.486  11.039  13.083  0.1839 -0.0753 -0.2255
14573W        W34853   7.278   8.636  13.505  0.2260  0.3209 -0.1852
14574W        W34854   5.571   5.698  14.353 -0.0881  0.0909  0.0447
14575W        W34855   1.431  18.399  13.415  0.2871  0.3793  0.3385
14576W        W34856   9.026   9.420  15.202 -0.2154 -0.1742 -0.0206
14577W        W34857   3.394  15.747   4.144  0.0109  0.1335 -0.1393
14578W        W34858   1.797   2.668  11.630 -0.3056 -0.0917 -0.1745
14579W        W34859   6.043  16.238  13.522  0.0601  0.1055  0.0008
14580W        W34860  12.660   9.893  13.055 -0.1857 -0.0912  0.2653
14581W        W34861   0.298   6.592  13.190  0.4038 -0.1179 -0.0367
14582W        W34862  17.222   6.513   3.408 -0.0838 -0.3130 -0.1452
14583W        W34863   1.513   1.968   2.866 -0.0917  0.0458 -0.1785
14584W        W34864   2.903  16.659   3.228  0.0959  0.0942  0.3178
14585W        W34865   3.892   4.954  11.361  0.1605  0.0474  0.1164
14586W        W34866  16.975   6.352  11.868  0.0957 -0.1706  0.1425
14587W        W34867  14.196   7.014   1.508 -0.0047 -0.1988 -0.1983
14588W        W34868  10.277  16.928  11.866  0.0275 -0.0682 -0.1922
14589W        W34869  11.900  17.179  12.684 -0.0323 -0.0500  0.0038
14590W        W34870  14.957   3.232   1.890 -0.3094 -0.1009 -0.0854
14591W        W34871   6.967   1.987  10.764  0.0960 -0.2990  0.1846
14592W        W34872   0.741  16.901  14.760 -0.1221  0.2613  0.1457
14593W        W34873  17.536  11.924  12.212  0.0994 -0.0103  0.2000
14594W        W34874  14.273   5.599   0.689 -0.1517 -0.2300 -0.1964
14595W        W34875   7.953   4.708  14.063  0.0337  0.0061  0.1128
14596W        W34876   5.997   1.071  15.202  0.1374 -0.2975 -0.1059
14597W        W34877  10.181  12.602  11.758  0.0824  0.0904 -0.0870
14598W        W34878  12.174   0.237  10.811  0.1515 -0.0199 -0.3058
14599W        W34879   5.930  11.883  12.264 -0.0624  0.3920  0.2458
14600W        W34880  11.396   6.353  11.746 -0.2111 -0.0982 -0.0227
14601W        W34881  11.724  15.639   1.511  0.1778  0.1914 -0.1493
14602W        W34882   7.328   1.160  11.402  0.0609  0.1706  0.2879
14603W        W34883   0.447  13.601   0.558 -0.1261  0.0671 -0.0019
14604W        W34884   7.789  12.184   1.075 -0.0892 -0.0432  0.1642
14605W        W34885   3.504   4.135   2.403 -0.5752 -0.1101 -0.1401
14606W        W34886  15.836   8.017   3.948  0.1245 -0.0825  0.0568
14607W        W34887   5.858  10.590  14.594  0.0434  0.0361  0.0940
14608W        W34888   1.886   0.512  11.643  0.1392 -0.2177 -0.3049
14609W        W34889  16.022   8.722   0.624 -0.3781 -0.0180 -0.1227
14610W        W34890  16.307   3.039   0.759 -0.1280 -0.0117  0.2500
14611W        W34891   6.264   1.384   4.095  0.0727  0.0380 -0.1782
14612W        W34892  11.319   8.536   2.562 -0.3011 -0.0488  0.1141
14613W        W34893   4.666   3.167   3.624  0.3161  0.0543  0.0948
14614W        W34894   5.387  13.752  11.152 -0.1605  0.4678 -0.2374
14615W        W34895  14.965  10.924   2.121 -0.1595 -0.0577 -0.0265
14616W        W34896  15.876   8.712   3.472 -0.0833 -0.0561 -0.3765
14617W        W34897   5.792   2.154  12.016 -0.2937 -0.0211  0.1084
14618W        W34898   6.882  13.387   1.803 -0.0731 -0.2718 -0.0256
14619W        W34899   9.486   4.347   1.745 -0.2818 -0.0785  0.0698
14620W        W34900   0.298   5.237   1.637  0.2681  0.0502  0.1732
14621W        W34901  13.292  11.990   1.908 -0.1708  0.1869 -0.0281
14622W        W34902   6.888  11.064  13.455  0.0268  0.0046 -0.0954
14623W        W34903  15.052  11.348  12.875  0.0429  0.0372 -0.4692
14624W        W34904  16.506   2.360   1.978  0.2269  0.0206  0.2029
14625W        W34905  10.125  10.431   4.776 -0.2887 -0.1883 -0.2057
14626W        W34906   4.231   1.579  12.741  0.1127  0.1982  0.2156
14627W        W34907  11.100  12.391   3.173 -0.4784 -0.1510 -0.1026
14628W        W34908   6.350  18.690  10.771 -0.1129  0.0138 -0.0142
14629W        W34909  14.954  17.918   2.724  0.0693  0.1216  0.5080
14630W        W34910   3.773  10.209   1.208  0.1733  0.1096 -0.1726
14631W        W34911   0.059  17.516  14.191 -0.1547 -0.1606 -0.2776
14632W        W34912  11.757  16.262  14.165 -0.3212 -0.3273 -0.0829
14633W        W34913  18.569   1.423   0.013  0.0543  0.0902 -0.1921
14634W        W34914   1.256  16.845  14.891 -0.1694  0.2814 -0.1105
14635W        W34915   5.231  18.054  14.040  0.0311  0.0907  0.0831
14636W        W34916  12.745   8.214  11.593 -0.1109 -0.2995 -0.3925
14637W        W34917  13.290   2.007  15.123 -0.2183 -0.0408  0.1748
14638W        W34918   5.700  18.455   4.286 -0.1940 -0.1915 -0.3342
14639W        W34919   8.359   0.861   0.346  0.1458 -0.1087 -0.1147
14640W        W34920   1.982   1.736   4.261  0.2014  0.0811 -0.0283
14641W        W34921   6.702   9.892   3.163  0.1032 -0.1691 -0.0120
14642W        W34922   7.533   0.706   0.363 -0.1551 -0.0780 -0.2892
14643W        W34923  13.960   0.779  15.190  0.0016 -0.2887  0.0492
14644W        W34924  15.497   8.204   2.310  0.1511  0.0094 -0.0009
14645W        W34925   6.920   5.633  11.961 -0.1472 -0.0520  0.1605
14646W        W34926   2.818  18.232  13.317 -0.1604  0.2177 -0.2517
14647W        W34927   7.419  11.888  11.283 -0.0833 -0.1691 -0.3492
14648W        W34928  17.979  11.870   0.730  0.0167 -0.0947 -0.2938
14649W        W34929  18.346   4.773   3.438 -0.0977 -0.0763 -0.1528
14650W        W34930   3.819   0.393  11.150 -0.2871 -0.1938  0.2537
14651W        W34931   7.485  14.018   1.080 -0.1085 -0.0308 -0.2143
14652W        W34932   9.238   3.048  11.967 -0.1293  0.3450 -0.0419
14653W        W34933   5.962  15.851  11.664  0.0384  0.3443 -0.2980
14654W        W34934  16.241  15.452   1.180 -0.0774 -0.1501 -0.1271
14655W        W34935  13.103  15.013   3.367 -0.5075 -0.2081 -0.1179
14656W        W34936   3.674   9.098  14.730 -0.0952  0.0258 -0.3757
14657W        W34937   4.391  12.582  14.392  0.0407  0.0815  0.2997
14658W        W34938   9.528  11.562   1.175 -0.0118  0.0204 -0.0509
14659W        W34939   5.405  10.274  12.442  0.2299 -0.2139  0.3336
14660W        W34940   0.883   1.654   1.688  0.1568  0.3469 -0.0107
14661W        W34941  13.527  14.879  11.935  0.1354  0.2973 -0.1876
14662W        W34942  13.945   3.063   2.441  0.1457 -0.0565 -0.0061
14663W        W34943  14.980  18.334   0.080 -0.0940 -0.1255  0.2008
14664W        W34944  18.584   6.869  13.712 -0.3022  0.1666 -0.2887
14665W        W34945   1.019  13.303  11.701  0.0083 -0.0359  0.1741
14666W        W34946   7.748   2.555  11.158 -0.1651  0.1051  0.0540
14667W        W34947  15.945  12.212   3.473 -0.1735 -0.0511  0.3093
14668W        W34948   5.741  13.255   1.120 -0.1246  0.1591  0.1914
14669W        W34949   2.881  16.032   1.852  0.0117  0.0590 -0.0012
14670W        W34950   4.577  16.861  14.638 -0.1011 -0.2882 -0.0529
14671W        W34951   2.649   3.589  14.640 -0.3457 -0.1124  0.0924
14672W        W34952   5.850   5.611  14.783  0.0082 -0.0592  0.1633
14673W        W34953   7.837   0.518  12.253 -0.1634  0.1320  0.0848
14674W        W34954   1.043   0.558  14.388  0.1113 -0.0442  0.2786
14675W        W34955   9.404   6.377  13.041  0.3368 -0.2556  0.0517
14676W        W34956   5.330   8.678   2.540 -0.0852  0.0796 -0.0497
14677W        W34957  14.574   6.821   1.197  0.0838  0.3292  0.0558
14678W        W34958   4.433  15.932  12.221  0.2786 -0.1790 -0.0724
14679W        W34959  16.761   7.497   4.355  0.0298 -0.0691 -0.1924
14680W        W34960   7.880   3.258  11.616  0.1456 -0.0300  0.1616
14681W        W34961   5.563   9.328  15.074 -0.2605  0.2185 -0.3191
14682W        W34962   8.929  14.276  11.370 -0.2224 -0.1386  0.1003
14683W        W34963   8.387  18.131  11.388  0.0577 -0.5246 -0.4081
14684W        W34964  10.221   8.495  14.037 -0.0451  0.0188  0.2606
14685W        W34965  11.443   4.458   3.077 -0.0436  0.1964 -0.0783
14686W        W34966  11.287   1.207   0.912 -0.3291 -0.2427 -0.1860
14687W        W34967  15.087   6.486   3.143  0.3758 -0.1028  0.1134
14688W        W34968  14.264  11.790   2.981  0.0326  0.0107 -0.0536
14689W        W34969  18.570   6.720   2.493  0.1973  0.1897 -0.0058
14690W        W34970  16.823   7.595  12.233 -0.3904  0.1195  0.0314
14691W        W34971   6.462   8.621   1.884 -0.3833 -0.2127  0.1649
14692W        W34972  16.435   6.493   2.966 -0.2429 -0.2153 -0.2589
14693W        W34973   0.425  11.618   5.289 -0.1310  0.3326 -0.0521
14694W        W34974   0.848   1.201   4.068  0.0185 -0.0164 -0.1705
14695W        W34975   8.024  18.056  10.943  0.0939  0.1697  0.1404
14696W        W34976  15.873  12.147   1.988  0.1637 -0.0718  0.0871
14697W        W34977   2.920  17.710  14.577  0.0856  0.0989 -0.1693
14698W        W34978   2.878   8.314  12.993 -0.1231 -0.0823  0.0298
14699W        W34979  12.737   9.753   0.548 -0.3136  0.1504 -0.1059
14700W        W34980   6.097  16.315   9.740 -0.0913  0.1086  0.1855
14701W        W34981  14.723  10.331  12.888  0.0723  0.1111 -0.0382
14702W        W34982   9.227  13.193   0.373  0.0747  0.0252  0.1528
14703W        W34983   9.619  13.249  11.137  0.0889  0.1101 -0.0094
14704W        W34984   1.478  11.823  15.120  0.0677 -0.1694  0.2319
14705W        W34985   8.034  12.980   0.131  0.2691  0.0099 -0.0935
14706W        W34986  11.600  15.836  13.860 -0.0869  0.2873 -0.0498
14707W        W34987  18.412  18.717  13.896 -0.1621 -0.0209 -0.0636
14708W        W34988   2.487   2.247   1.734 -0.3181  0.4071  0.0500
14709W        W34989   3.364  13.444   3.022  0.1049  0.2361  0.1552
14710W        W34990   2.399  18.078   2.479  0.2247 -0.0191 -0.0086
14711W        W34991  15.267  11.370  13.784 -0.3578 -0.0828  0.0380
14712W        W34992   8.876  12.807   1.614 -0.0892  0.1062  0.0550
14713W        W34993  18.201   5.970  14.569  0.0538 -0.1752 -0.0355
14714W        W34994   3.386   7.554   3.982  0.0990  0.3191  0.0823
14715W        W34995  13.857   4.426  11.651  0.1133  0.2077 -0.0627
14716W        W34996   6.918  11.590  13.611 -0.4716 -0.2154  0.0308
14717W        W34997   8.425  10.293  11.791  0.0394 -0.3168 -0.4316
14718W        W34998   6.433  10.034  11.543 -0.1823 -0.1978 -0.3832
14719W        W34999   9.139   2.733   0.859  0.0112  0.1808 -0.1392
14720W        W35000   4.602  14.420  12.218  0.1862  0.1012  0.0232
14721W        W35001   0.697   7.880  12.513 -0.0523 -0.2233  0.2577
14722W        W35002  18.336   5.974  11.784  0.1895  0.0516  0.2390
14723W        W35003  18.261   4.937   0.103  0.3853  0.1339 -0.1072
14724W        W35004   1.577  17.660  14.608  0.0092  0.2281  0.3335
14725W        W35005   3.423   8.625  12.183 -0.0228  0.3270  0.1564
14726W        W35006  14.025   2.234  14.328 -0.0160  0.0978  0.0618
14727W        W35007  10.377  15.887   1.112  0.0399 -0.0169 -0.0457
14728W        W35008  14.119   1.994  15.321  0.0581  0.2012  0.0704
14729W        W35009  12.149   9.408  13.870 -0.2048 -0.0174  0.1795
14730W        W35010   6.347  16.802   1.125 -0.0659  0.2044  0.1389
14731W        W35011  14.434   3.236   3.522  0.1445 -0.0647  0.0593
14732W        W35012   0.863  13.416  14.518 -0.0175  0.1485 -0.0292
14733W        W35013  10.675   7.670  14.912 -0.1081  0.5988 -0.0255
14734W        W35014  10.028  13.302   0.660 -0.1727  0.0858  0.1710
14735W        W35015   2.981   3.091  14.707 -0.3716 -0.0184  0.2216
14736W        W35016   1.931  16.615   3.382 -0.0382 -0.0600 -0.1172
14737W        W35017   6.082   6.594  11.719 -0.0043 -0.0275  0.0928
14738W        W35018   1.243   9.646  11.752 -0.3484  0.0817  0.0039
14739W        W35019   7.817   9.903  15.254  0.1424 -0.2125  0.4644
14740W        W35020   6.658   2.015   1.158 -0.1668  0.1064  0.3317
14741W        W35021   5.342  16.522   2.382  0.1280 -0.0467  0.0333
14742W        W35022   0.849  12.310  15.007 -0.1036 -0.2777  0.1620
14743W        W35023  14.872  16.705  14.378  0.0747  0.0395 -0.1133
14744W        W35024   7.907  10.425  12.502  0.1789  0.2178 -0.0186
14745W        W35025   4.702   2.739  12.260 -0.2012 -0.1385 -0.0600
14746W        W35026   3.501  14.479  11.527  0.2277  0.2802 -0.1838
14747W        W35027  18.699  17.764   2.740  0.0874  0.1305 -0.3996
14748W        W35028   4.035   3.269   2.279  0.0357  0.3789  0.0823
14749W        W35029  13.130  16.852   4.840 -0.0880  0.3068 -0.0812
14750W        W35030   3.082   2.750  12.495  0.2109  0.1820  0.2356
14751W        W35031  14.752   1.283  13.800  0.2097  0.3302  0.0896
14752W        W35032  15.440  16.964  11.389 -0.0550  0.0023 -0.1447
14753W        W35033   7.742  16.777   2.084 -0.0077  0.1579 -0.0899
14754W        W35034  14.797   5.971   4.496 -0.0020  0.1762 -0.1418
14755W        W35035  15.734   7.745   5.914  0.1387 -0.0940 -0.5327
14756W        W35036  15.297  17.738   1.193  0.2640  0.3844 -0.2367
14757W        W35037  18.249   7.809   0.898 -0.0623  0.2587  0.4410
14758W        W35038   5.555   9.541  14.555  0.1158  0.3258 -0.3819
14759W        W35039   2.229   7.522  12.835  0.0508  0.0470 -0.1927
14760W        W35040  18.137   7.351   3.107 -0.1145  0.0457 -0.3863
14761W        W35041  14.978   1.602   1.728 -0.0642 -0.1701 -0.2584
14762W        W35042  12.032   8.674   0.011 -0.1396 -0.0990  0.1721
14763W        W35043  13.306  17.863   4.479  0.3328  0.0188 -0.1498
14764W        W35044   2.373  16.741   3.203 -0.1253  0.0440  0.0145
14765W        W35045  17.178  18.692  11.238 -0.1869  0.0834 -0.1566
14766W        W35046  15.178  18.635  13.202 -0.0584  0.0167 -0.2406
14767W        W35047   4.412   9.155  11.353  0.0721 -0.2328  0.1939
14768W        W35048  11.093   7.559   0.295 -0.1328  0.0236 -0.2572
14769W        W35049   4.017   1.314  15.389 -0.1625 -0.1086 -0.1033
14770W        W35050  10.615   3.716  13.865  0.3125  0.0420 -0.0057
14771W        W35051  10.775   8.923  15.021 -0.1255  0.0219 -0.3986
14772W        W35052   9.852  13.768  13.238  0.4427  0.0918  0.2975
14773W        W35053   5.495  18.112  11.055  0.0113  0.1394 -0.2734
14774W        W35054  18.211   8.348   3.841  0.0489 -0.1127 -0.1689
14775W        W35055  17.131  16.316   4.869  0.0959 -0.1929 -0.0468
14776W        W35056  17.592   3.009   3.446 -0.2068  0.2066  0.0798
14777W        W35057   4.293   9.004   2.552 -0.1694 -0.0393  0.1392
14778W        W35058   7.035  10.629   2.657  0.1180 -0.2958  0.1627
14779W        W35059  17.572   4.610   3.111  0.1769  0.1800 -0.1313
14780W        W35060   6.385  13.589   0.463 -0.1412 -0.0536 -0.0468
14781W        W35061  13.552   0.857   1.251  0.1270 -0.3843  0.1925
14782W        W35062   0.408   2.743  11.742  0.2824  0.1067  0.1026
14783W        W35063   5.825   5.230  13.500 -0.1084 -0.3998  0.1008
14784W        W35064   8.216  14.982  14.232  0.0214  0.2094 -0.0348
14785W        W35065   4.782   8.730   0.252  0.1978  0.1763  0.0115
14786W        W35066   8.038   7.383   3.977  0.1922  0.1143  0.0000
14787W        W35067  11.300  12.246   4.072 -0.1297 -0.0944 -0.0295
14788W        W35068  13.364   0.730  15.294 -0.0128  0.1494 -0.0836
14789W        W35069  10.339  16.067   3.978 -0.3428  0.1385 -0.1285
14790W        W35070   5.847  15.457   1.678 -0.0382  0.1391 -0.0952
14791W        W35071  10.673   1.718  11.848  0.0740  0.1106 -0.1351
14792W        W35072  15.390   6.432   1.520 -0.1985  0.1088  0.3443
14793W        W35073  18.218   5.718   1.743 -0.0232  0.3929 -0.0343
14794W        W35074  12.676   9.639  13.846 -0.1715 -0.1530  0.2912
14795W        W35075   1.686  18.262  12.993  0.0284 -0.1160 -0.0899
14796W        W35076   7.865  13.113  15.081 -0.1608 -0.0537 -0.2358
14797W        W35077  10.531  15.918  14.995  0.2064 -0.2376 -0.1349
14798W        W35078  16.623  16.665   4.248 -0.2662  0.4000  0.4929
14799W        W35079  12.603  13.000   4.036 -0.2866 -0.0857 -0.1511
14800W        W35080   4.925  10.623   1.610 -0.0917  0.3966 -0.0028
14801W        W35081  12.616   6.334  11.639 -0.1032  0.0096 -0.3536
14802W        W35082   2.268  11.356   3.342  0.1726 -0.0418 -0.0158
14803W        W35083   6.531  17.394   1.958 -0.2208  0.0750 -0.2482
14804W        W35084  11.671   0.921  12.503 -0.4515 -0.2635 -0.2936
14805W        W35085  13.685  17.333   2.248 -0.3281 -0.0233  0.2423
14806W        W35086   0.333   1.979   1.030 -0.1771  0.1369  0.0137
14807W        W35087  16.499   1.626  10.831 -0.1165  0.0652 -0.0747
14808W        W35088  15.412  15.177  11.447 -0.0591  0.0726  0.0846
14809W        W35089   9.176   9.317  13.487 -0.1387  0.1479  0.2264
14810W        W35090  16.426   2.562  10.218  0.1719  0.1245 -0.0876
14811W        W35091  18.496  10.359   2.767  0.0434  0.1426  0.1733
14812W        W35092  10.529  12.473   2.281 -0.2250 -0.3421 -0.3655
14813W        W35093   3.130  15.075   2.613 -0.1410 -0.0643  0.2348
14814W        W35094  10.207  18.280   0.557 -0.1644  0.2609 -0.0144
14815W        W35095   7.750  16.287   2.574  0.1190 -0.0610  0.4310
14816W        W35096  16.261  14.375   4.024 -0.1516  0.0811  0.0229
14817W        W35097  17.454  11.776  14.689  0.0638 -0.0803 -0.0328
14818W        W35098   5.329   8.619   3.513  0.0903 -0.1959 -0.0413
14819W        W35099   6.900  12.142   0.379 -0.1339 -0.2311  0.4732
14820W        W35100  16.080   9.783   4.055  0.0741  0.0250 -0.1807
14821W        W35101  16.229   4.630  11.764  0.1097  0.0751 -0.1693
14822W        W35102  18.084   3.521   1.323  0.0904  0.2357  0.1543
14823W        W35103  15.490  17.531  13.835 -0.3638 -0.0384  0.0835
14824W        W35104  16.909  15.754  15.389  0.3156  0.1976 -0.3704
14825W        W35105  17.036   3.443   2.798 -0.0738 -0.0820 -0.2592
14826W        W35106  17.911   4.259  13.379 -0.2164 -0.2885  0.2224
14827W        W35107   4.157   8.282  11.437 -0.0356  0.0657  0.3504
14828W        W35108   9.088  18.223   1.490  0.2137  0.0997  0.1489
14829W        W35109  10.075  17.381   0.692 -0.1284 -0.0755  0.0860
14830W        W35110  10.099  17.886  11.982  0.0803 -0.2245 -0.0121
14831W        W35111   1.338   1.391   2.897 -0.1825 -0.0696 -0.0350
14832W        W35112   8.809  16.925  12.404 -0.2587  0.1332  0.1031
14833W        W35113  13.934   0.111   2.565 -0.1658 -0.1504  0.2709
14834W        W35114   9.353   7.980   3.246  0.0330  0.0283  0.1780
14835W        W35115   5.630   9.290   1.140  0.0709 -0.2913 -0.2151
14836W        W35116  15.348  10.654   1.225  0.0141  0.1217  0.3103
14837W        W35117   0.950   2.820   0.760  0.1961 -0.2178 -0.1803
14838W        W35118   7.329  14.168   2.984  0.0485 -0.0730  0.1427
14839W        W35119  18.505   3.230  15.016 -0.1778 -0.0144 -0.0138
14840W        W35120  18.691  13.560   0.699 -0.0533 -0.2416 -0.1836
14841W        W35121  12.409  10.610  14.586 -0.3157 -0.0121 -0.3741
14842W        W35122   8.629  14.961   0.966 -0.2978  0.1090 -0.0066
14843W        W35123   3.715  11.525  14.867  0.1179 -0.0280 -0.0898
14844W        W35124  13.809  15.340  14.386  0.0857  0.0150 -0.1040
14845W        W35125  11.870  15.072   3.230 -0.0407  0.0918  0.0189
14846W        W35126   3.877  11.518   3.813  0.2331  0.0359  0.1096
14847W        W35127   0.684  14.749  11.277  0.0849 -0.2485 -0.3629
14848W        W35128  11.340  11.247  11.816  0.2457  0.0775  0.1818
14849W        W35129  18.601   4.450  13.983 -0.0734 -0.0561 -0.1618
14850W        W35130   8.831  16.925   2.196  0.1488 -0.0096  0.2181
14851W        W35131  17.783   5.041   0.186  0.0287  0.3092  0.1183
14852W        W35132   1.784  11.637   0.092  0.2381 -0.3342  0.1458
14853W        W35133   9.573   7.899   4.585  0.0434  0.0371  0.0107
14854W        W35134  15.733  10.038  13.868 -0.0336  0.1848 -0.0401
14855W        W35135  14.878   2.592   0.671  0.0306  0.0079 -0.0151
14856W        W35136   0.919  16.882   1.295 -0.3337 -0.2033 -0.1616
14857W        W35137   4.026  14.627  14.312  0.0179  0.2871 -0.0020
14858W        W35138   7.560   9.891   2.211 -0.0404 -0.1647 -0.1627
14859W        W35139   1.054   6.703  14.983 -0.2060 -0.0471 -0.2812
14860W        W35140   5.561  15.421   0.885 -0.1263  0.2464 -0.2906
14861W        W35141  14.535   7.739   3.759 -0.0112  0.2269  0.0870
14862W        W35142  18.203  18.717   3.822  0.0982 -0.0557  0.3409
14863W        W35143  14.321   3.949   0.099  0.2079  0.1312  0.2821
14864W        W35144   8.834   9.733  13.367 -0.2211  0.2598 -0.1408
14865W        W35145  15.781  11.434  15.086  0.0732  0.1275  0.1110
14866W        W35146   4.465   4.850   2.947  0.1938 -0.0641 -0.4147
14867W        W35147  14.476   7.876  13.451  0.0712 -0.0541 -0.1908
14868W        W35148  18.217  15.049   3.707 -0.1111 -0.3028 -0.0300
14869W        W35149  11.949   9.788  14.232  0.3312  0.0686 -0.0480
14870W        W35150  17.263   6.313  14.584 -0.2062  0.2045 -0.0771
14871W        W35151   7.270  10.241  13.558 -0.2286 -0.1539 -0.1666
14872W        W35152  12.738   7.466  12.778  0.2598  0.0820 -0.2777
14873W        W35153   3.339   7.058   0.214 -0.0694  0.1978  0.2359
14874W        W35154   0.843   1.525   3.496  0.1313  0.0206  0.0854
14875W        W35155  15.176  17.528  11.222  0.0888  0.1013 -0.0127
14876W        W35156  16.345   8.080  13.378  0.1392 -0.1654 -0.2547
14877W        W35157   2.094   4.814   2.863  0.1814 -0.3062 -0.1544
14878W        W35158   6.208   1.853   3.942 -0.0965 -0.0640 -0.3504
14879W        W35159   0.900  11.387  13.275  0.1132 -0.2887  0.2180
14880W        W35160   6.547   2.186   5.152  0.2778 -0.0908  0.1412
14881W        W35161   7.667  17.145   0.926  0.0910  0.0126  0.2148
14882W        W35162   6.361  17.420   3.676 -0.2608  0.2798  0.2893
14883W        W35163   8.621   4.441  12.011  0.0115  0.0425  0.0412
14884W        W35164   6.723   7.885  11.097 -0.0358  0.0328  0.0012
14885W        W35165  18.071   0.036  13.585 -0.1367 -0.0272 -0.1245
14886W        W35166   1.530  14.555  11.619  0.0426 -0.1565 -0.1241
14887W        W35167   4.351   9.558   3.309 -0.1739  0.0974 -0.0047
14888W        W35168  10.295   0.042   0.507  0.0310 -0.0310  0.1699
14889W        W35169   5.331  16.548  10.569 -0.0350  0.4422 -0.0200
14890W        W35170   7.226  14.178   0.204  0.2493  0.0315 -0.0608
14891W        W35171  15.441   5.496  14.136 -0.0891 -0.0068 -0.1002
14892W        W35172  18.520  17.027  14.845  0.0808  0.1152 -0.2182
14893W        W35173   2.770   9.814   3.482  0.0760  0.0392  0.1233
14894W        W35174  10.250  11.398   1.921 -0.1143  0.2329 -0.0696
14895W        W35175  18.223   5.388  15.249 -0.2408 -0.0988 -0.1345
14896W        W35176   2.964   2.580  11.520  0.0193 -0.2124  0.2619
14897W        W35177  14.150   3.033  12.829 -0.0023 -0.0118 -0.0250
14898W        W35178   8.575   0.835  14.930 -0.0117 -0.1552  0.1087
14899W        W35179  16.433  18.280  11.434  0.1210 -0.1164 -0.0544
14900W        W35180   9.496   1.406   9.509 -0.0473 -0.1748  0.0784
14901W        W35181   1.833  11.567  11.676  0.0750  0.0007  0.1466
14902W        W35182   9.155  18.158  13.466 -0.1893 -0.0623 -0.3802
14903W        W35183   4.225  11.575   2.187  0.0036 -0.2874 -0.1548
14904W        W35184  15.235   6.791  15.005 -0.0931  0.0823  0.0927
14905W        W35185   2.182   8.581  14.700 -0.2380 -0.2329  0.2829
14906W        W35186  15.295  10.938   1.767  0.0031 -0.1616  0.3893
14907W        W35187   0.958   5.090  14.342 -0.1582 -0.2860 -0.1713
14908W        W35188   1.064   7.962   1.962  0.0724 -0.0082  0.1944
14909W        W35189  12.102   7.288   0.061  0.0503 -0.1026  0.3886
14910W        W35190   5.656  10.116   2.796  0.0921 -0.3705 -0.0180
14911W        W35191  16.757   2.299  15.230 -0.0817 -0.2914  0.1043
14912W        W35192  18.633  15.388  11.227 -0.1398  0.3619 -0.0117
14913W        W35193   1.994   6.009   2.865 -0.0010 -0.1111 -0.3024
14914W        W35194  14.656   0.868  14.094  0.1778  0.0054 -0.1601
14915W        W35195   0.174   6.070   0.836  0.2698 -0.0265 -0.2095
14916W        W35196   5.674   3.113  13.571  0.1131  0.3015  0.1815
14917W        W35197  16.049   7.065   4.016  0.1592  0.0262  0.2577
14918W        W35198  10.584  11.621   2.245 -0.1800 -0.0373  0.0939
14919W        W35199   4.505   6.102  14.039  0.0473 -0.1909  0.0121
14920W        W35200   2.532   8.969   0.512  0.0071 -0.1156 -0.1422
14921W        W35201  12.790   9.378   0.926  0.0151  0.0436 -0.2512
14922W        W35202  12.075   4.572   1.177  0.4351 -0.2299 -0.1990
14923W        W35203   9.364   2.784   2.547  0.2526  0.0388 -0.1266
14924W        W35204  13.236   8.716  13.498  0.0013 -0.0928  0.0596
14925W        W35205  13.637   7.353  11.512  0.3992  0.0170 -0.1029
14926W        W35206  18.462   4.014   4.730 -0.1536 -0.0690 -0.0618
14927W        W35207   2.476   4.708  13.658  0.0587  0.2144 -0.0857
14928W        W35208  16.267  16.251  12.527  0.1410 -0.0115  0.3274
14929W        W35209  11.433  11.598   2.424 -0.0284 -0.0155  0.1282
14930W        W35210  18.452  11.927  11.844 -0.0387 -0.0405 -0.1400
14931W        W35211   8.605   7.333   3.587  0.0909  0.1996  0.0127
14932W        W35212  11.018  16.922  14.091 -0.2732 -0.4872  0.0018
14933W        W35213  12.170  18.232   3.892 -0.1008  0.2137  0.1589
14934W        W35214  15.846   6.441   0.921 -0.1004  0.1117  0.1597
14935W        W35215   4.386   3.270  14.575 -0.3347 -0.0604  0.0023
14936W        W35216   7.095   9.311   4.072 -0.0076 -0.0391  0.1439
14937W        W35217   1.164  10.585  12.607  0.1215 -0.0431  0.0959
14938W        W35218   8.456   6.392   4.137  0.1832  0.1568 -0.3035
14939W        W35219   8.224  14.343   3.871 -0.1908  0.2203 -0.0629
14940W        W35220   2.914  11.299  14.582  0.1005 -0.3891  0.0209
14941W        W35221   3.255   2.788  15.019 -0.0904  0.2844 -0.2069
14942W        W35222  15.729   9.643   3.219  0.1296  0.0937  0.1256
14943W        W35223  18.406   1.877   0.223 -0.0692  0.1162  0.1196
14944W        W35224  18.616  17.453   3.196 -0.0586  0.0253 -0.0132
14945W        W35225  16.048   9.296   4.193 -0.2704 -0.0846  0.0957
14946W        W35226   5.411   7.558  11.989  0.0728  0.1834  0.0309
14947W        W35227   9.209   1.354  11.494  0.0331 -0.1188  0.0126
14948W        W35228   2.068   3.354  13.997 -0.0820  0.0609 -0.3539
14949W        W35229  12.338   9.721   1.900 -0.0151  0.1323  0.1082
14950W        W35230  17.203   8.638  14.664 -0.0910  0.0278 -0.0469
14951W        W35231   7.928   1.929   3.895 -0.3690 -0.0763  0.0464
14952W        W35232   6.764  18.519   2.653 -0.0349  0.1950  0.1372
14953W        W35233   9.534   2.753  11.203  0.2382 -0.4055 -0.0345
14954W        W35234   0.901  18.178  15.063 -0.1073 -0.0806  0.0106
14955W        W35235  18.701  18.414  12.729 -0.0335 -0.0277  0.0938
14956W        W35236   9.168   1.689  10.314  0.3036  0.3442 -0.1282
14957W        W35237   0.519   6.431   0.753 -0.0672  0.1347  0.1486
14958W        W35238   2.246   3.404   3.749  0.0132  0.0614  0.2781
14959W        W35239   0.088   2.259   0.178 -0.1354 -0.1296 -0.2332
14960W        W35240  17.612  13.720  12.677  0.1925 -0.0485  0.1393
14961W        W35241  13.303   3.742   4.130 -0.1872  0.1790  0.0560
14962W        W35242   0.993  13.308   3.928 -0.1293  0.2377  0.1052
14963W        W35243   7.262  10.377  13.003 -0.1624 -0.1260  0.0924
14964W        W35244   1.179  18.233  14.388  0.3412  0.1871 -0.1750
14965W        W35245   5.039  12.901   1.674  0.1948  0.0789 -0.2103
14966W        W35246   4.743   5.722  13.860  0.0540 -0.1006 -0.0330
14967W        W35247  13.238   7.108  12.567  0.0562 -0.2279  0.1536
14968W        W35248   5.433  15.485  14.952 -0.3773 -0.2025 -0.0548
14969W        W35249  17.440  11.351   0.020  0.2068  0.0056  0.1369
14970W        W35250  10.241   9.856  12.343 -0.0070  0.1565  0.2767
14971W        W35251  12.284   9.620  15.258  0.3287 -0.0410  0.0044
14972W        W35252  12.600   9.146  13.796 -0.0190 -0.0222 -0.1469
14973W        W35253  14.520   9.493  13.269 -0.0164  0.0778  0.4360
14974W        W35254   7.430   6.254  13.269 -0.2170  0.0948 -0.1537
14975W        W35255   6.452   1.210  13.579 -0.0867 -0.0532 -0.0541
14976W        W35256  12.020   4.700   2.898  0.2029  0.1963 -0.2396
14977W        W35257  15.779   2.038   0.691  0.3702 -0.3319 -0.0475
14978W        W35258   7.532  15.848  11.616  0.2164 -0.0198 -0.3070
14979W        W35259   4.539  16.592  10.900  0.1247 -0.0991 -0.1599
14980W        W35260  18.450  12.826   5.441 -0.1553 -0.0971 -0.1856
14981W        W35261  18.323   8.763  15.288 -0.0134 -0.0027  0.1237
14982W        W35262   5.737  11.427   4.143 -0.1589 -0.0886 -0.1641
14983W        W35263  12.502  12.551   4.277  0.2120 -0.1855  0.2469
14984W        W35264   7.212  12.877  12.258  0.0878  0.1473  0.1530
14985W        W35265  12.369   4.540  12.941  0.2385  0.1261 -0.0411
14986W        W35266   7.012  16.192  10.546 -0.0672  0.0085  0.1495
14987W        W35267   8.642  12.028  13.053 -0.0731  0.1055  0.1521
14988W        W35268  16.360   9.737   2.464  0.0159  0.4447  0.2968
14989W        W35269   1.721   4.217   0.877  0.0618 -0.1076  0.0794
14990W        W35270  14.094   4.795   4.436 -0.2741 -0.2613 -0.1774
14991W        W35271  11.953  16.385   1.936 -0.0136 -0.0519 -0.3250
14992W        W35272   1.012   3.135   3.955 -0.1395 -0.0940 -0.1270
14993W        W35273   0.160  16.539  12.305 -0.0932 -0.0195 -0.0409
14994W        W35274   5.074   9.501   3.816 -0.0470 -0.0239 -0.0767
14995W        W35275   8.078   2.032   2.491  0.0357 -0.0449  0.1315
14996W        W35276  14.398  18.627  15.137  0.0734  0.1347 -0.0776
14997W        W35277   4.910   3.592   3.874  0.1183  0.2773  0.0126
14998W        W35278  15.060  14.421   1.853 -0.0999 -0.1013  0.0986
14999W        W35279   4.920  14.093  11.423  0.0290 -0.1493 -0.0886
15000W        W35280   7.188   9.205   1.174 -0.1785  0.1106 -0.0439
15001W        W35281  12.011   6.834  13.210  0.1521  0.0631  0.1692
15002W        W35282   1.761   3.220  13.545 -0.3975 -0.0502 -0.0578
15003W        W35283   7.249  13.058  14.308 -0.1871 -0.0090  0.2501
15004W        W35284   9.105   5.257  14.158 -0.1245  0.4101 -0.1793
15005W        W35285   8.499  11.359   0.097 -0.3944  0.1803 -0.1283
15006W        W35286   2.757   1.525   4.297  0.1487 -0.0136  0.2208
15007W        W35287  13.629  18.059  11.591 -0.1964 -0.0360 -0.2143
15008W        W35288   5.041   5.708  13.503  0.0528 -0.1250  0.3695
15009W        W35289   5.342  10.871  11.080  0.1642 -0.1549  0.3622
15010W        W35290   1.104  12.507  13.274 -0.2007 -0.0967  0.2452
15011W        W35291  16.000   1.666   0.997 -0.0517 -0.1363  0.0002
15012W        W35292   6.137   1.496  13.157 -0.0881  0.1067  0.2315
15013W        W35293   2.575  10.048  11.825 -0.3647 -0.0239  0.0663
15014W        W35294  10.883  17.227   2.959  0.3598 -0.1850 -0.1383
15015W        W35295  11.070  10.839  14.461  0.1198 -0.0203  0.3068
15016W        W35296   6.429   6.550   1.845 -0.3856 -0.3743 -0.0363
15017W        W35297  17.212  16.652   0.201  0.0268  0.0799 -0.3337
15018W        W35298  13.155   0.864  14.801 -0.1132 -0.0429 -0.0020
15019W        W35299  17.165   2.939   4.289 -0.1226  0.1068 -0.1811
15020W        W35300  13.792   5.493   4.344  0.0654  0.0734  0.1052
15021W        W35301  16.560  17.252   0.855  0.1962  0.2745  0.1684
15022W        W35302  10.436   5.656  12.662 -0.1145 -0.1061 -0.2539
15023W        W35303  10.258   1.080   9.975  0.0442 -0.2091 -0.2741
15024W        W35304   8.267   9.980   4.155  0.0281 -0.0894 -0.1231
15025W        W35305   9.393  14.586  11.557  0.0172 -0.2010  0.1151
15026W        W35306  11.164  17.602   2.148  0.0559  0.0166  0.1337
15027W        W35307   2.269   1.254   2.703 -0.1873  0.3911 -0.1208
15028W        W35308   8.745   3.783   1.093 -0.1217 -0.2713  0.0709
15029W        W35309   6.051  13.259   0.101  0.1044  0.2624 -0.1561
15030W        W35310  14.269  17.201  13.582  0.2092  0.0516  0.1818
15031W        W35311  11.045   6.929  14.530 -0.0833  0.0798  0.4333
15032W        W35312  13.736   8.005  14.799 -0.0343 -0.3088 -0.0696
15033W        W35313   5.149  18.218   3.318 -0.0331 -0.1504 -0.2305
15034W        W35314  11.445   9.379   3.732 -0.1937  0.1726 -0.0894
15035W        W35315   9.255  18.487   4.056 -0.1598 -0.0878  0.0201
15036W        W35316   5.239   7.089  14.565 -0.0688 -0.1586 -0.0121
15037W        W35317  18.247  18.425  13.132  0.0656 -0.2792 -0.0534
15038W        W35318   7.366   4.293   3.258 -0.2487  0.2928 -0.2868
15039W        W35319   8.636   2.736   4.377  0.0333  0.0600 -0.0692
15040W        W35320  18.605   5.793   4.382 -0.0769  0.2966  0.1056
15041W        W35321   7.140  11.994   2.237  0.4167  0.3349 -0.3292
15042W        W35322  12.369  15.616  11.730  0.0400  0.1457 -0.1145
15043W        W35323   3.090  17.215  13.170  0.0664 -0.0326 -0.0350
15044W        W35324   8.843   4.049   4.265  0.0960  0.1667 -0.2805
15045W        W35325  14.082   3.060  15.317  0.1739  0.1146 -0.1799
15046W        W35326   8.819  11.801   1.748 -0.0653  0.2361 -0.2449
15047W        W35327  17.063  11.006  15.361 -0.0827 -0.0799  0.1561
15048W        W35328  12.163  14.932   2.861  0.0752 -0.0952 -0.1178
15049W        W35329   0.354   2.826  14.488  0.0417 -0.1289 -0.1153
15050W        W35330   2.108  14.409   3.155  0.0323  0.0019 -0.1774
15051W        W35331   1.079  14.389  11.305 -0.2256 -0.2671 -0.1444
15052W        W35332   9.884   1.553  13.310  0.2088  0.1416 -0.0158
15053W        W35333   5.155  13.501  12.168 -0.0559 -0.2442  0.0892
15054W        W35334  17.998   2.465   5.555  0.0480  0.1959  0.0877
15055W        W35335  12.746   4.439   3.849  0.2230  0.1523  0.1883
15056W        W35336  14.990   4.747   4.169 -0.0197  0.1465  0.2155
15057W        W35337  13.305  17.602   9.925  0.0578 -0.0286 -0.0858
15058W        W35338   6.958  12.393  13.161  0.0985 -0.0063 -0.0583
15059W        W35339   3.757   4.995   1.891  0.2844 -0.0260 -0.2440
15060W        W35340  18.470   6.904  12.368 -0.2536  0.0375 -0.0979
15061W        W35341  16.002   7.448  14.993  0.3382  0.0937 -0.1400
15062W        W35342   4.732  13.685   0.047  0.2980 -0.1100  0.2766
15063W        W35343  14.122  10.102   0.999  0.0903  0.0121 -0.2094
15064W        W35344   0.744  11.477  11.876  0.1526  0.1797 -0.2157
15065W        W35345  16.876   3.612   4.215 -0.0982  0.2513 -0.0715
15066W        W35346  14.930   0.732   3.947  0.0530 -0.2360 -0.0129
15067W        W35347   5.402   8.040   1.388  0.1529  0.3214  0.1598
15068W        W35348  13.602  16.622  14.760 -0.0696  0.3386  0.1936
15069W        W35349  15.089  13.729   3.994  0.0520 -0.2151  0.3038
15070W        W35350   0.236   3.580   2.423 -0.1687 -0.0837 -0.1570
15071W        W35351   1.164   9.050   2.213  0.1499 -0.0575 -0.1368
15072W        W35352   6.445  10.551  10.382  0.0756 -0.1277 -0.0267
15073W        W35353  14.504  16.881   0.328 -0.4478  0.1325  0.0276
15074W        W35354   7.521   7.646   2.745  0.0407 -0.2191  0.2566
15075W        W35355   1.411  18.334   3.628 -0.3079  0.0229 -0.1582
15076W        W35356   7.851   2.052  12.056  0.1328  0.0712 -0.1061
15077W        W35357   3.083   3.312   2.717 -0.2557  0.0177  0.0533
15078W        W35358   5.112  12.281  12.376  0.0111  0.3320 -0.0273
15079W        W35359  13.655  16.402   3.976 -0.2276  0.0644  0.0084
15080W        W35360  14.555  10.184  13.351  0.0054  0.0566  0.2091
15081W        W35361   6.642   1.514  13.211 -0.1786 -0.1417  0.1275
15082W        W35362   9.521  17.911   1.395 -0.1027  0.3627 -0.2787
15083W        W35363  17.539   1.617   1.965 -0.0085  0.0025  0.0576
15084W        W35364  16.820   5.947   0.618  0.0556 -0.1979 -0.2227
15085W        W35365  17.045  12.546  11.316 -0.0866 -0.0025 -0.0417
15086W        W35366  12.570  17.317  10.717 -0.4489  0.0792  0.1544
15087W        W35367  11.824  16.809  14.363  0.0747  0.1039 -0.0413
15088W        W35368  16.885   1.735   0.035  0.1426 -0.0821 -0.3723
15089W        W35369  16.095   9.401  13.281  0.1248  0.0718 -0.1375
15090W        W35370  12.226   4.136  11.837  0.3110 -0.1826 -0.0816
15091W        W35371   0.440   5.785  11.227 -0.1005 -0.6252 -0.0398
15092W        W35372  11.629   5.701  14.067  0.1366  0.1765  0.1534
15093W        W35373  14.072   6.003  13.186  0.2119  0.0773 -0.1908
15094W        W35374  15.721  12.756  12.151 -0.1963  0.0854  0.0874
15095W        W35375  10.781   4.349  15.160  0.0567  0.0763  0.1036
15096W        W35376  13.233   9.158   3.623  0.0684 -0.1096  0.1698
15097W        W35377   2.846   4.554  15.046  0.1898 -0.2124  0.1487
15098W        W35378  15.370  18.054  12.059  0.3272 -0.2603  0.2874
15099W        W35379  10.365  12.106   2.618 -0.4398  0.3215 -0.0353
15100W        W35380   0.366  16.280   1.080 -0.1403  0.2755 -0.1993
15101W        W35381  12.650   6.572  13.982  0.0236 -0.1378 -0.1324
15102W        W35382  11.308  12.701  14.312 -0.0248 -0.0166  0.0095
15103W        W35383   8.394   6.485   3.355 -0.2014 -0.0884  0.1853
15104W        W35384   4.128   5.373  11.250  0.3908  0.0780 -0.3015
15105W        W35385  16.450  14.490   0.823  0.4631 -0.0674 -0.1926
15106W        W35386   7.569   2.476  12.738  0.0638 -0.0160  0.1094
15107W        W35387   9.206  10.646  13.935 -0.1377  0.2159  0.3431
15108W        W35388   4.231  18.331  11.439  0.2175 -0.0381  0.1102
15109W        W35389   0.176  17.893  13.482  0.0768 -0.0363  0.1839
15110W        W35390  12.011   1.418  14.638  0.2642  0.0975 -0.0761
15111W        W35391  12.729   2.026   0.161 -0.1071 -0.0764 -0.1364
15112W        W35392  10.005  17.268   2.714  0.1374 -0.3201 -0.1032
15113W        W35393  13.799   6.010   4.467  0.0230  0.0062  0.2402
15114W        W35394   4.608  12.458  13.820  0.2760 -0.0042 -0.1032
15115W        W35395   4.999  15.743   2.714  0.1098 -0.0082 -0.1824
15116W        W35396  11.964  10.089  10.464  0.0177  0.0607  0.1607
15117W        W35397  10.511  11.919   3.988  0.2422 -0.1611 -0.1691
15118W        W35398   9.057   6.245  15.073 -0.0104 -0.0517 -0.2295
15119W        W35399  12.019   3.571  14.936  0.0590 -0.1534  0.1205
15120W        W35400   2.478   6.146   2.567  0.0233  0.0289 -0.2248
15121W        W35401   5.585   0.617   5.016 -0.0942  0.1212 -0.0756
15122W        W35402  11.374   4.076  14.447 -0.0582 -0.2785 -0.0851
15123W        W35403  10.189   4.530  12.118  0.0447 -0.0994 -0.0665
15124W        W35404  16.982   5.714   3.246  0.1636 -0.2143 -0.0770
15125W        W35405   9.028   5.319   1.082  0.0101  0.0737  0.1845
15126W        W35406   2.868  10.600   2.256  0.1412  0.0333 -0.0346
15127W        W35407   4.551  12.627   1.649  0.0210 -0.0051  0.0620
15128W        W35408   5.619  11.332  13.248 -0.1548 -0.0720  0.0406
15129W        W35409  17.971   2.776  14.372 -0.1091 -0.1486 -0.1956
15130W        W35410  11.208  18.107   0.609  0.1377 -0.0492 -0.0532
15131W        W35411   3.336  14.710  12.902  0.3574  0.3457  0.2343
15132W        W35412   4.560  10.792  12.762 -0.0899 -0.0959 -0.0730
15133W        W35413   0.292  14.306  13.106  0.1814  0.0986 -0.1323
15134W        W35414   6.895   0.656  15.212  0.1376  0.1334  0.1393
15135W        W35415   4.290   0.147  13.844  0.2007  0.2568 -0.1155
15136W        W35416   2.148  18.362   0.139 -0.2262 -0.3379 -0.0483
15137W        W35417   7.208  13.238   2.263  0.0115 -0.1267  0.1170
15138W        W35418   8.512  10.623   2.962 -0.0185 -0.1754  0.0018
15139W        W35419  10.027   7.221  13.404  0.1538  0.1486 -0.0315
15140W        W35420  11.949  13.785  13.381 -0.0479  0.0147  0.0982
15141W        W35421   8.084   9.157   2.834  0.2310 -0.0170 -0.0473
15142W        W35422  15.310   5.228  12.430 -0.0759 -0.0297  0.1259
15143W        W35423   0.955  11.243  13.926  0.0319 -0.2375  0.1488
15144W        W35424  13.312   6.652   4.682  0.0958  0.1552  0.0984
15145W        W35425  15.255   1.703  11.414  0.1374  0.0072 -0.1200
15146W        W35426  16.224   3.382   0.435  0.0231 -0.0054  0.0815
15147W        W35427  13.681  17.740   2.579  0.0637  0.0173  0.0622
15148W        W35428  17.473  10.758  14.585 -0.0152 -0.1426  0.1245
15149W        W35429   0.477  11.078   2.991  0.0564  0.3081  0.2803
15150W        W35430  17.650   6.424  12.623  0.0547 -0.0893  0.0022
15151W        W35431  10.739  15.302  15.384  0.0277 -0.1524 -0.0701
15152W        W35432  10.223   9.289   3.806  0.0430  0.2852  0.0336
15153W        W35433  10.539  11.439  14.258  0.3864 -0.0197 -0.1133
15154W        W35434   1.446   0.923  15.221  0.0681 -0.2277 -0.2160
15155W        W35435  16.399  18.518   1.607  0.0152 -0.0477 -0.1591
15156W        W35436   0.011   9.148   1.949  0.2382  0.0999 -0.0872
15157W        W35437   2.018   0.018   1.236  0.0265 -0.1758 -0.0115
15158W        W35438   6.418  14.483   2.759 -0.1056 -0.0772 -0.2433
15159W        W35439  15.069  16.932   0.519 -0.1188 -0.0965 -0.1701
15160W        W35440  17.632  16.633   3.526 -0.0169 -0.0484  0.2070
15161W        W35441   5.001   1.411  13.476 -0.0103  0.3324 -0.0700
15162W        W35442   8.110   5.180   3.427  0.1263 -0.0059 -0.3111
15163W        W35443   1.974   5.582  14.702  0.0095  0.0304 -0.0069
15164W        W35444   0.435   3.520   1.052  0.2000 -0.2357 -0.1393
15165W        W35445   5.455  11.736  14.671 -0.0616  0.0171  0.0143
15166W        W35446   6.073   3.508  13.981 -0.1430 -0.1840  0.0054
15167W        W35447  12.192   6.452   3.906  0.0554  0.2460 -0.1014
15168W        W35448   7.976  10.515   1.611  0.0660 -0.2471  0.2092
15169W        W35449   2.589   3.565   0.351 -0.1030  0.0790 -0.0482
15170W        W35450   7.681   6.337  14.869 -0.1977 -0.3419  0.0913
15171W        W35451  13.068  10.073  12.787  0.0359 -0.0007  0.0374
15172W        W35452  11.492  12.665  13.621 -0.1480  0.3760  0.1128
15173W        W35453   9.011  18.648  11.426  0.0586 -0.2268  0.0438
15174W        W35454   5.266  16.969  14.585 -0.2008 -0.1964 -0.3221
15175W        W35455  12.648  12.875  14.463  0.2416  0.0037  0.0390
15176W        W35456   9.692  13.532  11.979  0.1184 -0.0732 -0.2197
15177W        W35457   3.953  15.324  12.761 -0.1639 -0.1500  0.0244
15178W        W35458   0.879  17.104  12.300 -0.0513 -0.0034  0.1405
15179W        W35459   2.562  16.896   1.962  0.0897 -0.1903 -0.1819
15180W        W35460  16.837  17.652   0.628 -0.1272  0.0819 -0.0934
15181W        W35461   1.788   7.224  11.339  0.2608 -0.3046 -0.1706
15182W        W35462   9.653   3.321   3.510  0.3248  0.2497 -0.2773
15183W        W35463   4.476   0.101   1.356  0.2115  0.2763  0.0178
15184W        W35464   5.317   1.485   2.930  0.2104 -0.1230 -0.2129
15185W        W35465   2.724  11.535   3.732 -0.0649  0.3399 -0.1568
15186W        W35466  18.092   3.674  12.617  0.1282 -0.0049  0.0817
15187W        W35467  12.462  12.456   2.814  0.3563 -0.1746 -0.0132
15188W        W35468  18.306   3.266  12.604 -0.2558  0.1653  0.2394
15189W        W35469  15.374  10.699  15.001  0.2750  0.0125  0.1803
15190W        W35470  18.048   6.209   2.039  0.0737  0.1417 -0.0289
15191W        W35471  11.478   5.803   2.193  0.1254  0.1250 -0.2488
15192W        W35472  18.056  12.584   2.189  0.0990 -0.3455  0.1365
15193W        W35473   3.195  15.527   3.261 -0.2555  0.0879 -0.1718
15194W        W35474  17.959  14.145  10.944 -0.2418 -0.0406  0.0038
15195W        W35475   6.266   8.476   0.962  0.4379 -0.2746 -0.1424
15196W        W35476   2.946   9.869   1.035  0.0015  0.2701  0.1043
15197W        W35477   0.029   9.749  14.935  0.0637  0.0153  0.0497
15198W        W35478  16.864   1.799   3.482  0.0039  0.3204  0.2726
15199W        W35479   2.706   4.392   2.122  0.1769  0.1401 -0.0938
15200W        W35480  13.609  13.071  12.301  0.0046  0.0892  0.0467
15201W        W35481   9.981   9.546   4.593  0.0182  0.1482  0.1622
15202W        W35482  10.780   2.526  12.957  0.1143 -0.1802  0.1029
15203W        W35483   5.639  11.733  11.802  0.2285  0.1371 -0.1474
15204W        W35484   2.872   5.763   4.030  0.0481  0.0039 -0.2501
15205W        W35485   9.750   0.729   0.140 -0.1378  0.2453  0.0148
15206W        W35486  14.550  11.851  14.609 -0.2355  0.1638 -0.1240
15207W        W35487   7.930  10.361   1.049  0.1255  0.2150 -0.1049
15208W        W35488   4.140  12.952  14.671 -0.2754  0.0421 -0.0489
15209W        W35489   4.132   7.601  13.064  0.1679 -0.3882 -0.1001
15210W        W35490   8.829  17.719   0.243  0.1677  0.0718 -0.1156
15211W        W35491  16.663  16.669   2.042 -0.1420 -0.1513 -0.0044
15212W        W35492   7.202  17.106   1.174  0.0242 -0.3295 -0.0943
15213W        W35493   9.106   0.672  14.766 -0.1006  0.1256 -0.4547
15214W        W35494   7.716  17.442   3.618 -0.0435  0.1878 -0.2725
15215W        W35495   0.191  17.164  14.611 -0.0715  0.1902  0.0813
15216W        W35496  13.359  18.673   2.856  0.0299  0.0137 -0.3016
15217W        W35497   6.455  13.599   4.216  0.1235  0.1211  0.1146
15218W        W35498   5.346  12.038  15.248 -0.1226  0.0551 -0.0522
15219W        W35499  13.886  15.472   4.230  0.2282  0.1922 -0.1383
15220W        W35500  15.003   7.405   3.669  0.1025  0.3214 -0.0436
15221W        W35501   3.303  14.209   0.631  0.4041 -0.1214  0.1984
15222W        W35502  18.443  17.912  13.316  0.0443 -0.2744 -0.2552
15223W        W35503  13.957   0.657   2.477 -0.1579  0.0638  0.1979
15224W        W35504  11.435   1.045   3.951 -0.0764  0.2751 -0.0421
15225W        W35505  10.439   9.478  13.490  0.4030  0.0890 -0.2586
15226W        W35506   2.835  12.166   1.196  0.0689  0.1058  0.0162
15227W        W35507  11.375   8.037   0.063 -0.2806  0.2700 -0.0591
15228W        W35508   7.314   6.143  12.271  0.1413  0.3795  0.1175
15229W        W35509   7.857  14.896   2.789 -0.2594 -0.0915  0.0252
15230W        W35510   7.338   7.345   0.855  0.3740  0.0309 -0.0837
15231W        W35511   1.099   7.892  13.193  0.1160 -0.0392  0.4276
15232W        W35512   5.096  15.324   0.333 -0.1107  0.2212  0.1392
15233W        W35513  18.537  13.418  14.778  0.0626 -0.3042 -0.2011
15234W        W35514   1.176   7.196  15.265  0.0630  0.1401 -0.0400
15235W        W35515   5.238   7.176   1.621 -0.2314 -0.2138  0.0416
15236W        W35516  12.103   5.047   1.326 -0.0684 -0.1132  0.0824
15237W        W35517   9.964   3.966  13.152 -0.3057  0.1815  0.0130
15238W        W35518   3.225   6.561  13.147  0.1803 -0.0272 -0.0801
15239W        W35519   1.419  12.929   4.087 -0.1854  0.0497 -0.2689
15240W        W35520   9.301  11.357  11.209 -0.0423 -0.1136 -0.1798
15241W        W35521  10.374  15.896   0.574 -0.0204 -0.0835 -0.2635
15242W        W35522  13.601  15.208   1.001  0.1583  0.1089 -0.0926
15243W        W35523  13.206  10.908  15.393 -0.1162 -0.1114 -0.1776
15244W        W35524  17.160   0.938   0.287 -0.0708  0.1708 -0.1374
15245W        W35525  18.033   0.528   0.031 -0.3141  0.1027  0.0068
15246W        W35526  18.352   9.081  14.879  0.4251  0.1699  0.4354
15247W        W35527   8.828  10.646  13.371 -0.2517 -0.4212 -0.1524
15248W        W35528  16.137   1.462   4.042  0.1571 -0.1209  0.2133
15249W        W35529  12.936  15.324  14.710  0.2414  0.0586 -0.0813
15250W        W35530  15.780   4.306   3.906 -0.1689  0.0158 -0.1623
15251W        W35531   8.313  15.343  11.743 -0.1787  0.3729  0.0399
15252W        W35532   3.822   8.953  13.817  0.0784  0.0279 -0.0870
15253W        W35533  12.420  13.589   2.068 -0.1866 -0.0568 -0.0036
15254W        W35534   3.692   6.806  12.874 -0.0455 -0.0477 -0.0889
15255W        W35535  17.062  13.337   2.378  0.1392  0.0883 -0.0797
15256W        W35536   0.270  13.570   4.465 -0.3858 -0.0839  0.1140
15257W        W35537  12.334  16.654  14.149  0.0976  0.1152  0.1718
15258W        W35538   2.651   7.964   1.520 -0.1219 -0.0952 -0.0717
15259W        W35539  16.582  17.688   3.754  0.0066 -0.0449  0.1050
15260W        W35540   7.386   4.555   0.568 -0.0330  0.0036  0.2615
15261W        W35541  12.712   4.848  13.752  0.2857 -0.3837  0.3917
15262W        W35542   2.574   1.698  13.715  0.0611  0.0678 -0.0354
15263W        W35543  10.370   2.929   1.003  0.1240 -0.0927  0.2543
15264W        W35544   2.070  11.355  14.195  0.0400 -0.2645  0.2942
15265W        W35545  17.599   6.434   2.121  0.0248 -0.0475 -0.2157
15266W        W35546   1.206   3.078   4.709  0.1369 -0.1608  0.2081
15267W        W35547   9.763  17.347   2.194 -0.1766 -0.2485  0.2158
15268W        W35548   5.925  12.761   2.435  0.1398  0.0112  0.0656
15269W        W35549  14.650   4.736  14.528 -0.2010 -0.3521 -0.0209
15270W        W35550   6.838  12.391   0.853  0.3387 -0.2434  0.1469
15271W        W35551  14.972   6.582  12.159 -0.0656 -0.1186 -0.0014
15272W        W35552   9.305  17.286  14.945 -0.2641  0.1048  0.0445
15273W        W35553  10.493  15.680   0.152  0.2207  0.0606 -0.1652
15274W        W35554   7.693   1.305  11.050  0.0432 -0.1283  0.1423
15275W        W35555   7.818   3.454  14.860  0.1934  0.0419  0.0257
15276W        W35556   6.114  12.379  13.566  0.3004  0.5414 -0.2291
15277W        W35557   6.121  11.706  15.209  0.0627  0.2463  0.1217
15278W        W35558  16.261  10.088   1.941  0.1663  0.0520  0.0122
15279W        W35559   0.219  10.304   4.280 -0.2764 -0.0930  0.0116
15280W        W35560  17.029  14.717   2.559 -0.1751  0.3373 -0.2066
15281W        W35561  13.568   0.507  13.454  0.0482 -0.1498  0.0380
15282W        W35562   0.909  16.411   1.144  0.2951  0.3026 -0.1455
15283W        W35563  18.134  18.614   0.552 -0.2478 -0.0751 -0.3184
15284W        W35564   2.824   5.056  13.549 -0.1675  0.2382  0.0768
15285W        W35565  13.333   8.224   0.671  0.1722  0.0613 -0.1302
15286W        W35566   2.115  12.620   3.742 -0.0585  0.0737  0.0631
15287W        W35567  15.050   6.043  12.376 -0.0193  0.3734 -0.1490
15288W        W35568   9.518   5.731   2.525  0.2727 -0.0263 -0.1149
15289W        W35569   1.011  15.577  11.863  0.1926 -0.0720 -0.0783
15290W        W35570  18.231   2.275   0.996 -0.1917  0.2185  0.1873
15291W        W35571   5.837   3.263  12.593  0.1459 -0.1729  0.0633
15292W        W35572  11.889   1.448   2.627 -0.3308  0.0963  0.3424
15293W        W35573   2.839   9.777  11.307  0.1493  0.0220 -0.1711
15294W        W35574  12.596   0.080  11.705 -0.1064 -0.2439 -0.1095
15295W        W35575  10.760  12.514   1.166 -0.0868  0.1205  0.0565
15296W        W35576   3.799  16.308   2.821 -0.0112 -0.2293  0.0015
15297W        W35577  17.395  14.085  12.406 -0.1569  0.0536  0.2184
15298W        W35578   8.088   1.561   4.270 -0.0836  0.0996 -0.0764
15299W        W35579  10.217  12.789  12.211  0.2124 -0.1168  0.3491
15300W        W35580  14.035  18.472  12.613 -0.1622  0.1163 -0.0859
15301W        W35581   8.795   1.958   0.769  0.0073  0.3263  0.1751
15302W        W35582  12.885   0.328  14.238  0.1340  0.0853  0.0782
15303W        W35583  15.928   2.182   3.712  0.3390  0.2417 -0.0438
15304W        W35584   9.148   3.597   3.465  0.0269  0.1543  0.0204
15305W        W35585  17.538  12.841  14.206 -0.0442  0.1016  0.0945
15306W        W35586   1.719  10.671  13.660 -0.1363  0.0686  0.1173
15307W        W35587   6.491  11.914   0.172 -0.4825  0.0076 -0.1855
15308W        W35588  14.877   6.907  14.069 -0.2956  0.0200  0.4959
15309W        W35589  11.118   1.581  15.035  0.1246 -0.1082  0.1683
15310W        W35590   4.962  14.152  12.490  0.2090 -0.0589 -0.1088
15311W        W35591  14.979   1.052  13.255 -0.1541  0.0656 -0.2164
15312W        W35592   1.637   3.485   5.312 -0.5578  0.0624  0.2200
15313W        W35593   3.277   3.030   0.022 -0.1870  0.1081 -0.2597
15314W        W35594   9.985  12.473   4.332  0.1433  0.3746  0.2834
15315W        W35595  14.353  15.254  13.351  0.3378 -0.0376  0.0346
15316W        W35596  17.714  18.544   2.420  0.1206 -0.3211  0.1852
15317W        W35597   6.963   5.504   2.813 -0.1427  0.0164  0.1874
15318W        W35598   6.109   1.434   1.216  0.0863  0.0421 -0.0716
15319W        W35599   2.318  11.284   1.281  0.3363  0.0217  0.0982
15320W        W35600  10.163   1.472   2.399 -0.0516 -0.1295  0.1537
15321W        W35601   6.995   9.687  14.697 -0.1298  0.4616 -0.2388
15322W        W35602   4.912   1.331   0.706 -0.0814  0.0330 -0.0719
15323W        W35603  17.370  11.042  13.254  0.0006 -0.4176  0.2092
15324W        W35604  15.193  16.371  14.221  0.0454  0.1260  0.0836
15325W        W35605  13.681  14.672   0.860 -0.2139 -0.0114  0.2843
15326W        W35606  17.927   1.852  14.771  0.0528  0.0589  0.3907
15327W        W35607  12.830  13.080   1.850  0.1986  0.0324 -0.1853
15328W        W35608   6.440   1.838   0.511 -0.3125  0.1248 -0.0680
15329W        W35609   1.472   8.820  11.439  0.1344  0.1633  0.0193
15330W        W35610   9.458   1.678  13.559  0.0120  0.0035 -0.0134
15331W        W35611  12.792   6.255  14.920 -0.2871  0.2263  0.4847
15332W        W35612   0.720  17.718   4.430 -0.0692 -0.1762 -0.0600
15333W        W35613   1.897  11.355  10.154 -0.1128 -0.1434  0.0594
15334W        W35614  17.302   5.462  13.493  0.0848 -0.1248 -0.2053
15335W        W35615  13.441  11.609   0.479  0.2272 -0.0391  0.2134
15336W        W35616  17.466   5.433   4.297 -0.0710 -0.3061  0.1855
15337W        W35617  13.666   5.372   1.350  0.0353  0.1619  0.0978
15338W        W35618  14.741   4.758   2.883 -0.3039 -0.4551 -0.0555
15339W        W35619   3.655  18.119  10.141  0.0899  0.1942  0.1518
15340W        W35620   3.496  12.509  12.930  0.2480  0.2006  0.0008
15341W        W35621  14.647   3.565   3.869 -0.1883 -0.2140  0.0772
15342W        W35622  14.507  14.324   2.849  0.1776  0.4082 -0.1671
15343W        W35623   3.524  10.051   4.430  0.1822 -0.0500 -0.0435
15344W        W35624   9.644  14.169  14.514 -0.0939  0.6123  0.2493
15345W        W35625  11.499   1.785  12.972  0.1716 -0.0685  0.2329
15346W        W35626   2.031   9.134  11.212  0.0014  0.2275 -0.3086
15347W        W35627   0.208  10.824  10.517 -0.1263  0.0120  0.0969
15348W        W35628  10.509   8.963  13.811  0.1085 -0.1485 -0.2020
15349W        W35629  16.088  16.598  12.838  0.1370  0.3282  0.1684
15350W        W35630   1.623  11.863   3.457  0.2135  0.1016  0.0883
15351W        W35631   3.138   2.365   0.551 -0.0859  0.0354 -0.1502
15352W        W35632  16.124   2.011   0.238  0.0271 -0.1858  0.2392
15353W        W35633   3.962   3.817  15.122 -0.2005  0.0159 -0.0731
15354W        W35634  18.143  14.503   0.299  0.3963  0.0690 -0.1751
15355W        W35635  15.790  10.685  13.322  0.0060 -0.1119  0.0781
15356W        W35636   6.014  16.001   2.287  0.0415 -0.0511 -0.3257
15357W        W35637   4.559   9.817   1.946 -0.1620 -0.2097 -0.0202
15358W        W35638  17.592   7.021   4.214  0.2122  0.1305 -0.2405
15359W        W35639  13.558  12.192  12.925  0.0930  0.1297 -0.0400
15360W        W35640   6.143  10.359   1.068  0.0412  0.0319  0.0660
15361W        W35641  17.422   3.839   3.364 -0.1065  0.1128 -0.2785
15362W        W35642  13.637   9.917   3.276 -0.0866  0.0728  0.3078
15363W        W35643   2.617   8.795  14.428  0.2459  0.3527  0.0994
15364W        W35644  15.147   6.555   1.924 -0.2795  0.1817  0.1975
15365W        W35645   0.313   7.409   2.077 -0.2466  0.2410 -0.0447
15366W        W35646   6.245   2.139   0.198  0.0492  0.2310 -0.0613
15367W        W35647   4.311   1.552  11.686 -0.1974  0.1134 -0.2419
15368W        W35648   3.450   2.349   1.803  0.1088 -0.0464 -0.0262
15369W        W35649  17.389  12.948  13.179 -0.0362  0.3273  0.0836
15370W        W35650  15.866   3.282  12.186  0.0965  0.0544 -0.0527
15371W        W35651   6.568  11.344  12.898 -0.4018 -0.0054 -0.2792
15372W        W35652   3.705   6.625   4.197 -0.1660  0.0100  0.2533
15373W        W35653  18.740   2.419  12.704  0.0420  0.0656  0.2147
15374W        W35654   2.607  18.361  12.833  0.0360  0.0532 -0.0618
15375W        W35655  12.041   9.557   4.286  0.1439 -0.1511 -0.0609
15376W        W35656  14.404   7.516   1.620 -0.0984  0.1333 -0.3580
15377W        W35657  11.331  18.021  14.154  0.1709 -0.0769 -0.0408
15378W        W35658   2.050  13.304   1.769 -0.0161 -0.0885 -0.1044
15379W        W35659  16.495  15.466   3.028  0.1512  0.1680 -0.1723
15380W        W35660   8.826  11.911  14.076 -0.2379 -0.0823  0.1013
15381W        W35661  14.459   7.722  13.911  0.1613  0.0080 -0.2381
15382W        W35662  16.314   5.088   3.617 -0.0221 -0.0359  0.0605
15383W        W35663  18.245   4.578  14.430 -0.1806  0.0302  0.2109
15384W        W35664  18.313   3.807   0.892  0.2466  0.0551  0.2338
15385W        W35665  13.200  18.640  14.435  0.1372 -0.2165 -0.0432
15386W        W35666   4.080  14.003  13.689  0.0128 -0.1291  0.0849
15387W        W35667  16.730  10.165  12.952 -0.2833 -0.0405  0.1581
15388W        W35668  13.844  16.046   3.657 -0.1633  0.1397 -0.1198
15389W        W35669   3.172  12.918  15.022  0.1049 -0.0475 -0.1711
15390W        W35670   8.595   8.722   2.256 -0.1376 -0.0852  0.0892
15391W        W35671  14.481   6.250   4.027 -0.1159 -0.2469 -0.0065
15392W        W35672  13.577   3.802  11.114  0.0526 -0.0294  0.0542
15393W        W35673  15.339   2.802   3.015  0.1370  0.1623  0.4383
15394W        W35674   8.335   9.274   0.336 -0.1294 -0.3111 -0.2942
15395W        W35675  13.957  14.272  10.702  0.2487  0.1046  0.3969
15396W        W35676   9.806  16.454  11.043  0.0240  0.0265  0.0852
15397W        W35677   5.113  10.847   2.655 -0.2044  0.1882 -0.0331
15398W        W35678  18.032   5.361   3.585 -0.1364 -0.1245 -0.1352
15399W        W35679   2.550  13.719   2.775  0.2758 -0.2696  0.1744
15400W        W35680   8.102   9.069  11.065 -0.2603  0.2641 -0.1127
15401W        W35681  15.275  12.976   3.535  0.1029  0.1148  0.1824
15402W        W35682   1.335   5.474   3.874  0.1411 -0.0476 -0.0580
15403W        W35683   3.317  17.233  11.376  0.0900  0.0899 -0.0270
15404W        W35684   8.117  10.912   0.396  0.2302 -0.2363 -0.0477
15405W        W35685   3.642  16.257  13.734 -0.0411  0.0480  0.0540
15406W        W35686   1.650  16.512  12.711  0.1929 -0.1076  0.0238
15407W        W35687  13.991  18.123  14.345  0.1956 -0.0045 -0.0494
15408W        W35688  16.700   3.412  13.350  0.1372 -0.5736  0.0127
15409W        W35689   0.229   6.613   1.126 -0.1152  0.1836  0.2095
15410W        W35690   6.427  15.310   1.160 -0.2353  0.0338 -0.0106
15411W        W35691   7.477   6.981  11.841 -0.0739 -0.1086 -0.3041
15412W        W35692  11.988   2.271  14.693  0.0195  0.1008  0.0658
15413W        W35693  12.980   0.198  13.279 -0.0062 -0.0368  0.1858
15414W        W35694   0.689  14.652   1.489  0.0577  0.1369 -0.1165
15415W        W35695  15.073  15.475  10.475  0.1287 -0.1735 -0.1696
15416W        W35696  12.321   7.587  14.635  0.1693 -0.0574 -0.2574
15417W        W35697  11.150   1.890   3.478  0.1153  0.1913 -0.1383
15418W        W35698   6.526  18.563  12.562 -0.2416 -0.1425  0.3459
15419W        W35699   3.209  11.487   2.456  0.0634 -0.1091 -0.0195
15420W        W35700  11.077  17.093  11.741 -0.1281 -0.0876 -0.0443
15421W        W35701  15.736   0.870  12.988  0.1473  0.0072 -0.0730
15422W        W35702   8.087   2.974  14.519  0.1638  0.1005  0.3052
15423W        W35703  16.187  13.634   1.529 -0.0087  0.3908 -0.1709
15424W        W35704   1.449  12.316   4.112 -0.0428 -0.1481  0.2153
15425W        W35705  10.573  13.438   2.762 -0.0152 -0.0275  0.0205
15426W        W35706   5.924   0.747   1.079  0.1676  0.0391 -0.0286
15427W        W35707  13.239   5.429   2.784  0.0822  0.2086  0.1216
15428W        W35708   8.839  16.483  11.444 -0.0955 -0.1200 -0.0800
15429W        W35709   6.816  12.972   0.019  0.0603  0.0416 -0.0300
15430W        W35710  12.250  12.168   1.634 -0.2843 -0.2425  0.1550
15431W        W35711  12.134  12.366  15.292  0.2124 -0.2317 -0.2802
15432W        W35712   9.096   1.209  10.443  0.1196  0.2009  0.1217
15433W        W35713   4.525  11.176  11.460 -0.2442  0.2161 -0.1660
15434W        W35714  17.271   4.211  12.255 -0.2517  0.0252  0.0205
15435W        W35715  16.785   7.941  13.026 -0.2574 -0.2817  0.3274
15436W        W35716  18.257  18.164   0.274 -0.2154 -0.1675 -0.1852
15437W        W35717   9.328   5.299   3.879 -0.1763 -0.0336 -0.3193
15438W        W35718  12.506   7.981   3.449 -0.0307  0.2153 -0.0614
15439W        W35719  15.026   5.938  15.169 -0.0302  0.2435 -0.1029
15440W        W35720   3.842   5.893   0.726 -0.0382 -0.0585  0.2504
15441W        W35721  12.424   7.115  12.264  0.0867 -0.0721 -0.1859
15442W        W35722   1.358  14.339  15.232 -0.2501 -0.0886  0.0199
15443W        W35723   2.448  10.825   4.717  0.2490 -0.0276  0.0725
15444W        W35724  14.988  16.058   2.610 -0.1011  0.3147 -0.0716
15445W        W35725  15.363   2.984  11.336 -0.1740  0.4140  0.0081
15446W        W35726   6.686  14.521   3.205 -0.1105 -0.1122 -0.2471
15447W        W35727  16.204   6.768  14.289 -0.2525  0.0252 -0.0594
15448W        W35728   6.370   9.680  10.236 -0.0097  0.0174 -0.1495
15449W        W35729  12.298   4.597   0.623 -0.3180  0.0656  0.1081
15450W        W35730   5.209   0.678  14.721  0.1491 -0.4214  0.1133
15451W        W35731   8.500   3.994   0.599  0.1736 -0.1613  0.2068
15452W        W35732   1.305  14.619   3.569 -0.3286  0.4208  0.1137
15453W        W35733  17.018   8.915   3.759  0.0732  0.0673  0.0899
15454W        W35734  17.154  10.022   0.559  0.2891  0.0818  0.2449
15455W        W35735   4.954   2.434  15.202 -0.2621 -0.0187 -0.0364
15456W        W35736  17.432  10.605  12.597  0.1009 -0.0462 -0.1561
15457W        W35737  10.130  11.470  13.359  0.0469 -0.3833  0.2060
15458W        W35738  15.621   1.132   0.263 -0.2456 -0.1278  0.0888
15459W        W35739  10.986  13.349   3.013 -0.2676  0.0449  0.2921
15460W        W35740   6.636   4.857   0.863 -0.2025 -0.1204 -0.2404
15461W        W35741  18.521  12.542  14.094 -0.3264 -0.0166 -0.1136
15462W        W35742  10.109   5.751  14.204 -0.2798  0.0957  0.0138
15463W        W35743   7.106   0.134   9.807  0.1847 -0.1436 -0.0251
15464W        W35744  11.816  14.751  13.868  0.1933 -0.0616 -0.0438
15465W        W35745   7.513  15.249   4.633  0.1213 -0.1875  0.1606
15466W        W35746  18.090  12.746   4.289  0.1667 -0.2187 -0.0805
15467W        W35747  18.306   4.452   1.551 -0.1368  0.0774 -0.0748
15468W        W35748   3.292  12.973   2.948 -0.0794  0.2455  0.1071
15469W        W35749   1.738   2.346   2.420  0.1573  0.2045 -0.0625
15470W        W35750   0.414  15.590  12.449 -0.1129  0.1100  0.4128
15471W        W35751   2.732  11.807  14.623 -0.1139  0.1067  0.1757
15472W        W35752   1.025   8.978   3.345  0.0510 -0.1357 -0.0832
15473W        W35753  13.960  16.851   1.188 -0.2701 -0.2570  0.2677
15474W        W35754  13.614  10.423   3.219 -0.1975 -0.0941 -0.0825
15475W        W35755   5.687   2.249   0.258  0.0509 -0.2045 -0.0402
15476W        W35756   5.604  16.056  13.597 -0.0247  0.0666 -0.1441
15477W        W35757   5.603  17.064   2.053 -0.1281 -0.0867 -0.1715
15478W        W35758  11.023  13.862  14.719  0.1373  0.0508 -0.1002
15479W        W35759   4.932   1.418  15.166 -0.3402  0.3289  0.0425
15480W        W35760   7.002   1.690   3.052  0.0251 -0.0129 -0.3634
15481W        W35761   4.517   4.516   0.543  0.1136 -0.0021 -0.1332
15482W        W35762   9.806  17.847   3.297 -0.2188  0.0212 -0.1067
15483W        W35763  14.886  16.120   4.995  0.1216  0.1075  0.1760
15484W        W35764  17.880   4.447  14.957 -0.1744 -0.1631  0.0001
15485W        W35765   2.961   5.480  13.953 -0.3967  0.0475  0.1872
15486W        W35766   9.605   1.459   1.363  0.0321  0.3324 -0.0072
15487W        W35767  13.490  16.492   4.882 -0.1953  0.0750 -0.2733
15488W        W35768   2.927   5.186  11.675  0.2434  0.1179 -0.2560
15489W        W35769  15.265  15.089   4.376  0.0468  0.0722 -0.0071
15490W        W35770  16.954   1.193  12.898  0.0380 -0.1802  0.0086
15491W        W35771  17.260   6.687   1.925  0.1756  0.0565 -0.1913
15492W        W35772   2.602   2.209  14.133 -0.1032  0.1226 -0.2861
15493W        W35773  18.620  14.239  14.291 -0.0055 -0.3953  0.3604
15494W        W35774   7.086  18.049   4.035  0.0632  0.0945  0.2396
15495W        W35775   2.548  13.842  14.872 -0.0660 -0.1717  0.1114
15496W        W35776  15.397   7.836   1.212  0.0199  0.3532  0.1096
15497W        W35777  13.874   6.609  14.174  0.1304  0.3901 -0.1272
15498W        W35778   0.531  16.289  13.560  0.1887 -0.0822  0.0540
15499W        W35779  13.845   0.226  14.520 -0.1032  0.1051  0.0382
15500W        W35780  13.194   5.458   1.469 -0.2123  0.0382 -0.0252
15501W        W35781   2.300  18.294   3.913 -0.2847  0.3792  0.4070
15502W        W35782   5.114   8.138   3.694  0.1207 -0.1675  0.2016
15503W        W35783  10.937   2.100  11.747 -0.0701  0.1754  0.0743
15504W        W35784   6.105  17.518  11.082 -0.0811 -0.0306  0.1205
15505W        W35785  18.481  18.316   3.557  0.1124 -0.0167 -0.0734
15506W        W35786  10.475   8.753   2.148  0.0424  0.0434  0.1209
15507W        W35787   6.489  14.120  14.891  0.0609  0.0989  0.0256
15508W        W35788   7.429   0.317   2.137  0.3858 -0.3054  0.1743
15509W        W35789  14.242   3.142   2.056  0.0980  0.0273  0.0624
15510W        W35790   4.138  16.979   1.637 -0.0900  0.0209 -0.1519
15511W        W35791  18.396  18.006  12.841  0.2410 -0.0937  0.3186
15512W        W35792   7.741  12.692   1.277 -0.1579 -0.0132 -0.0794
15513W        W35793  10.706  14.662   2.122  0.2291  0.2359  0.2321
15514W        W35794  16.007   1.895  13.959  0.0017 -0.0253 -0.2273
15515W        W35795  17.238   7.421  12.726  0.3026  0.0653  0.0819
15516W        W35796  12.522  12.845  11.352  0.3166 -0.2518 -0.1692
15517W        W35797   0.186  13.406  13.312 -0.1041  0.1712  0.1676
15518W        W35798  17.975  16.176  12.787 -0.1937  0.2734 -0.1329
15519W        W35799  11.103  14.681   3.642  0.0281  0.1226  0.2738
15520W        W35800   2.803   6.497  13.422  0.0558  0.0443 -0.0081
15521W        W35801   9.513   3.072   0.644  0.1028 -0.1188 -0.1113
15522W        W35802  13.765  12.850  11.803 -0.1206 -0.1048  0.0320
15523W        W35803  12.740   8.287   2.439 -0.3084  0.2319  0.1529
15524W        W35804   4.080   9.338   3.648  0.1398 -0.4296  0.0580
15525W        W35805   2.465   9.507  15.030  0.0988  0.1531 -0.3139
15526W        W35806   0.788  13.668   1.708  0.1876 -0.1205 -0.1991
15527W        W35807  13.347  17.908   1.279  0.0047 -0.1993  0.2497
15528W        W35808   2.840  15.451   3.605  0.0039  0.0947  0.1488
15529W        W35809   5.276   0.091  10.992 -0.0610  0.0199 -0.1534
15530W        W35810   7.451   0.340  14.489  0.0747  0.3542 -0.3268
15531W        W35811  18.142  16.899  13.397 -0.1063  0.1009 -0.1291
15532W        W35812  12.117  17.944   3.472 -0.0297  0.2613 -0.0682
15533W        W35813  18.670   5.601  15.313  0.1898  0.0168  0.1960
15534W        W35814  16.695   8.670  14.670  0.2875  0.2350  0.1367
15535W        W35815   6.578   6.027   5.080 -0.1466 -0.1363  0.0284
15536W        W35816  12.595  15.325   4.186 -0.0355  0.0673  0.1615
15537W        W35817   7.543   2.421   0.695 -0.0842 -0.2928 -0.1157
15538W        W35818  10.380  11.195  15.320 -0.2026  0.2809  0.1460
15539W        W35819   6.864  17.490  10.730 -0.0537  0.2742 -0.0510
15540W        W35820  15.196  18.374   2.745  0.0130  0.0060 -0.0851
15541W        W35821  10.236   0.740   1.885  0.0687  0.0773  0.1403
15542W        W35822  13.473   0.307   0.377  0.1238  0.3626  0.1767
15543W        W35823  14.532   7.235   0.975  0.3701 -0.2940  0.0680
15544W        W35824   1.123  12.451   1.726  0.1094 -0.3003  0.0722
15545W        W35825   1.673   9.916  11.937 -0.1934 -0.2377 -0.1893
15546W        W35826  11.547  18.330   0.250 -0.2738  0.0388  0.1324
15547W        W35827  11.758  11.449   1.353  0.0975  0.5028 -0.0088
15548W        W35828  16.053  11.060  11.272  0.0094  0.3769 -0.0678
15549W        W35829   2.445  16.850  11.768 -0.0784  0.5588 -0.0062
15550W        W35830  14.358  16.069   4.808 -0.1643 -0.0288  0.0383
15551W        W35831  13.467  11.917  13.316 -0.2231  0.0895  0.3996
15552W        W35832  15.716   3.942   5.617 -0.0170 -0.0085 -0.0761
15553W        W35833   7.272   9.345  14.966 -0.4627  0.1782 -0.0240
15554W        W35834   5.001   7.446  14.081  0.1582 -0.2346 -0.1339
15555W        W35835   6.075  16.659  12.056 -0.1356 -0.4126 -0.1269
15556W        W35836  15.317  14.652   0.531 -0.0160 -0.2627  0.0879
15557W        W35837   0.534   2.090   2.305 -0.4813 -0.3628 -0.0073
15558W        W35838   8.574   2.291   2.491  0.1243  0.1284 -0.1098
15559W        W35839  15.908  10.449   0.449  0.0741 -0.2493  0.1801
15560W        W35840   6.920   7.708   4.476 -0.0285  0.1574  0.1192
15561W        W35841   5.396   1.683   3.607  0.0052  0.0052 -0.1809
15562W        W35842  14.391  17.147  12.157  0.1931 -0.0603 -0.0393
15563W        W35843   5.963  15.976   0.806 -0.1298  0.0872 -0.3756
15564W        W35844  11.169   6.082  14.865  0.0927  0.0344 -0.2366
15565W        W35845  11.637   6.783  12.746  0.1220  0.1672  0.1373
15566W        W35846  17.644   9.111  13.143  0.0382 -0.1631 -0.2010
15567W        W35847  17.050   7.629  14.350  0.1602  0.0518  0.1154
15568W        W35848   8.006   7.742  14.820 -0.0565  0.2120  0.0702
15569W        W35849   1.953   1.597   5.289  0.0334  0.2519  0.3171
15570W        W35850  18.062  15.621   2.659 -0.1223 -0.0854 -0.2081
15571W        W35851  15.136  11.105   4.449 -0.3064  0.3089 -0.2303
15572W        W35852  17.814   2.567   1.094 -0.2965  0.1245 -0.0649
15573W        W35853  17.614   6.678   1.372  0.0588  0.2538 -0.1550
15574W        W35854   2.882  17.806   0.015  0.0891  0.3032  0.0842
15575W        W35855  17.804   9.678  11.950 -0.1946 -0.2397 -0.0269
15576W        W35856  11.529  15.445  13.369  0.0315 -0.0954  0.1630
15577W        W35857   3.007  11.438   1.328 -0.0268 -0.3943 -0.0979
15578W        W35858  13.744  10.840   1.636  0.1121  0.0214 -0.3568
15579W        W35859  16.941  14.891  13.528 -0.0058  0.2639  0.1280
15580W        W35860   5.638  11.498   2.917 -0.1028  0.0026  0.0107
15581W        W35861  15.603   5.481   4.332  0.3798  0.0575  0.2044
15582W        W35862  17.775   2.110   0.741 -0.0077 -0.0393  0.1409
15583W        W35863  10.983   0.742  12.968  0.3222 -0.0256 -0.0178
15584W        W35864   1.958  13.610   2.783 -0.0027 -0.0612 -0.2287
15585W        W35865   7.252   5.119   2.714  0.0653  0.4877  0.0020
15586W        W35866  14.739  13.928  11.140 -0.2000  0.0417  0.0810
15587W        W35867   1.599   0.091   3.892 -0.1924  0.0860  0.0217
15588W        W35868  15.750   0.315  14.486 -0.1342  0.2805  0.4369
15589W        W35869   9.419  10.682  15.250  0.0807 -0.1208 -0.2886
15590W        W35870   8.647  13.530  12.657 -0.1481 -0.0286  0.0206
15591W        W35871   1.446  17.122  15.270  0.0000  0.2231  0.1479
15592W        W35872   8.793   1.543   2.315 -0.2601  0.0471  0.0589
15593W        W35873  13.697   1.952   0.167  0.0822  0.1597  0.2403
15594W        W35874  14.497  18.333  12.340  0.0066 -0.1130 -0.1361
15595W        W35875  17.662  15.467  11.088 -0.1078 -0.2471 -0.1053
15596W        W35876   8.240   5.892  13.680  0.1235  0.1891  0.1262
15597W        W35877  10.354   8.224  12.185 -0.3830  0.1879  0.0514
15598W        W35878  11.961   9.289   3.332 -0.1552 -0.2886  0.3901
15599W        W35879   5.866  10.124   1.398 -0.2509  0.3535  0.1039
15600W        W35880   6.951  18.037  14.305  0.1828  0.1127  0.0281
15601W        W35881   9.723   8.705   4.739 -0.1794 -0.0174 -0.0164
15602W        W35882  10.401  12.134  12.665 -0.2036 -0.2144  0.0449
15603W        W35883   4.926  17.425   4.654  0.2057 -0.0866  0.0886
15604W        W35884  11.011  11.347   2.248  0.1902 -0.3230  0.0211
15605W        W35885  14.032  11.658  12.348 -0.0305  0.3218  0.5113
15606W        W35886  18.569   3.807  12.669 -0.0716  0.0640 -0.3913
15607W        W35887  13.674   3.306   3.871 -0.2142 -0.1427  0.2665
15608W        W35888   2.915   1.837  13.379 -0.2203 -0.1463  0.0458
15609W        W35889   9.272   3.587   2.051  0.0011 -0.1888  0.1028
15610W        W35890   2.952  15.832  14.458 -0.2903  0.0455  0.4028
15611W        W35891   2.067   0.045  12.168 -0.1492 -0.2332  0.1464
15612W        W35892   9.503   7.884  14.193 -0.2015 -0.1290 -0.0940
15613W        W35893  12.819  17.358   2.766 -0.0154 -0.0575 -0.1704
15614W        W35894   7.171  13.671   0.721 -0.4791  0.1334  0.1207
15615W        W35895  14.389  11.567  14.999  0.2219 -0.1195  0.1731
15616W        W35896   1.445   7.950   4.175  0.2157 -0.0816 -0.0195
15617W        W35897  15.142  10.383   0.425 -0.3074 -0.3759 -0.1061
15618W        W35898  12.218  17.298  12.338  0.2084  0.1497 -0.1598
15619W        W35899  15.347   2.955   0.677  0.2085 -0.4217  0.0374
15620W        W35900  17.256   1.268   3.077  0.2608  0.1574 -0.1930
15621W        W35901   0.839   3.730  11.665  0.0698 -0.3842 -0.1147
15622W        W35902   8.404   9.324  15.281 -0.1433 -0.3911  0.0643
15623W        W35903  13.722  15.553   2.945 -0.2475  0.3608 -0.0355
15624W        W35904   3.359  11.132  14.832  0.2085  0.3878  0.0352
15625W        W35905  15.860   8.197  13.457  0.1780  0.0441  0.1480
15626W        W35906  15.111   8.371   2.666  0.0597  0.2014  0.1565
15627W        W35907   2.165   1.885   2.965 -0.1261  0.0602  0.3438
15628W        W35908   0.004   4.332  14.932  0.4323 -0.0323 -0.1358
15629W        W35909   0.982  12.859  12.147 -0.2345 -0.0678  0.1337
15630W        W35910   2.556  18.585   2.765  0.1164  0.3620  0.0087
15631W        W35911  17.893  10.157   3.649 -0.2269 -0.2931 -0.2227
15632W        W35912   1.096   6.305  13.531 -0.0698 -0.0548 -0.0210
15633W        W35913  13.475   5.075   1.860 -0.0289  0.1026  0.0505
15634W        W35914   7.173  15.601   3.490 -0.0525  0.1819 -0.1799
15635W        W35915  16.333   7.878  15.080  0.1193 -0.3712 -0.0548
15636W        W35916   4.961   6.843  14.077  0.0763  0.2428  0.1649
15637W        W35917  15.867   5.124  15.119  0.0934 -0.0398  0.2849
15638W        W35918   4.814  11.974   1.885  0.0793 -0.1289 -0.2298
15639W        W35919   8.847  15.143   3.671 -0.2037 -0.0889  0.0829
15640W        W35920  18.290  13.915  12.310 -0.2075 -0.0989  0.2598
15641W        W35921   2.030   8.530   0.396  0.2045  0.0450  0.2947
15642W        W35922  13.560   0.310   1.124 -0.1025  0.3041  0.3412
15643W        W35923   6.724   0.480   0.584 -0.0523  0.3143  0.0176
15644W        W35924   5.035   8.550  14.078 -0.0258  0.1238 -0.2609
15645W        W35925  11.496   8.755  12.370  0.1489 -0.1871  0.2401
15646W        W35926   5.017   9.122  15.375 -0.1281  0.0128 -0.0850
15647W        W35927  12.220  10.854  15.094  0.3770  0.0209 -0.0839
15648W        W35928   6.921  12.244  14.314 -0.4393 -0.0000 -0.2048
15649W        W35929   7.028   0.406   4.229 -0.3014  0.1368  0.2288
15650W        W35930  14.717   2.029  11.213  0.1959 -0.0711 -0.0111
15651W        W35931  10.720  14.095   2.046  0.0984  0.2110  0.1357
15652W        W35932  12.252   6.748  15.341  0.1583  0.1795  0.0045
15653W        W35933  15.127  13.178  11.533 -0.1097  0.0585 -0.0367
15654W        W35934   6.444  10.367  15.112  0.0068 -0.1599  0.0439
15655W        W35935   4.586   2.107   1.046  0.2216  0.2217  0.1583
15656W        W35936   2.578  14.531  12.028 -0.1613 -0.2690 -0.1525
15657W        W35937   7.921  11.657  13.608  0.2895 -0.1702  0.1807
15658W        W35938   5.665   3.046  15.096  0.0253  0.1229  0.2556
15659W        W35939  14.103   1.841   3.229 -0.0947  0.0623  0.0487
15660W        W35940   8.126   3.256  11.174 -0.0477  0.0320 -0.1388
15661W        W35941  16.421  15.739  14.990 -0.1509  0.1678  0.1646
15662W        W35942  17.403   3.024   4.693 -0.3109 -0.1053  0.0799
15663W        W35943   3.266   8.042   0.299 -0.0115 -0.2095 -0.1400
15664W        W35944  12.235   1.504   3.016  0.1063  0.1473  0.0463
15665W        W35945  14.070   5.354  13.030 -0.1875 -0.0417 -0.1174
15666W        W35946  10.028   1.635   3.831  0.0875 -0.0694  0.0168
15667W        W35947   1.255  14.594  13.574 -0.1318  0.2607  0.0524
15668W        W35948   2.019   0.438  10.817  0.2041 -0.1874  0.0498
15669W        W35949   7.637   0.480   0.893 -0.2729 -0.0779 -0.2098
15670W        W35950   0.035  18.514   3.259 -0.0345  0.1186 -0.1279
15671W        W35951   0.694   8.621  11.996  0.2280  0.0235 -0.4759
15672W        W35952   9.960  11.189  12.885 -0.0489 -0.3860 -0.1276
15673W        W35953   0.748  10.351   5.236  0.2340  0.0540 -0.2797
15674W        W35954  13.884   4.364   3.730  0.2518  0.2651 -0.2631
15675W        W35955   4.213   7.230  12.131 -0.2449  0.2682  0.1316
15676W        W35956  10.622  12.536   1.704 -0.1721 -0.0477 -0.1475
15677W        W35957   8.404   3.137   0.527 -0.2381  0.0103  0.3610
15678W        W35958   8.447   8.636   5.516  0.0878 -0.2311  0.0598
15679W        W35959  12.908   5.469   2.368  0.0244 -0.0229 -0.1499
15680W        W35960   8.024   9.206  11.547 -0.0211 -0.1772  0.3776
15681W        W35961   4.844   7.072  10.997 -0.1291  0.0182 -0.1624
15682W        W35962   0.175   2.921   0.309  0.3037  0.0105  0.1581
15683W        W35963  14.453   7.362   4.413 -0.2069 -0.0776 -0.1101
15684W        W35964  12.696  10.187  14.593  0.0707  0.1853 -0.2690
15685W        W35965   1.400   2.377  12.405 -0.1050  0.0702  0.1003
15686W        W35966   6.911   3.811  14.236  0.1629  0.1986  0.1161
15687W        W35967  11.108   3.117   2.453 -0.0740  0.0214 -0.0774
15688W        W35968   8.935   2.786  14.265  0.0329  0.2461 -0.2380
15689W        W35969  10.931  15.517   0.414  0.0353  0.1001 -0.5272
15690W        W35970  10.119   2.676  12.141  0.2008  0.0657 -0.1226
15691W        W35971  15.868  13.708  11.992 -0.1991 -0.1296  0.2234
15692W        W35972  10.752  10.763  11.323  0.2564  0.3182  0.0813
15693W        W35973  15.133  12.378   4.912  0.0262 -0.0935 -0.0829
15694W        W35974   0.937   1.857   0.332 -0.0136 -0.0589 -0.3195
15695W        W35975  12.838  17.199   1.776 -0.2119 -0.0183 -0.1144
15696W        W35976  15.857  17.592  12.306  0.2187 -0.0325 -0.0678
15697W        W35977   8.357   6.151   3.675 -0.0137  0.0971 -0.3834
15698W        W35978  14.532  16.625   3.682 -0.2986  0.2426 -0.0833
15699W        W35979  15.079   4.575   2.019  0.0777 -0.1308  0.1983
15700W        W35980  10.207  14.669  12.289 -0.0754 -0.3964 -0.1992
15701W        W35981   6.048  15.665   1.155 -0.2548  0.3443  0.0405
15702W        W35982  10.753  18.581  12.686  0.1004 -0.1471  0.1185
15703W        W35983   4.472   7.593  10.959 -0.1462  0.3116  0.2596
15704W        W35984   5.141  13.783   0.376 -0.0738 -0.0816 -0.0099
15705W        W35985   7.463  10.463   3.336 -0.0773  0.0276 -0.0458
15706W        W35986  13.619   8.798  13.904 -0.0621 -0.0562  0.1471
15707W        W35987   4.284  13.534   0.358  0.0746  0.1343 -0.0349
15708W        W35988   6.652   4.157   0.306  0.0452 -0.0641 -0.1061
15709W        W35989  10.753  10.476   4.093 -0.0720 -0.1803 -0.0408
15710W        W35990   1.645  10.188   0.273 -0.1770  0.4658  0.1004
15711W        W35991   1.605   1.358  11.405  0.3103  0.0782 -0.0786
15712W        W35992  14.023  15.794  11.880  0.3874  0.4526  0.1201
15713W        W35993   7.063   2.162   3.830 -0.0675 -0.0359  0.1326
15714W        W35994  17.254   6.609   0.988 -0.0722  0.2129 -0.2265
15715W        W35995   1.737  14.620  10.834  0.1050 -0.1177  0.3216
15716W        W35996  10.496  12.650  12.757  0.4470 -0.0131 -0.2035
15717W        W35997  14.490  17.297   2.962 -0.3112  0.0356 -0.0290
15718W        W35998  10.636   0.626   2.302 -0.1773  0.2887 -0.0179
15719W        W35999  10.760  16.755  11.771 -0.3509 -0.0346  0.1082
15720W        W36000   5.851  10.901   0.323 -0.0363 -0.3986  0.0172
15721W        W36001   5.844   3.800  14.417  0.1445 -0.4102  0.4940
15722W        W36002   8.994  16.353  13.200  0.0706 -0.4838  0.1976
15723W        W36003  15.498   6.423  14.351  0.3501 -0.0183  0.1588
15724W        W36004  16.953   1.205  14.310 -0.0581 -0.0364  0.0553
15725W        W36005   4.750   9.395   2.277 -0.0946  0.1057 -0.4377
15726W        W36006   6.590   8.467   0.011  0.0787  0.0908  0.0580
15727W        W36007  14.885   7.206   0.510 -0.0372  0.2214 -0.4380
15728W        W36008   2.492  16.804   2.461 -0.2098  0.1272 -0.5663
15729W        W36009  18.385   2.585   1.569  0.0673  0.0717 -0.3908
15730W        W36010   2.779  14.584  15.214 -0.1105  0.0919  0.0889
15731W        W36011   5.291  12.162  10.979 -0.1264  0.1075  0.0458
15732W        W36012  14.331   5.287  12.594  0.0911 -0.1120  0.0337
15733W        W36013  17.293   6.632  10.277  0.0872 -0.1910  0.1680
15734W        W36014  13.301   2.342  11.494  0.0667 -0.1191 -0.0415
15735W        W36015  16.158   7.509   1.977  0.0420 -0.1178  0.1098
15736W        W36016  10.733   6.758   3.549 -0.0203 -0.0459  0.0341
15737W        W36017  18.389   3.890  11.706 -0.1642 -0.0517 -0.0802
15738W        W36018   3.771   6.509  14.361  0.0657 -0.1350 -0.2591
15739W        W36019   4.098  11.144   4.116  0.0885  0.1907 -0.0569
15740W        W36020  11.521   1.457   1.283  0.0525  0.1962 -0.2263
15741W        W36021  10.882   7.381  12.939 -0.2159 -0.2428  0.2839
15742W        W36022   8.716  17.862   3.313 -0.0249  0.0448 -0.2265
15743W        W36023  10.048   4.514  14.736 -0.2573  0.0321 -0.2202
15744W        W36024   3.065  10.550   1.284 -0.0105 -0.3505 -0.3206
15745W        W36025  12.099  12.295   4.095  0.2509 -0.1165  0.0183
15746W        W36026   9.828   5.589   1.706 -0.1031 -0.2304  0.0850
15747W        W36027   1.969  11.125   2.123 -0.1647  0.1037 -0.1335
15748W        W36028   9.383  17.556   3.536 -0.0905  0.0535 -0.1234
15749W        W36029  17.654  15.448   2.821  0.0677 -0.2279  0.0232
15750W        W36030   8.275  12.277   1.004  0.0869 -0.0473  0.0006
15751W        W36031   1.938   4.340  14.321 -0.0515 -0.0044  0.0403
15752W        W36032  14.321  10.059  15.165 -0.3908  0.1750 -0.3222
15753W        W36033   6.121  16.214   0.435 -0.0009 -0.2817  0.0088
15754W        W36034  18.616   0.644  14.045 -0.0944  0.0173 -0.4228
15755W        W36035  18.550  13.231   3.201 -0.0249 -0.0028 -0.0014
15756W        W36036   0.154  10.971  13.464 -0.0486  0.1535  0.1073
15757W        W36037  17.172  11.474  11.652  0.1505 -0.5002  0.2323
15758W        W36038  15.624  11.274   1.902  0.2210 -0.0055 -0.2081
15759W        W36039   4.412   5.586   3.018  0.1727 -0.0968 -0.0627
15760W        W36040  14.041  16.311  11.484  0.1257 -0.0519 -0.0420
15761W        W36041  18.250  14.604  14.811  0.2884  0.1028  0.2162
15762W        W36042  10.695   2.868  13.349 -0.0138  0.0301  0.0908
15763W        W36043   0.372   2.582  15.202 -0.0360 -0.0738 -0.0453
15764W        W36044  11.900   2.749   1.187 -0.2498 -0.3412  0.3146
15765W        W36045   6.716   2.403  13.710 -0.3323 -0.0844  0.1313
15766W        W36046   8.210   7.082  14.259  0.2853 -0.3204  0.2586
15767W        W36047   9.538   2.266   3.268  0.0555  0.2170 -0.3066
15768W        W36048  17.512   1.581   2.735 -0.0753  0.2720  0.3771
15769W        W36049   2.769  15.131  11.280  0.0877  0.0841 -0.0670
15770W        W36050   8.668  13.777  12.196 -0.0631  0.1023  0.1898
15771W        W36051  17.017   0.288  11.544  0.0710 -0.4815  0.2299
15772W        W36052   9.149   2.650  11.623  0.1112  0.1984  0.0687
15773W        W36053   6.658   4.254  10.816 -0.0060  0.0617 -0.3781
15774W        W36054  10.776  15.127  13.464  0.1725 -0.0298  0.1398
15775W        W36055  16.130   3.644   2.711  0.1894  0.3145 -0.2024
15776W        W36056  11.366   4.530  14.192 -0.1555 -0.0557  0.0160
15777W        W36057   3.344   8.967  13.572 -0.2677 -0.0961  0.3129
15778W        W36058  17.034   5.258   1.437 -0.1628  0.1116 -0.2718
15779W        W36059  16.087   4.291   0.657 -0.0512 -0.2204 -0.4998
15780W        W36060   6.026   7.515   2.942  0.0514  0.1101  0.1396
15781W        W36061  12.707   9.469   1.511 -0.0520 -0.0534 -0.1563
15782W        W36062  12.487  17.100  11.667  0.2990 -0.1189 -0.1583
15783W        W36063   3.854   6.788   2.450  0.1319  0.0357  0.0979
15784W        W36064  11.602   1.208   0.200  0.1507  0.2450 -0.1246
15785W        W36065   7.181  11.561  12.110 -0.1021  0.0288 -0.0997
15786W        W36066  16.002  18.118   1.592 -0.1157  0.2338 -0.2076
15787W        W36067  17.744   4.114  10.990  0.0849 -0.0060  0.0688
15788W        W36068  16.025   8.327  14.970  0.1193  0.0899  0.0558
15789W        W36069   8.692   4.650  15.308  0.2103 -0.1468 -0.2883
15790W        W36070   8.410  14.235  12.659 -0.3094 -0.4372  0.0226
15791W        W36071   0.549  16.714   0.914 -0.0452 -0.1000 -0.0027
15792W        W36072  14.759  17.392  14.832 -0.2229  0.0996 -0.0571
15793W        W36073  10.416   2.252   0.148  0.3317 -0.0361  0.2616
15794W        W36074  14.697  16.968  13.713  0.1486  0.2078 -0.2569
15795W        W36075   8.600   7.580  12.162  0.0423 -0.0485  0.1176
15796W        W36076  18.199   0.041  11.482  0.1783 -0.2159  0.2725
15797W        W36077   0.141  16.767  11.312  0.0657  0.1953 -0.1650
15798W        W36078   2.719   4.610   1.268  0.2334 -0.2843  0.0111
15799W        W36079  18.506   0.477  12.199 -0.0570 -0.0583 -0.0298
15800W        W36080   1.765  15.049   2.127 -0.0080  0.1829 -0.3763
15801W        W36081  17.764   5.066  14.665  0.0709  0.0436  0.0686
15802W        W36082  11.242  10.450  14.191 -0.1597  0.2230 -0.1903
15803W        W36083  11.191   1.156  15.239 -0.0185 -0.0217 -0.0985
15804W        W36084   8.006   0.877  10.437  0.0226  0.0265 -0.1508
15805W        W36085   4.345  18.414  13.566 -0.1260  0.1223  0.0052
15806W        W36086   3.569  13.669  12.496 -0.0206  0.1352 -0.2167
15807W        W36087  18.423   1.787  12.079  0.0749  0.1363 -0.2193
15808W        W36088   2.189   7.628   0.779  0.1113 -0.1246 -0.2080
15809W        W36089  15.540   1.157   4.691 -0.1195  0.0858  0.0114
15810W        W36090   0.149   3.478   1.887  0.0047  0.2496  0.2082
15811W        W36091  10.714  12.746   3.927 -0.1039 -0.0360 -0.1460
15812W        W36092   8.823  13.298  11.801 -0.2540  0.2396 -0.3950
15813W        W36093   4.767  16.985  14.214 -0.1463  0.3473 -0.2194
15814W        W36094   2.891  14.690  13.109  0.0382  0.2538 -0.2217
15815W        W36095  12.036  12.666  11.292 -0.1186  0.1251 -0.0427
15816W        W36096  11.361   2.659   0.498 -0.1860  0.0075  0.3687
15817W        W36097  17.647  13.534   2.477  0.3239 -0.1482  0.1183
15818W        W36098   3.024   0.719   2.534 -0.2014 -0.0481 -0.2661
15819W        W36099   7.076   4.903  12.704 -0.1856 -0.0716 -0.0765
15820W        W36100   3.571  10.065   0.411  0.0079  0.0334 -0.2068
15821W        W36101   3.169   8.664   3.021  0.0823  0.0758  0.3347
15822W        W36102  14.086   3.141   0.596  0.2618 -0.3477  0.2401
15823W        W36103  17.955   9.721   0.020 -0.2516 -0.3608 -0.3559
15824W        W36104  17.623   7.364   0.496 -0.3410  0.4277 -0.3404
15825W        W36105  10.554  15.691  12.209 -0.1946 -0.0338  0.2034
15826W        W36106   0.319  18.109  11.122  0.3572 -0.1309 -0.0668
15827W        W36107  16.497  10.353   1.268 -0.2823 -0.1572  0.1695
15828W        W36108   2.510   6.412   0.012  0.0712 -0.2304 -0.3941
15829W        W36109  12.201   9.525   2.394  0.2135  0.3301 -0.1184
15830W        W36110  17.147  11.017   1.378  0.2285 -0.1343  0.1068
15831W        W36111   8.450  15.231   3.978  0.1834 -0.0305  0.1452
15832W        W36112   4.508   9.893   0.703 -0.0166  0.1148  0.2131
15833W        W36113  10.939   5.745   4.593  0.0108 -0.1856  0.0239
15834W        W36114   3.998  16.188   2.010  0.0608 -0.0223  0.0675
15835W        W36115   6.514   4.029   3.207 -0.2078 -0.0933  0.2559
15836W        W36116  18.468   8.509  14.873  0.0237 -0.0661  0.1957
15837W        W36117  18.546   9.077  12.150  0.1103 -0.1471 -0.0887
15838W        W36118   7.018  10.659  13.757  0.0010 -0.0427 -0.0995
15839W        W36119   6.149  13.192   3.166  0.1746  0.0385 -0.1860
15840W        W36120   9.756   1.339   0.845  0.2090 -0.1686 -0.1485
15841W        W36121  15.063   1.094  11.376 -0.0213  0.4805 -0.1179
15842W        W36122  18.438  17.286   1.869 -0.0527 -0.1365  0.2426
15843W        W36123  15.481   8.281  15.315 -0.0416  0.0306 -0.1561
15844W        W36124   5.506   6.639  14.728  0.0596 -0.0176 -0.1689
15845W        W36125  16.355   0.393  11.314 -0.1757 -0.0515  0.2786
15846W        W36126  17.316   8.699  13.040 -0.3200  0.0617  0.0107
15847W        W36127  13.025  14.017  11.947  0.0488 -0.2199  0.3790
15848W        W36128  13.084   0.982   3.010  0.0424 -0.0876 -0.0824
15849W        W36129   6.814   9.939   1.597 -0.2412  0.2046 -0.1436
15850W        W36130  12.399  15.823   3.452 -0.1360  0.1157  0.5135
15851W        W36131   1.003   3.865   2.918  0.1433 -0.1215  0.2003
15852W        W36132   5.928   4.750  10.849  0.0008 -0.2651  0.1712
15853W        W36133  17.726  14.307  13.989  0.0541 -0.1879  0.1447
15854W        W36134  14.221  12.893   4.004  0.1244 -0.2792 -0.0404
15855W        W36135   7.010   7.067   0.025  0.0355 -0.0008 -0.1028
15856W        W36136   8.202  17.827   3.510  0.0028  0.0224  0.1006
15857W        W36137   2.163   8.451   3.193 -0.3084 -0.3576  0.0064
15858W        W36138  14.296   4.666  11.606  0.1760  0.0269 -0.2641
15859W        W36139  13.325  10.482  14.184  0.0301  0.1006 -0.0119
15860W        W36140  11.192  11.573   0.404  0.0783  0.2167 -0.2572
15861W        W36141  10.211   1.084  13.229  0.3296 -0.0164 -0.2466
15862W        W36142  15.644   2.243  13.460 -0.0231  0.0928  0.2515
15863W        W36143   6.006  17.596  13.307 -0.1865 -0.0038 -0.2235
15864W        W36144   1.936  15.604  14.193 -0.0781 -0.1815  0.0337
15865W        W36145   9.268  12.157  14.169  0.0684 -0.3642 -0.0364
15866W        W36146  12.260  12.809   1.175 -0.0057 -0.1898  0.0541
15867W        W36147   0.336   9.296  14.337 -0.0011  0.2405  0.0914
15868W        W36148   4.157  12.815   2.997 -0.1818  0.0733  0.0714
15869W        W36149  10.473   5.955   2.441  0.1598 -0.0413  0.1642
15870W        W36150   1.490  13.413  15.270  0.1236 -0.1603 -0.0537
15871W        W36151   0.718  15.826  11.486  0.0311 -0.0546  0.3899
15872W        W36152  14.572   3.497  15.308  0.1035  0.0372  0.2444
15873W        W36153   9.938   4.996  13.012  0.1258  0.0043 -0.1027
15874W        W36154   3.900   3.453   0.658  0.0860 -0.0138 -0.1588
15875W        W36155   5.638   5.178   2.143  0.0571  0.1890  0.1997
15876W        W36156   6.044   2.426   3.866  0.2890 -0.2094  0.1009
15877W        W36157   2.909   4.202   3.930  0.1972  0.1777  0.1555
15878W        W36158   2.797  10.878  11.460 -0.1709 -0.2270  0.1527
15879W        W36159   5.993   8.699  13.365 -0.0297  0.0272  0.0379
15880W        W36160  10.032   4.736  10.630  0.3714  0.2508  0.2703
15881W        W36161   4.442  14.994   0.456 -0.1331  0.1720  0.3557
15882W        W36162  16.060   5.479  12.867 -0.1932  0.0637 -0.3705
15883W        W36163  13.270  12.946   1.642 -0.2906 -0.2995  0.1287
15884W        W36164  13.704  15.900   4.085  0.0721 -0.1210 -0.0745
15885W        W36165   5.048   0.929  13.416  0.0844 -0.1345  0.1281
15886W        W36166  14.207   5.476  13.969 -0.1596  0.1531  0.1855
15887W        W36167   4.499  12.411  12.604 -0.1755 -0.1158 -0.3799
15888W        W36168   5.772   2.377   2.929 -0.1709  0.1051  0.2353
15889W        W36169  11.690  14.789   1.417 -0.1725  0.0025  0.1612
15890W        W36170   5.964   8.345  13.831  0.2472  0.1045  0.2579
15891W        W36171   1.561  15.696   1.134  0.1286  0.0975  0.2072
15892W        W36172  11.753  11.991  12.420 -0.0931 -0.0674  0.0058
15893W        W36173   4.740   5.446   1.762 -0.1194  0.0794 -0.4195
15894W        W36174  14.798  16.533   1.607  0.1855 -0.1357 -0.3608
15895W        W36175  18.074  16.871  15.113  0.2030  0.0941  0.0915
15896W        W36176  16.560   0.496   3.310 -0.1561 -0.1069  0.0762
15897W        W36177   8.134  17.973   1.336 -0.0595  0.1092 -0.3139
15898W        W36178   8.721  18.588   2.477  0.3032 -0.0290 -0.0363
15899W        W36179   1.222  16.950  13.935 -0.2340 -0.0924  0.0490
15900W        W36180  15.425  11.299   2.559 -0.1610  0.0345  0.2368
15901W        W36181  18.624   5.846  12.209 -0.2318 -0.2537 -0.4295
15902W        W36182   5.379  11.956   1.707 -0.2312  0.1599 -0.1875
15903W        W36183   2.549   6.000  11.351  0.0005 -0.4165  0.1128
15904W        W36184  10.539   1.794  14.610  0.4551 -0.0539 -0.0601
15905W        W36185  17.610  11.888   1.482  0.0864  0.4231 -0.0737
15906W        W36186  13.581  12.168  13.803 -0.0077 -0.1897  0.3347
15907W        W36187   2.104  10.961   1.659 -0.3621  0.2908 -0.0637
15908W        W36188   5.738   0.345   0.241  0.0867  0.2246 -0.0269
15909W        W36189  15.456   7.920   3.123 -0.1242 -0.1174 -0.1316
15910W        W36190   2.002  13.815  12.477 -0.0885 -0.1503  0.0466
15911W        W36191   9.077   8.298  11.851 -0.0505 -0.1124 -0.0197
15912W        W36192   4.946   6.686   3.588  0.0059 -0.0364  0.1565
15913W        W36193  17.229  16.965   3.470  0.1175 -0.0018 -0.1094
15914W        W36194  12.299   2.060   1.997  0.2990  0.0996 -0.0178
15915W        W36195  15.420  10.475   2.021 -0.0479 -0.0403  0.0010
15916W        W36196   1.432  17.782   1.637 -0.3904  0.2609 -0.0927
15917W        W36197   4.275  14.908  15.361  0.1044  0.1888 -0.1676
15918W        W36198   5.265   2.740  13.656  0.1195  0.2459  0.3174
15919W        W36199  15.280   7.371   0.270 -0.0270 -0.0489 -0.0995
15920W        W36200   5.646   9.885  12.160 -0.2204 -0.0768  0.1553
15921W        W36201   5.506   1.550  12.547 -0.0851 -0.3169 -0.3653
15922W        W36202   7.286   2.710   2.267  0.0764  0.0989 -0.1134
15923W        W36203   8.579   2.911  11.506 -0.1341  0.1598  0.1668
15924W        W36204  12.480   8.687  12.939  0.0878 -0.0902  0.4021
15925W        W36205  15.789   3.595  14.187  0.2367 -0.4223  0.0446
15926W        W36206   0.868   5.027  11.663 -0.0197 -0.1104  0.0895
15927W        W36207  15.022  14.347  11.167  0.3173  0.2032 -0.2671
15928W        W36208  10.213  13.726   3.659  0.5075  0.0236 -0.0903
15929W        W36209  17.889  10.985  13.360 -0.0537 -0.2836  0.1440
15930W        W36210   6.203  11.829   1.336  0.0111  0.0277  0.0512
15931W        W36211  12.909  13.705   5.838  0.1443  0.1532  0.1596
15932W        W36212   6.562   7.381   0.069  0.4870 -0.1007 -0.2800
15933W        W36213  13.315  17.077  14.895 -0.2529  0.0463  0.2712
15934W        W36214   0.729   8.031  13.591  0.1830  0.0223  0.1736
15935W        W36215   4.606   6.624   3.113 -0.2649 -0.0666  0.1085
15936W        W36216   5.836   4.221   0.956 -0.1280  0.3021 -0.0169
15937W        W36217  11.099   4.425   0.987  0.3463  0.1323 -0.0213
15938W        W36218  17.473   4.667   2.318  0.1760 -0.3531 -0.0199
15939W        W36219   8.881  10.941   2.940 -0.0637  0.2296 -0.0060
15940W        W36220   4.558  10.353   1.856 -0.0256 -0.0063 -0.1729
15941W        W36221   6.048  18.355  14.580 -0.0938  0.1779  0.0169
15942W        W36222  14.919   6.448   4.427  0.1836 -0.1645 -0.1382
15943W        W36223   3.485   2.551  11.472 -0.2764 -0.0634  0.0926
15944W        W36224   5.231   3.390  11.499  0.0177  0.4675  0.4483
15945W        W36225   1.709  13.652   4.662  0.0320  0.2416  0.1401
15946W        W36226   7.735   7.441   0.451 -0.2439  0.0860  0.1175
15947W        W36227   5.748   5.743  12.605 -0.0241 -0.3133  0.1519
15948W        W36228  14.187   6.869   3.823  0.0257  0.2184 -0.0877
15949W        W36229  12.470   2.348  12.391  0.2920  0.4061 -0.0473
15950W        W36230  17.821  12.648   1.032 -0.0470  0.1234  0.0759
15951W        W36231   1.606   2.279  14.282  0.0981 -0.0236 -0.1758
15952W        W36232   5.138  17.744   5.021  0.3820  0.0329 -0.2190
15953W        W36233  18.678  14.661  14.558  0.0589  0.0437 -0.3576
15954W        W36234  15.548   5.158   5.220  0.0169  0.0214  0.1735
15955W        W36235  12.935   5.195   3.705 -0.1485  0.2183 -0.1967
15956W        W36236   6.604   9.358  13.868 -0.0568 -0.0377  0.0290
15957W        W36237  16.018   8.164   2.523 -0.0249 -0.1388  0.2401
15958W        W36238   1.162  16.873   3.003  0.1133 -0.1627  0.0083
15959W        W36239   0.947   7.683  11.756  0.1637  0.1707  0.1697
15960W        W36240  12.076  15.614  13.647 -0.2907 -0.0223 -0.1380
15961W        W36241   6.977  16.033   2.104  0.1515  0.2493  0.2391
15962W        W36242  15.666  15.976   2.015 -0.0818  0.1039  0.0644
15963W        W36243  17.320   4.519   1.299 -0.0602 -0.0510 -0.0784
15964W        W36244  10.685   6.004  13.004  0.1436 -0.0396  0.1629
15965W        W36245   9.300   1.862   2.185  0.1617  0.0612  0.1080
15966W        W36246  15.429  10.084  11.543  0.0728 -0.3133  0.1613
15967W        W36247  12.161   3.798   2.516 -0.0932 -0.0733  0.3196
15968W        W36248   0.920  17.944  12.066 -0.2271 -0.2123 -0.1451
15969W        W36249  12.630   1.760   0.529 -0.0847 -0.0874 -0.1248
15970W        W36250   1.762  17.056   4.303  0.1568  0.3374  0.0074
15971W        W36251   2.383  17.228  15.030 -0.0252 -0.1945  0.2413
15972W        W36252   8.487   5.522   3.337 -0.2922  0.1455  0.0928
15973W        W36253   5.649   7.794  12.578  0.1420 -0.0723  0.2071
15974W        W36254   5.257   9.941   9.725  0.1805  0.1777 -0.2712
15975W        W36255   8.550  12.658   3.262  0.1611  0.1244  0.0744
15976W        W36256   2.808   9.244  12.325  0.1567 -0.1679  0.1187
15977W        W36257   4.094  12.745  12.281 -0.0405  0.0265 -0.0572
15978W        W36258  11.044  15.432   2.207  0.1893  0.1284  0.0761
15979W        W36259  18.162  15.020  12.985 -0.0333 -0.2160  0.2356
15980W        W36260  10.323  11.296  12.455  0.0558  0.0090  0.0121
15981W        W36261  12.748  10.122  13.637 -0.0655  0.1191 -0.2628
15982W        W36262   4.316   9.121  13.776 -0.0648 -0.1133 -0.1075
15983W        W36263   0.788   6.077   4.212 -0.4449  0.2168  0.1674
15984W        W36264   7.692   1.362  13.396 -0.1783  0.0075  0.0831
15985W        W36265   3.914   0.600   9.671 -0.0071 -0.3320 -0.1727
15986W        W36266   2.356   0.419  11.777 -0.0184  0.1807 -0.2986
15987W        W36267   9.528  10.448   5.544  0.1529 -0.2867 -0.2138
15988W        W36268  13.127  15.404   1.094 -0.0327 -0.3619 -0.1049
15989W        W36269   3.432  17.133   3.680  0.0142 -0.3520  0.0223
15990W        W36270   0.419   6.955   4.276 -0.2114  0.2628 -0.2462
15991W        W36271  14.593   7.720   1.146 -0.2160  0.0819  0.0970
15992W        W36272  16.749   0.888  15.040  0.1627 -0.0410 -0.0553
15993W        W36273  15.529  15.350   2.765 -0.2542  0.1158  0.0757
15994W        W36274   3.503   5.440   2.047 -0.0843 -0.0123 -0.1170
15995W        W36275  18.161  11.881   4.428  0.2917  0.1610 -0.1573
15996W        W36276  12.363  10.884  13.066 -0.0236  0.0661 -0.1581
15997W        W36277  13.676  14.856   1.829  0.2616  0.0186 -0.0832
15998W        W36278   7.322   2.494  13.196  0.0295 -0.0095 -0.3231
15999W        W36279  11.456   5.400  11.543 -0.3744 -0.0299 -0.2531
16000W        W36280   3.809  17.079   2.167 -0.0613 -0.1175 -0.1768
16001W        W36281   0.651   4.834  13.912  0.0245 -0.2508 -0.0557
16002W        W36282  15.162  13.783   2.660  0.2739  0.1241 -0.0317
16003W        W36283   8.215   5.173   2.317 -0.2473 -0.0735 -0.2773
16004W        W36284   4.757   2.869   0.046  0.1105  0.1003 -0.0326
16005W        W36285   3.381  17.798  11.832  0.1295 -0.0384 -0.2788
16006W        W36286  12.291  15.465  15.337  0.1232 -0.0687  0.0027
16007W        W36287   0.849  14.806  14.370  0.0234  0.2040  0.2184
16008W        W36288   1.812  15.342  12.060 -0.2189  0.0258  0.3777
16009W        W36289   7.528  18.669  13.651  0.2246  0.0323 -0.2026
16010W        W36290  12.122   4.658  14.297  0.1478  0.4510  0.0901
16011W        W36291  16.121  15.350   3.860 -0.0020 -0.1226 -0.1606
16012W        W36292   4.799  13.916   3.755  0.0643 -0.0721  0.1771
16013W        W36293  12.260  11.989   0.207  0.0172  0.0286 -0.2104
16014W        W36294   9.217   6.596  12.602  0.0657 -0.0079  0.1782
16015W        W36295   1.602  17.770   2.796  0.0834  0.1601 -0.0087
16016W        W36296  12.179  18.450   1.978 -0.2115 -0.0356 -0.1982
16017W        W36297   2.387  15.728   3.556 -0.0678  0.0966 -0.0120
16018W        W36298   8.016  10.608  13.890 -0.2698 -0.2797 -0.0773
16019W        W36299   5.596  18.699   0.680 -0.0693 -0.0301  0.0408
16020W        W36300  15.371  12.777   2.512  0.0560  0.0712  0.0973
16021W        W36301   3.946   3.660   3.170 -0.1607  0.2530  0.0383
16022W        W36302  17.333   8.628  14.144 -0.1894  0.0807 -0.2539
16023W        W36303   9.150   1.080  12.791  0.0192 -0.3106  0.0031
16024W        W36304   9.904  18.062   2.011 -0.0492 -0.1245 -0.0430
16025W        W36305   0.827   4.250   3.195  0.1485  0.1825  0.2591
16026W        W36306  18.262   7.388   0.246  0.3658  0.0196  0.3835
16027W        W36307   1.459   4.106  15.053 -0.1069  0.0534 -0.0441
16028W        W36308   7.261   7.450   0.341 -0.4707  0.0409 -0.0460
16029W        W36309   8.204  10.534   3.429  0.4340 -0.1532  0.2982
16030W        W36310   7.634   8.647  15.031  0.0814  0.3513  0.3120
16031W        W36311   3.155  11.021  12.973  0.0643 -0.1892 -0.1286
16032W        W36312   7.409  16.282   1.238 -0.1955  0.1343  0.3639
16033W        W36313   9.266  16.663   1.010  0.0540 -0.0068  0.0161
16034W        W36314  16.813   8.151   1.957  0.0175 -0.1609 -0.1592
16035W        W36315   8.373   3.523   0.837 -0.0437  0.1109 -0.1225
16036W        W36316  11.003  12.895  13.870  0.3627  0.2493  0.1878
16037W        W36317  12.303   5.278  13.551 -0.1974  0.2437 -0.1186
16038W        W36318   6.058   6.601  12.253  0.1037  0.1484 -0.0533
16039W        W36319  13.100  11.539  12.281 -0.0822  0.1179 -0.1244
16040W        W36320   0.659   2.676   0.304  0.1952 -0.4537  0.0317
16041W        W36321   7.085   1.605  11.694  0.2431  0.4014 -0.2010
16042W        W36322   6.106  11.372   1.201  0.0264  0.1259  0.0315
16043W        W36323   7.414  17.590  15.087  0.2990 -0.2523 -0.0545
16044W        W36324  15.021  12.155  12.462  0.0984 -0.0856  0.0201
16045W        W36325   6.325   9.873   2.825  0.0142  0.1908 -0.0261
16046W        W36326  10.249  16.687   1.969  0.0813  0.1617 -0.1398
16047W        W36327   4.228   1.619   4.349  0.0065 -0.1895  0.3062
16048W        W36328  12.625  12.350   5.218 -0.0969 -0.1118 -0.0581
16049W        W36329  14.597   2.783  11.824 -0.0389  0.0661 -0.2045
16050W        W36330  11.860   7.290   4.560 -0.0472 -0.1929 -0.0225
16051W        W36331   7.553  15.453   3.827  0.0560  0.0996  0.0165
16052W        W36332  10.362  12.237   0.136 -0.1200 -0.0501  0.3089
16053W        W36333  15.532  12.181   0.638 -0.0135 -0.0164 -0.0385
16054W        W36334   9.754   5.786  11.999  0.0746  0.2056 -0.4013
16055W        W36335  16.716   9.334  13.019  0.0853  0.1666  0.2071
16056W        W36336   0.624  17.652   0.801 -0.3303 -0.1445  0.0311
16057W        W36337  17.713  17.451  14.056 -0.1900  0.0525 -0.0572
16058W        W36338   5.393  13.667  13.682  0.1162 -0.0553 -0.2378
16059W        W36339  17.841  17.040  11.731  0.2034  0.1128 -0.0259
16060W        W36340   7.039  14.395   1.890  0.1425 -0.0795  0.2064
16061W        W36341  18.237  16.420  13.182  0.0761  0.0863  0.3858
16062W        W36342   6.066  13.249  14.149  0.1504  0.2782 -0.1065
16063W        W36343   0.487   3.864   3.433  0.0521  0.0864 -0.1788
16064W        W36344  10.650  18.493   3.585 -0.3269 -0.1920 -0.1601
16065W        W36345  10.454   4.993  12.067  0.0360 -0.0436 -0.1739
16066W        W36346  15.245   0.145  12.132  0.2398  0.0195  0.2072
16067W        W36347   8.664   2.874   0.953  0.0426  0.2884  0.1720
16068W        W36348  14.643  16.371   1.112 -0.3030 -0.2344  0.1234
16069W        W36349  16.543  12.121   1.177  0.1516  0.0092  0.0982
16070W        W36350   7.103  11.339  13.091  0.0725  0.0023  0.0160
16071W        W36351  16.198  13.482  11.491 -0.1834 -0.0355  0.0308
16072W        W36352   6.779  16.148   2.864 -0.2935  0.0125 -0.0643
16073W        W36353  12.361   4.909  11.613  0.1427 -0.1491 -0.1405
16074W        W36354  16.759  16.504  11.544 -0.1975  0.0974 -0.0904
16075W        W36355  11.172  15.785  14.774  0.0415 -0.2762  0.2030
16076W        W36356   1.079   3.812  12.257  0.2407  0.0704 -0.0378
16077W        W36357   4.985  17.272   3.781 -0.0411  0.1989  0.0393
16078W        W36358   0.222  17.685  14.658 -0.0824  0.1022  0.0569
16079W        W36359   6.839   2.681  11.030  0.0008  0.1990  0.0000
16080W        W36360  10.206  16.672   0.129  0.1791  0.0632  0.2346
16081W        W36361  12.272  17.021  15.147  0.0144 -0.0446  0.3015
16082W        W36362  18.334   4.081  13.729  0.1011  0.3396  0.0376
16083W        W36363   1.026  11.737  12.843 -0.1688 -0.0598 -0.2816
16084W        W36364   2.743  10.118  13.940  0.0147 -0.2260 -0.2265
16085W        W36365  12.391  16.313   1.678  0.0130  0.2233  0.0085
16086W        W36366  18.516   8.987   2.338  0.0682 -0.1140 -0.0247
16087W        W36367  15.900   8.784   4.534  0.0578 -0.0186 -0.0045
16088W        W36368   7.674   3.442   1.946 -0.2426  0.1311  0.2398
16089W        W36369   6.187   6.901   1.171  0.1489  0.2629 -0.0633
16090W        W36370  10.795   0.258  13.197 -0.0369 -0.0514  0.1084
16091W        W36371   0.549  10.961  13.075  0.0943 -0.1488  0.3092
16092W        W36372  18.452   4.435   0.276  0.0242 -0.2895 -0.0680
16093W        W36373   8.351   6.000   3.213  0.0256  0.0287 -0.0082
16094W        W36374  11.534  12.727  11.479  0.2904 -0.0872 -0.0606
16095W        W36375  12.917   2.712  14.678  0.1531  0.3699  0.1671
16096W        W36376  15.915   5.296  14.126  0.0971  0.1831  0.0228
16097W        W36377  13.770   5.545  15.365  0.1362 -0.0590  0.2399
16098W        W36378  15.839  15.891   1.149  0.4222 -0.2084 -0.2952
16099W        W36379   0.519  16.666   1.923 -0.1152 -0.4980  0.0742
16100W        W36380  10.626  17.390   0.615  0.2468 -0.3060 -0.1849
16101W        W36381   7.249   1.687   1.634  0.0362  0.0038  0.2999
16102W        W36382  18.667  17.241   2.742 -0.0519 -0.2867 -0.4153
16103W        W36383  16.410  12.035   4.625  0.0548  0.1139 -0.2268
16104W        W36384  16.598   9.571  12.517  0.1889 -0.0406  0.2015
16105W        W36385   5.786   3.434  14.816 -0.0869  0.0307 -0.0070
16106W        W36386   9.398  14.086  11.363 -0.1273  0.0278 -0.1215
16107W        W36387   7.974  17.211  12.415 -0.1148  0.1761  0.0088
16108W        W36388  15.553   2.280   4.844 -0.0326  0.1188  0.1398
16109W        W36389   0.284  18.495   4.835 -0.0623  0.1442 -0.1706
16110W        W36390  12.478  16.305   3.512 -0.1233  0.1437  0.1584
16111W        W36391   6.624   9.498  14.358  0.0037 -0.0247 -0.3181
16112W        W36392  13.518  18.503  12.549  0.1218  0.0361  0.2501
16113W        W36393   9.063   8.142  14.146 -0.0813 -0.0257 -0.0568
16114W        W36394   9.018   1.082   3.183 -0.0519 -0.1111 -0.0452
16115W        W36395  11.005  10.332  11.472  0.1467 -0.1487  0.1785
16116W        W36396   7.056   7.926  14.744  0.4068  0.0608 -0.0105
16117W        W36397  13.322  17.583  14.602 -0.2362 -0.1385  0.1898
16118W        W36398   5.071   1.010  11.803  0.2436 -0.2208 -0.0763
16119W        W36399   0.779   3.422  13.197 -0.1147  0.2021  0.2419
16120W        W36400   8.995   0.876  11.466  0.0605 -0.0346  0.1439
16121W        W36401  10.975   8.932   1.809 -0.0065  0.4446  0.0928
16122W        W36402  15.826   1.913   4.575 -0.1360  0.2806  0.1684
16123W        W36403  15.152  13.437  14.198  0.1423 -0.0958  0.2163
16124W        W36404   3.471  13.446  11.941  0.2040 -0.1517  0.2790
16125W        W36405  11.483   7.111  11.965  0.1399 -0.0653  0.0310
16126W        W36406  11.416  12.549   2.761  0.1274 -0.0500  0.0986
16127W        W36407  10.785  13.092  12.824 -0.4110  0.0551  0.2769
16128W        W36408   8.010   6.731  14.543  0.0217 -0.0770 -0.0570
16129W        W36409  12.408  18.557   2.975  0.0277  0.0873  0.1495
16130W        W36410  12.443   8.238  13.220  0.4048 -0.0098 -0.0884
16131W        W36411   7.183   0.723  12.747  0.1484 -0.2640 -0.0445
16132W        W36412  14.693   0.067  11.922 -0.1706 -0.0220 -0.2031
16133W        W36413   6.678   9.634   4.130  0.0595  0.5022 -0.0843
16134W        W36414  12.075  18.479  11.910 -0.4630  0.0421  0.2882
16135W        W36415   4.344   0.824  14.646 -0.1794  0.0860 -0.0360
16136W        W36416  15.084   3.223   4.254 -0.1563  0.2331  0.1098
16137W        W36417   2.181   9.813  13.859  0.0448 -0.1739 -0.0318
16138W        W36418   9.068   7.173  11.652 -0.1806 -0.2152 -0.1097
16139W        W36419   1.221  17.006  12.773  0.1610  0.0828 -0.4549
16140W        W36420   7.824   2.950  10.856 -0.3785 -0.1696  0.0371
16141W        W36421  17.186  13.479   4.567 -0.1517  0.1367 -0.3024
16142W        W36422   2.976  15.115   3.113  0.1498 -0.3380  0.0679
16143W        W36423   3.739  10.762   0.475 -0.2723 -0.2527  0.1962
16144W        W36424  15.871  13.864  11.508  0.5593  0.1160  0.0035
16145W        W36425  11.558   9.457  14.105 -0.1108  0.0693 -0.0515
16146W        W36426   2.093  17.252   1.737 -0.4000 -0.0080  0.0512
16147W        W36427  15.608   1.773   4.060 -0.0188  0.2385  0.2966
16148W        W36428   7.769  16.529   1.687  0.1887  0.1631  0.4446
16149W        W36429   0.507  18.676   2.914 -0.1652 -0.0044 -0.0817
16150W        W36430   8.045  16.934   0.063  0.2023 -0.5029 -0.2202
16151W        W36431  10.046   8.978   1.957  0.0060 -0.1068  0.1457
16152W        W36432  17.666  15.190  12.921 -0.0314 -0.1040 -0.0178
16153W        W36433  12.781   3.983   2.861 -0.0230 -0.1625 -0.1582
16154W        W36434  12.323   6.536  14.436  0.0859  0.1194  0.2694
16155W        W36435   3.495   4.524  14.633  0.0814 -0.0645  0.0608
16156W        W36436  12.857  11.060   3.425  0.0724  0.1846 -0.1916
16157W        W36437  16.723   8.849  15.197  0.2220  0.1004 -0.4903
16158W        W36438   8.617   3.136  12.847 -0.0154 -0.0468 -0.0934
16159W        W36439  18.240   9.628   4.347 -0.3703 -0.1762 -0.0782
16160W        W36440  17.339  17.521   0.691 -0.0037 -0.1325  0.0325
16161W        W36441   9.217  12.943  11.184 -0.1017  0.0837  0.2908
16162W        W36442  10.004  10.930   0.072  0.0218  0.1188 -0.0839
16163W        W36443   9.380   5.067  14.538  0.1269  0.0869  0.0483
16164W        W36444  11.886   9.578  11.541 -0.1517  0.1708 -0.0021
16165W        W36445   4.680   2.184  14.844 -0.1804 -0.0513  0.1409
16166W        W36446  16.147  12.082   1.592  0.2020 -0.0434 -0.1083
16167W        W36447  13.422   8.988  15.164 -0.0565 -0.1148 -0.0837
16168W        W36448  12.138  17.576  11.813 -0.1335  0.0782  0.4319
16169W        W36449   1.521   5.272   2.419 -0.0725  0.3460 -0.0948
16170W        W36450   0.377  13.442  14.694 -0.1474 -0.2424  0.0969
16171W        W36451   7.765  17.978  11.899  0.0477  0.2694 -0.0736
16172W        W36452  11.379  18.524  13.889  0.2233  0.1104  0.1313
16173W        W36453  13.453  14.956   1.402  0.0494  0.1210  0.0017
16174W        W36454  10.688  15.785  12.729 -0.1200  0.0334 -0.0226
16175W        W36455  11.674   7.743  14.972  0.2173 -0.1729 -0.0737
16176W        W36456  16.561   1.393  14.079  0.2065 -0.0809  0.0638
16177W        W36457  15.961   4.380  14.525 -0.1890  0.1226 -0.1204
16178W        W36458   3.992  15.813  12.446  0.2042 -0.1086 -0.1398
16179W        W36459  13.460  12.291  10.227 -0.0659 -0.1585  0.2074
16180W        W36460  11.337   0.185   3.058 -0.0853  0.0620  0.0811
16181W        W36461  18.340   6.717   0.683 -0.0716  0.1988 -0.1392
16182W        W36462  14.738   9.695   4.522  0.1347 -0.0488  0.0066
16183W        W36463   8.333  11.378   3.813  0.0847  0.2853  0.2437
16184W        W36464  12.260   6.787   0.659  0.0531  0.0891 -0.1489
16185W        W36465  17.695  17.548   2.928  0.1169  0.1695  0.2161
16186W        W36466   3.893   8.233   2.258 -0.1141 -0.0893 -0.0766
16187W        W36467  13.752  11.353  13.877  0.3935 -0.2700  0.3031
16188W        W36468   5.630   9.012   3.409 -0.0290  0.2005 -0.0606
16189W        W36469   9.217   4.036   2.417  0.2729  0.1432  0.2734
16190W        W36470   8.186  10.684  11.987  0.2468 -0.1095 -0.1852
16191W        W36471  17.648   4.125  11.484 -0.0239  0.0093 -0.4400
16192W        W36472   1.026   2.316  14.223  0.2093  0.3621  0.0360
16193W        W36473  15.407  16.892   0.949 -0.0878  0.0637  0.1305
16194W        W36474  15.230  12.878   4.261 -0.0638 -0.1182 -0.1356
16195W        W36475   6.296   1.883   1.413  0.2183  0.1345 -0.1952
16196W        W36476  17.316  17.491  11.962 -0.0888  0.0523  0.0660
16197W        W36477  15.735   9.369  14.348  0.2341 -0.1957  0.0242
16198W        W36478  12.513   0.068   2.558  0.0627 -0.0928  0.1050
16199W        W36479   1.894  11.697   1.391 -0.1948 -0.1083  0.2270
16200W        W36480  13.785  16.829   5.712  0.1144  0.1506  0.0429
16201W        W36481  15.133   5.423  11.923  0.3615  0.3260  0.0288
16202W        W36482  18.729  13.681   5.447 -0.4585  0.1520 -0.0612
16203W        W36483   1.525  13.814   0.484  0.0851 -0.1196 -0.0261
16204W        W36484  10.146  13.987   3.186 -0.1743  0.3052  0.2752
16205W        W36485   0.943   2.111  15.073  0.2766 -0.4554 -0.1155
16206W        W36486   1.956   0.301  14.872  0.1527  0.2162 -0.1640
16207W        W36487  16.030  14.259   3.559  0.0515  0.1183 -0.3721
16208W        W36488  12.219   0.985   1.027  0.0534  0.0941  0.0312
16209W        W36489   4.474   7.629   0.813  0.6196  0.2405  0.0827
16210W        W36490  10.049  10.817   0.640 -0.0418 -0.3188  0.0809
16211W        W36491  12.062  15.849  12.465 -0.2061 -0.3475 -0.2637
16212W        W36492   7.482   0.074   1.198  0.0628 -0.1107  0.1435
16213W        W36493   6.174  15.799  12.827 -0.1363 -0.0479  0.1765
16214W        W36494   4.293  17.876   0.472  0.1129 -0.0809 -0.3335
16215W        W36495   5.221  16.512   3.260  0.0984  0.0424  0.1623
16216W        W36496   8.624   3.641  13.060  0.2374 -0.0817  0.1160
16217W        W36497   2.702  15.561  11.001  0.0840  0.1403 -0.1741
16218W        W36498   4.185  15.087  11.086  0.2414  0.0951  0.0434
16219W        W36499   4.643   9.712   3.650  0.1289  0.1655  0.1020
16220W        W36500  16.740   4.866  13.179 -0.0044 -0.2524  0.2199
16221W        W36501  12.013  10.514  12.928  0.1015 -0.0580 -0.0599
16222W        W36502   2.046   0.700   2.966  0.3421  0.1154 -0.5695
16223W        W36503  14.888   8.536   3.053 -0.2073  0.0655 -0.1325
16224W        W36504  12.508  16.387  11.144  0.2884 -0.1516 -0.1472
16225W        W36505   3.905   3.134  14.373  0.1427  0.1129 -0.1113
16226W        W36506   0.881  16.581  13.421 -0.2280 -0.0448  0.1926
16227W        W36507  11.717  18.242   3.643 -0.2009 -0.1465 -0.0002
16228W        W36508  16.865  14.821   0.067  0.1325 -0.1160 -0.3351
16229W        W36509   2.614  11.661   1.067 -0.1917  0.1499 -0.1035
16230W        W36510   9.539   4.402   2.253 -0.4196  0.0839  0.1135
16231W        W36511  12.500  18.405  14.849  0.0072  0.1539  0.1588
16232W        W36512  17.677   0.633  11.592  0.0386  0.1501  0.2804
16233W        W36513  14.475   3.072   0.268  0.1350  0.0059 -0.3414
16234W        W36514   4.360   3.469  15.079  0.0470  0.1059  0.0457
16235W        W36515   4.939   3.195  14.546 -0.0099  0.2800 -0.0272
16236W        W36516  16.520   8.292   3.256  0.0513  0.2527  0.3637
16237W        W36517   2.427  12.968  12.604  0.2543  0.0535  0.3110
16238W        W36518   7.664  12.277  11.384  0.0621 -0.1315  0.0214
16239W        W36519   6.382  16.855  10.597  0.1479 -0.1201  0.1211
16240W        W36520  13.932   7.693   5.826 -0.3912 -0.0127 -0.0654
16241W        W36521   7.309  18.022   9.995 -0.1980 -0.2169  0.3539
16242W        W36522   7.537   7.874   0.435 -0.0362 -0.2574 -0.0372
16243W        W36523  10.457   8.727  12.356 -0.0811 -0.2244  0.1305
16244W        W36524  13.017   2.411  13.862 -0.1230  0.0983 -0.1359
16245W        W36525   9.562  10.633   2.353 -0.5234  0.0731 -0.2255
16246W        W36526   3.840   3.731   2.255 -0.3408 -0.0448  0.0652
16247W        W36527   8.920   1.802  11.190  0.1047  0.3837  0.0845
16248W        W36528   9.907   2.602  14.751  0.1806  0.1556  0.0014
16249W        W36529  18.473  15.863   2.652  0.2112 -0.3371 -0.2067
16250W        W36530   9.215   9.963   4.128  0.0540 -0.2793  0.3136
16251W        W36531   0.329  16.135   1.625  0.2530 -0.1695 -0.0634
16252W        W36532  14.611   7.170   3.850  0.0270  0.3069  0.1087
16253W        W36533  11.770  15.061  12.923 -0.2498  0.1474  0.1947
16254W        W36534  16.837   7.032   2.870  0.0009  0.2940  0.0283
16255W        W36535   2.397   6.854   0.191  0.2823  0.2063 -0.1178
16256W        W36536  16.629  17.703   0.145 -0.0228 -0.2049  0.2889
16257W        W36537  12.355   0.211   1.991 -0.1858 -0.1320  0.3170
16258W        W36538   0.425   8.606  12.723 -0.1893  0.3744  0.0640
16259W        W36539   1.761   9.432   3.413 -0.3902 -0.0212  0.2375
16260W        W36540  15.441  13.833  13.380  0.2786  0.2377 -0.0758
16261W        W36541   2.471  14.082   4.131 -0.1937 -0.0479 -0.0641
16262W        W36542  11.969   5.422  13.096  0.0795 -0.0186  0.1453
16263W        W36543   7.990   7.167  13.784  0.3787 -0.0096  0.0327
16264W        W36544   3.266   5.964   1.401  0.1201 -0.2460 -0.1773
16265W        W36545   1.055   3.475   1.496  0.1180  0.3588 -0.0114
16266W        W36546   0.848   9.706  15.306  0.0971 -0.0473  0.1310
16267W        W36547  12.184   4.088  13.689  0.1942 -0.0994 -0.3503
16268W        W36548  15.478  12.193   2.395  0.0935 -0.1077 -0.1670
16269W        W36549  18.231   3.248   0.898 -0.1660 -0.3330 -0.1549
16270W        W36550   3.443  18.364  10.895  0.0951 -0.3700 -0.0587
16271W        W36551   4.869   6.140  12.543  0.1977  0.2266 -0.0796
16272W        W36552   4.485  16.101  10.878 -0.0753  0.0033  0.1206
16273W        W36553   9.968  12.077  13.056 -0.2157 -0.2209  0.0759
16274W        W36554  13.469   3.681  13.737  0.0423  0.0452  0.1695
16275W        W36555  15.222  15.776  14.314  0.2147 -0.1314 -0.3618
16276W        W36556   8.781  11.735  15.366 -0.3167  0.6529 -0.0580
16277W        W36557  18.536  17.763  13.822 -0.0555  0.0636 -0.1069
16278W        W36558   9.042  15.632   0.477 -0.0318  0.4963 -0.0581
16279W        W36559  12.136   9.135  15.012 -0.0766 -0.2275  0.1898
16280W        W36560   5.805   2.092  15.184 -0.1585 -0.0818 -0.3526
16281W        W36561  13.122   3.590   2.348 -0.1850 -0.2194  0.0175
16282W        W36562   1.186   0.049  14.679  0.0857  0.1757  0.0508
16283W        W36563  17.026  15.778   4.176 -0.0405  0.4390 -0.1853
16284W        W36564   7.742   6.766   4.034 -0.1807 -0.1488 -0.2747
16285W        W36565  14.814   9.657  12.105 -0.0666 -0.0811 -0.1342
16286W        W36566   1.051  13.492  14.985  0.0861  0.4229  0.1858
16287W        W36567  16.302  16.982   1.203 -0.0722  0.0621  0.0351
16288W        W36568   7.979   8.512   2.136 -0.1917 -0.2176 -0.0929
16289W        W36569   0.071   4.904  14.035 -0.1156  0.0562 -0.1863
16290W        W36570  15.744   0.932   2.415  0.1977 -0.1455  0.3678
16291W        W36571   3.568   1.740   1.357  0.0975  0.3525 -0.2743
16292W        W36572   3.222   9.564  12.375  0.0928  0.2385  0.4650
16293W        W36573   6.967   5.747   1.965  0.1096  0.1559 -0.0609
16294W        W36574   1.795  12.894  14.059 -0.2166 -0.0249  0.1555
16295W        W36575   7.643  16.932   3.721 -0.1262 -0.1752 -0.2403
16296W        W36576   3.032  18.017   1.246 -0.2308  0.0076 -0.1667
16297W        W36577   6.429  11.228  12.056 -0.0881 -0.1086 -0.1879
16298W        W36578  18.183  10.797   2.500 -0.0047 -0.0135  0.2712
16299W        W36579   1.663   8.220   3.289  0.3521 -0.2753  0.2031
16300W        W36580  12.616   6.542   0.917  0.1197 -0.1531  0.0109
16301W        W36581  11.990   0.994   2.285  0.0274  0.0795 -0.1425
16302W        W36582   5.942  13.203   2.017  0.0231 -0.0895 -0.0210
16303W        W36583  11.646  18.152  13.808 -0.0232  0.0605 -0.1035
16304W        W36584  12.131   1.974   1.518  0.1586  0.0965 -0.0489
16305W        W36585   0.527   9.503  12.073 -0.2409 -0.0301 -0.2232
16306W        W36586   1.122  13.227   3.082 -0.1789  0.1863 -0.2491
16307W        W36587   2.378   9.507   0.551 -0.1868  0.2046 -0.2841
16308W        W36588   1.295  11.499   2.080  0.0003 -0.2649 -0.0942
16309W        W36589  17.084   5.556   4.600  0.1802  0.1571 -0.0426
16310W        W36590  10.435  14.352   1.055 -0.0542 -0.0881 -0.0947
16311W        W36591  11.280   5.807   1.372  0.1567 -0.0671 -0.1619
16312W        W36592   1.795   1.893  14.584 -0.3003 -0.2307 -0.3113
16313W        W36593  15.771   3.792  11.002 -0.1213  0.0690  0.1798
16314W        W36594   1.173  15.284  12.899 -0.1339  0.0012 -0.0226
16315W        W36595  13.552  12.508   0.879 -0.1148  0.0711 -0.0345
16316W        W36596  18.367   3.723  15.236  0.3291  0.1043  0.1114
16317W        W36597   8.102   0.973   2.283 -0.0821 -0.1775  0.1776
16318W        W36598   5.011   4.717  12.001 -0.2136  0.2265  0.4151
16319W        W36599  15.892   5.422   3.956  0.0077  0.0310  0.0130
16320W        W36600  16.803   3.596   3.275  0.3465 -0.3543  0.0986
16321W        W36601  15.478   6.709  12.244 -0.2946  0.0079 -0.0678
16322W        W36602  15.639   6.942   2.631  0.3257  0.0966 -0.3494
16323W        W36603   7.859   8.017  14.419 -0.0339 -0.2505 -0.1466
16324W        W36604   0.916  17.750   1.895 -0.3831 -0.3821 -0.0292
16325W        W36605   2.854  17.219   0.868 -0.0982  0.2639 -0.1399
16326W        W36606  10.464  13.662  12.492 -0.2002  0.1254 -0.0420
16327W        W36607  18.197  16.462   0.636  0.1866 -0.7798  0.3341
16328W        W36608   3.039   6.864  11.540  0.1678 -0.2690 -0.0481
16329W        W36609  17.224   2.376  11.046  0.0158 -0.0420  0.1709
16330W        W36610  15.378   6.979  13.038 -0.1600 -0.2424  0.1408
16331W        W36611  13.078   6.104  15.307 -0.1398  0.0105 -0.2756
16332W        W36612  17.367  15.678  15.151 -0.2065 -0.2165  0.0647
16333W        W36613   0.072   0.912  12.350 -0.1673 -0.2474  0.0346
16334W        W36614  11.187  18.545  12.941 -0.1782  0.0040 -0.1876
16335W        W36615   2.325  10.087  14.293  0.0505  0.1186 -0.1609
16336W        W36616  13.313   3.339  14.158  0.0281  0.2031 -0.2597
16337W        W36617  17.912   7.061  14.311  0.2503  0.1813 -0.1330
16338W        W36618   2.939  17.022   1.677  0.1187 -0.3305 -0.2174
16339W        W36619  14.377  11.471   2.637 -0.3386 -0.3037 -0.1521
16340W        W36620  14.261  12.124   1.421 -0.0966 -0.1516 -0.1078
16341W        W36621   4.603  17.257  10.604  0.0184 -0.1572 -0.1604
16342W        W36622  17.458   8.268  12.603 -0.1392 -0.2135 -0.0027
16343W        W36623  12.779  12.037   2.625  0.1136 -0.2448  0.1393
16344W        W36624   9.890   0.913  11.226 -0.0358  0.1249  0.4037
16345W        W36625  13.255   4.460   1.337  0.0276 -0.1930  0.0966
16346W        W36626  12.985  18.054  11.899  0.1462 -0.4114 -0.2157
16347W        W36627   2.282   7.194   0.527 -0.0816  0.1445 -0.2356
16348W        W36628  15.729  12.367  13.586 -0.1007  0.0383  0.0792
16349W        W36629   9.919  12.286  15.304 -0.0626 -0.0999  0.1674
16350W        W36630  13.917   8.325  12.135  0.1170  0.0144  0.0646
16351W        W36631  15.056  13.704   0.500 -0.0971 -0.0968  0.0840
16352W        W36632   4.908   6.495  11.063 -0.0290  0.1589  0.2279
16353W        W36633   4.475  13.730  14.056 -0.1825  0.1434 -0.1969
16354W        W36634   5.390   1.587  11.094  0.2259  0.0848  0.1318
16355W        W36635  16.517   2.873   3.946  0.0367 -0.1113  0.1719
16356W        W36636   8.305  15.462  13.688 -0.0063  0.0288  0.1199
16357W        W36637  14.089  14.102  13.544 -0.1069 -0.0199  0.1629
16358W        W36638  17.696   0.288   3.165 -0.1812  0.2919 -0.0706
16359W        W36639   8.389   5.412   1.035  0.2984 -0.0556 -0.3186
16360W        W36640  11.374  16.602  14.115  0.1739  0.0531 -0.2175
16361W        W36641  16.575   9.904   1.503 -0.1619 -0.1528  0.1002
16362W        W36642   6.439  14.090   0.257  0.1832 -0.2838  0.4566
16363W        W36643  17.676  13.134   0.905 -0.0150 -0.3829  0.1173
16364W        W36644   7.059  16.964  12.535 -0.0794 -0.2813 -0.0667
16365W        W36645   8.737  15.218  14.561  0.0719 -0.0563  0.1422
16366W        W36646   1.232  10.792  11.882 -0.1070  0.3393  0.3136
16367W        W36647   4.169   1.510   1.559  0.1498 -0.0225 -0.2587
16368W        W36648   1.185  11.790   3.174 -0.4639  0.4351 -0.1063
16369W        W36649  16.503  16.381  11.958  0.0922  0.3393  0.0002
16370W        W36650  14.108   0.803  11.565 -0.3445  0.2267 -0.2821
16371W        W36651   8.017  17.065   1.759 -0.1678  0.2862  0.1429
16372W        W36652   8.394  13.172   2.505 -0.1191 -0.0016  0.3981
16373W        W36653   5.195  11.368  11.041 -0.3714 -0.3316  0.0572
16374W        W36654  18.050  18.064   1.732 -0.1178  0.1380 -0.1671
16375W        W36655  16.389  14.395  12.620  0.1762 -0.1740  0.0180
16376W        W36656   2.385  17.616  12.759 -0.0744 -0.2513 -0.2658
16377W        W36657   5.863  14.071   3.822 -0.2827  0.1422  0.2719
16378W        W36658  10.208  11.471  11.196  0.0121  0.0877  0.0005
16379W        W36659   2.465  11.269   0.708 -0.0582 -0.0192  0.1550
16380W        W36660   1.587   5.746   2.385  0.2029 -0.1127 -0.0032
16381W        W36661  16.035  11.324   3.803 -0.1709 -0.0898 -0.1093
16382W        W36662  15.202   1.000  12.141  0.2497  0.0818 -0.1687
16383W        W36663   3.286  10.545   0.345 -0.0033  0.2049 -0.0815
16384W        W36664   3.790  16.338   3.683  0.2910  0.3793 -0.1233
16385W        W36665  15.541   5.023  13.922 -0.1467 -0.0007  0.1174
16386W        W36666  12.898  15.206   0.733 -0.2093 -0.1412 -0.2230
16387W        W36667  16.857  11.369   2.262  0.2481 -0.0549  0.0875
16388W        W36668   7.324   9.952   1.764 -0.0774 -0.2755  0.1033
16389W        W36669   9.853   8.488   2.020  0.4018 -0.1550  0.0866
16390W        W36670  10.756   7.819   4.474 -0.1669  0.0364 -0.0042
16391W        W36671  16.476   9.461  13.682  0.1095 -0.0113 -0.0212
16392W        W36672  12.947  16.980   4.147 -0.0682  0.0243 -0.3479
16393W        W36673   1.662   6.555  12.036 -0.2071  0.0456 -0.0053
16394W        W36674  15.286  10.429  13.073  0.0647 -0.1309  0.2482
16395W        W36675  16.541  16.862  11.230 -0.0423 -0.2205  0.0198
16396W        W36676   8.677   2.761  13.617 -0.0134  0.3077  0.0122
16397W        W36677  16.912  10.603   1.181  0.0399 -0.1265 -0.0406
16398W        W36678  17.780   7.750  14.983 -0.0899  0.2433 -0.1870
16399W        W36679  13.816  17.259   1.392 -0.1981 -0.0011  0.3035
16400W        W36680  13.688   5.884  12.842  0.2134 -0.2483  0.1026
16401W        W36681   6.214  16.380  11.534 -0.3018  0.0698  0.1636
16402W        W36682   3.620  12.438  15.202 -0.1104 -0.0178 -0.3553
16403W        W36683   5.139  11.593   2.036  0.2281  0.4333  0.4340
16404W        W36684  10.825  17.984   2.333 -0.0478  0.0525 -0.1454
16405W        W36685  18.188  13.152   1.523 -0.0520 -0.0477  0.0987
16406W        W36686   4.496  18.145  11.088 -0.0580 -0.3395  0.0287
16407W        W36687  13.272  12.216   1.437 -0.0756  0.1478 -0.0776
16408W        W36688  15.310  16.690  11.940 -0.2878  0.0865  0.0917
16409W        W36689  16.994  17.243   1.666 -0.0665  0.1670  0.1009
16410W        W36690  12.420   5.547   2.470 -0.1685 -0.1616  0.0670
16411W        W36691   2.362  15.567   0.706  0.0197 -0.1195 -0.0811
16412W        W36692   9.748  16.534   2.713  0.3934 -0.2442  0.1333
16413W        W36693  14.430  16.040  13.979 -0.2855 -0.0667 -0.0007
16414W        W36694  13.991  11.042  15.205 -0.0593 -0.0334  0.0250
16415W        W36695  15.642   0.308   0.904  0.0169 -0.2399 -0.0474
16416W        W36696   2.964  13.275  13.584  0.0219 -0.0105  0.1460
16417W        W36697   2.486   8.831  12.289 -0.3929 -0.4166 -0.0509
16418W        W36698  11.104   2.738   3.826  0.2090 -0.0435 -0.2977
16419W        W36699   2.345   1.833  13.250  0.2129 -0.0133 -0.2548
16420W        W36700   8.351   0.517  11.099 -0.2107  0.4797 -0.0071
16421W        W36701   6.484  15.043   0.718 -0.0628  0.0275 -0.0850
16422W        W36702   2.495   1.406  11.289  0.0378 -0.0662 -0.2177
16423W        W36703  13.919  14.683   1.295 -0.3960 -0.0637  0.0364
16424W        W36704   9.093   1.908  13.249 -0.0270  0.2206 -0.0215
16425W        W36705   9.916   9.468  14.180  0.0622  0.0984 -0.0318
16426W        W36706  17.487   2.493   2.435  0.3253  0.2286  0.1667
16427W        W36707  13.710   1.477  14.695  0.0989  0.0299 -0.0041
16428W        W36708  12.031   8.451  12.365 -0.1906 -0.0547 -0.0901
16429W        W36709   6.649   2.200  15.175 -0.0284 -0.2087  0.2525
16430W        W36710   2.366   4.493  14.998  0.3956 -0.0900  0.0355
16431W        W36711  18.678  12.490   2.173  0.1073  0.1911  0.1591
16432W        W36712  11.129   2.533  12.578 -0.1462 -0.0812 -0.2000
16433W        W36713   4.736  15.903  13.867  0.0630 -0.2713 -0.1873
16434W        W36714   6.487  13.643  13.865 -0.3798  0.0072  0.1724
16435W        W36715  15.907  16.973  11.697 -0.2475 -0.1545 -0.0383
16436W        W36716  16.729   8.884   1.922  0.0764  0.4634  0.2931
16437W        W36717   8.889   5.412  12.532  0.1514 -0.1399  0.1450
16438W        W36718   5.961   0.130   2.647  0.0251  0.2774 -0.0129
16439W        W36719  15.870  14.015   4.017 -0.0453 -0.3668 -0.2599
16440W        W36720   7.660   2.066   2.815  0.0789 -0.2610 -0.1139
16441W        W36721  11.184   3.907   0.836 -0.1577  0.0007  0.1760
16442W        W36722   7.652   1.014   1.038 -0.4413  0.0346  0.4725
16443W        W36723   0.885  11.607   1.743 -0.2369  0.0773  0.1861
16444W        W36724   6.438  10.686  11.293  0.1821 -0.1578  0.3269
16445W        W36725  17.580   3.266  10.971 -0.0859  0.1206  0.5827
16446W        W36726  11.071  14.750  11.524  0.2309 -0.1004 -0.0350
16447W        W36727  18.347   9.739  11.016  0.1955 -0.0271  0.0241
16448W        W36728  15.480   4.634   1.224 -0.1703  0.0410  0.0820
16449W        W36729   8.120   1.107  10.889  0.0858 -0.0618  0.1868
16450W        W36730   8.395   6.395  14.403  0.1043 -0.1363  0.0131
16451W        W36731  14.506   7.405  13.237 -0.0491  0.1277  0.1430
16452W        W36732   3.854  16.594   3.251  0.3761 -0.4114  0.0602
16453W        W36733  15.137   2.803  11.848  0.2261  0.0389 -0.1290
16454W        W36734   4.719   6.403   1.970  0.1952 -0.0378  0.0002
16455W        W36735   1.527   9.722   4.254  0.1417 -0.1291  0.0516
16456W        W36736  18.071   8.990  12.407 -0.1742  0.1994  0.2558
16457W        W36737   2.268  15.082  10.357 -0.0313  0.1267  0.0500
16458W        W36738  11.911  13.513  14.627  0.0648 -0.2803  0.2156
16459W        W36739   4.164   8.893  12.296  0.0759 -0.1162  0.3257
16460W        W36740   6.526   8.281  11.454  0.1512  0.2059 -0.0596
16461W        W36741   5.895  13.585  13.594  0.3297 -0.0486 -0.0023
16462W        W36742   5.123   5.046  13.834 -0.1397 -0.2231 -0.1670
16463W        W36743  17.046  17.256   2.635  0.0405 -0.1413 -0.0824
16464W        W36744  13.031  17.686   1.827 -0.1954 -0.0107  0.2834
16465W        W36745   7.081  11.939   0.775 -0.0449  0.0453 -0.0114
16466W        W36746   4.336   6.795  11.579  0.0084  0.0666  0.4176
16467W        W36747   1.823   3.064  11.320 -0.0619  0.2356 -0.0075
16468W        W36748  16.310  16.603  15.173  0.0816 -0.0054 -0.0479
16469W        W36749  16.759   6.629   5.307  0.1568 -0.0704 -0.0536
16470W        W36750   0.690   9.151   0.305  0.0006 -0.2892 -0.0644
16471W        W36751  14.276   1.354  13.988 -0.2611 -0.1975  0.2167
16472W        W36752   3.261  17.643   0.995  0.1219 -0.0025 -0.1041
16473W        W36753   1.614   7.762  13.050 -0.1775 -0.0546  0.1390
16474W        W36754   8.516   2.727   2.757  0.1344  0.0899  0.2165
16475W        W36755  11.131  17.434  12.079 -0.0145 -0.1462  0.2661
16476W        W36756  16.230  12.533  13.707  0.2998 -0.1768  0.1157
16477W        W36757  13.781   6.588   3.641 -0.3328 -0.0660  0.0922
16478W        W36758   9.327   2.658   3.037  0.1977  0.1007 -0.3284
16479W        W36759  12.599  15.158  11.763  0.0524 -0.1136  0.2128
16480W        W36760  14.800   3.619  14.481 -0.0425  0.1204  0.1679
16481W        W36761  15.896   2.059  11.554 -0.0357 -0.1620 -0.3348
16482W        W36762  17.147  16.289  11.289  0.0205 -0.1313 -0.0254
16483W        W36763  10.245  11.026   1.586 -0.0062 -0.3337 -0.0608
16484W        W36764   1.122  12.362  12.011 -0.2670 -0.1882  0.0122
16485W        W36765   4.319   8.042   2.573  0.2020 -0.0315 -0.2974
16486W        W36766   4.879  14.596   2.361 -0.1811  0.1830  0.0109
16487W        W36767   5.863  10.484   4.557  0.1653 -0.0501  0.0324
16488W        W36768  16.337  13.691   3.833 -0.5077 -0.0197  0.1087
16489W        W36769  11.247  16.599  15.069 -0.0081 -0.0944  0.0150
16490W        W36770   6.337  17.251   0.941 -0.0709  0.2691 -0.2152
16491W        W36771   5.803   1.385   3.816  0.2265 -0.0254 -0.3673
16492W        W36772   3.839  14.130  14.152  0.0770 -0.0616 -0.2487
16493W        W36773  12.918   3.510   0.473 -0.2299 -0.1777 -0.0439
16494W        W36774   0.600   1.248   1.685 -0.0039  0.2495  0.0066
16495W        W36775   9.590   8.941   3.407 -0.2323 -0.0399  0.2945
16496W        W36776   0.263   9.321   3.681  0.0714  0.0065 -0.1403
16497W        W36777   5.494  16.001   1.065 -0.3601  0.0619  0.2385
16498W        W36778   8.765  11.718   4.593 -0.2184 -0.0409 -0.0018
16499W        W36779  10.832  16.013  13.597 -0.0537 -0.0068  0.1387
16500W        W36780  12.066   5.135  14.456 -0.0481  0.0210 -0.3587
16501W        W36781   6.522  17.208   0.474  0.3724  0.1513  0.1006
16502W        W36782  14.046  10.265   2.999  0.1874 -0.0250  0.0114
16503W        W36783  10.166  18.459   2.181  0.3968 -0.0755  0.3661
16504W        W36784   0.298   0.321  13.184  0.0019 -0.1258  0.0158
16505W        W36785   7.697   5.105   3.079  0.1585  0.0175  0.0813
16506W        W36786  17.714   6.783   3.220  0.2094 -0.0681 -0.2255
16507W        W36787  13.678  15.106  12.384  0.0699  0.0203 -0.0924
16508W        W36788  11.982  14.077   0.811 -0.0558 -0.0814 -0.1711
16509W        W36789  12.251  11.295  12.806  0.1451  0.0295  0.0418
16510W        W36790   7.667   0.821   2.012 -0.1223 -0.1515  0.2863
16511W        W36791  11.272  15.120   2.726 -0.2543 -0.1887 -0.0860
16512W        W36792  18.525   3.227  13.318  0.0250  0.0378  0.0113
16513W        W36793   4.623   4.343   3.494 -0.0092  0.0001  0.1431
16514W        W36794   7.441   8.006  10.328  0.2380 -0.0836 -0.0895
16515W        W36795   9.919  15.836   0.834 -0.0630  0.2983 -0.1047
16516W        W36796   2.798  10.770  12.673  0.2261 -0.1635 -0.2037
16517W        W36797  18.113   0.671   2.658  0.1479 -0.1325 -0.1669
16518W        W36798  18.632  12.178  14.623 -0.2010 -0.1072 -0.0287
16519W        W36799  13.773   7.026  12.369  0.0091  0.2187  0.0732
16520W        W36800   9.845   1.455  12.741  0.1350 -0.0345  0.1485
16521W        W36801   4.624  10.755   2.678  0.1859  0.2772 -0.0576
16522W        W36802  11.292  15.700   3.732  0.0609 -0.1615 -0.0030
16523W        W36803   9.423  10.247  11.230  0.4618 -0.1106  0.0432
16524W        W36804   3.959   9.275  13.033  0.2391 -0.0152  0.2270
16525W        W36805   3.534  17.914   2.452  0.0379  0.1400  0.1387
16526W        W36806   7.886   1.435   3.751 -0.0019 -0.1303  0.0756
16527W        W36807  11.019  13.575   1.100  0.1185  0.2347  0.2708
16528W        W36808   6.436   0.332  12.110 -0.0073  0.0686  0.3408
16529W        W36809  15.708  13.712   1.398  0.0358 -0.2330  0.1765
16530W        W36810  13.108  12.688   1.283 -0.2336 -0.1169  0.0446
16531W        W36811  11.648   6.275  14.114 -0.1919 -0.2640 -0.0935
16532W        W36812   6.804  16.545  10.851  0.2578  0.0915 -0.1386
16533W        W36813  11.462   2.349  12.898 -0.0229 -0.1740 -0.2859
16534W        W36814  16.004  18.583   0.233  0.0697 -0.0952 -0.0958
16535W        W36815   6.732   8.833   4.676  0.3842  0.1593  0.0654
16536W        W36816   2.006  18.611  13.984  0.1886 -0.0843 -0.0358
16537W        W36817  12.552  11.931   4.288  0.0894  0.0754 -0.0329
16538W        W36818   3.967  10.567   1.582 -0.0922  0.1785 -0.0629
16539W        W36819  16.325  10.788  12.673 -0.0189  0.0633 -0.1179
16540W        W36820   9.196   8.511  15.317  0.2308  0.2353 -0.0315
16541W        W36821   8.691   2.591  14.664 -0.0116  0.2839 -0.1686
16542W        W36822   1.080  12.110  12.473 -0.0110  0.0799  0.3487
16543W        W36823  12.391   6.215  12.093 -0.0833  0.0789  0.2405
16544W        W36824  14.385  10.114   3.703  0.3024 -0.2213 -0.0353
16545W        W36825  15.688   0.755   4.367 -0.0257  0.1124  0.3410
16546W        W36826  11.415  16.212  12.880 -0.3301  0.1105  0.1580
16547W        W36827   7.263   0.216  13.985 -0.0302 -0.0080  0.0729
16548W        W36828   8.159   8.611   2.623  0.0556 -0.1477  0.0485
16549W        W36829  16.310   8.530  12.014 -0.2776 -0.0575 -0.0540
16550W        W36830  11.797  18.011  11.012  0.1560 -0.1780 -0.0213
16551W        W36831   0.520  14.312   2.086 -0.1241  0.2661  0.3700
16552W        W36832   3.307  13.772   0.279 -0.0329 -0.0462 -0.1064
16553W        W36833   9.667   9.539  13.407  0.0520 -0.1167 -0.0666
16554W        W36834   1.579  12.349   1.869 -0.3078  0.1808 -0.2140
16555W        W36835   9.603  17.795   2.383 -0.0740  0.0845  0.1325
16556W        W36836   2.950   6.008  13.949  0.0332 -0.2558  0.1415
16557W        W36837  16.493   7.421  14.348 -0.0563 -0.1151 -0.1240
16558W        W36838  18.112   7.478  14.518  0.3696  0.1406 -0.2932
16559W        W36839  16.591  15.181  11.994 -0.0618  0.1559  0.0174
16560W        W36840   4.550  16.425  14.873 -0.2975 -0.0845  0.0633
16561W        W36841  16.013   0.266  12.029  0.0318  0.1883 -0.0255
16562W        W36842   7.369   8.352   3.670  0.1012 -0.0879  0.1978
16563W        W36843   7.414   4.232   1.933  0.0469 -0.1192  0.0441
16564W        W36844  11.613   0.666   1.924 -0.0589 -0.1965  0.1991
16565W        W36845  17.110   0.080  11.988  0.0375  0.2974 -0.0164
16566W        W36846   2.011   3.312  14.951 -0.1005  0.1416 -0.0602
16567W        W36847  18.319  10.839  14.902 -0.0393  0.1546 -0.2578
16568W        W36848  14.833  18.105   3.814  0.1024  0.0732 -0.1739
16569W        W36849   9.805  10.140  12.012 -0.0588  0.0772  0.1147
16570W        W36850   7.833  10.306   2.463  0.2730 -0.5178 -0.0255
16571W        W36851   5.371   4.714   0.295  0.1155  0.2452 -0.2925
16572W        W36852   6.125   9.092  15.088  0.1175  0.3572  0.2382
16573W        W36853  18.168   9.056  13.009 -0.0697  0.2222  0.2726
16574W        W36854  15.763  16.586   0.029  0.0438 -0.2763 -0.1290
16575W        W36855  17.669  12.383  13.898 -0.1374  0.0347 -0.0609
16576W        W36856   5.725   7.895  13.588 -0.0382 -0.2486 -0.2238
16577W        W36857   1.667   5.982   1.967  0.1766  0.1874  0.2611
16578W        W36858  13.038   2.168  11.835  0.4156 -0.4099 -0.4344
16579W        W36859  12.498   7.725   0.796  0.1767  0.1379 -0.1897
16580W        W36860   3.736   1.409  14.463 -0.0175  0.2586  0.0457
16581W        W36861   7.275  12.704   0.978  0.0843 -0.2058  0.1212
16582W        W36862   5.982   8.068   2.497  0.2404 -0.0213 -0.0625
16583W        W36863   9.688   2.999  12.188 -0.0911  0.2175 -0.0856
16584W        W36864  16.773  10.521  13.325  0.0789  0.1003  0.2932
16585W        W36865   7.016  10.378   1.964  0.0563 -0.0133 -0.3915
16586W        W36866   2.433   7.463   3.935 -0.0859 -0.1163 -0.3043
16587W        W36867   3.253  11.294  11.573 -0.3520 -0.1700  0.0223
16588W        W36868  16.051   2.838   1.487  0.0042 -0.1158  0.0784
16589W        W36869  17.802   9.009   3.184 -0.1862 -0.0863 -0.0913
16590W        W36870  16.895  12.376  14.332 -0.1665  0.1581  0.0511
16591W        W36871  10.565   0.341   1.031 -0.0485 -0.0757 -0.0891
16592W        W36872   5.568   7.381   3.154 -0.2668  0.0770 -0.3546
16593W        W36873  10.227   4.693  13.574 -0.0814  0.0203  0.0008
16594W        W36874   9.338  14.723   0.547  0.1801  0.3808  0.2864
16595W        W36875   0.248  10.938   0.551 -0.2206 -0.2399  0.0161
16596W        W36876   2.627  15.141   2.627 -0.2688  0.3863  0.4186
16597W        W36877   3.935  16.975   3.608  0.4636  0.0300  0.2278
16598W        W36878  14.864   0.309   3.578  0.2538 -0.1899  0.3434
16599W        W36879   9.408  11.143   0.211 -0.0526  0.3019  0.0528
16600W        W36880   2.511  16.217  14.424  0.1772 -0.0312  0.1824
16601W        W36881   8.490  14.925  11.899  0.1382  0.2017 -0.0994
16602W        W36882   0.693   2.599   2.953 -0.1349 -0.4906  0.1806
16603W        W36883  15.207   6.534  12.967  0.1010  0.0795 -0.1408
16604W        W36884  11.397  10.302  14.749  0.3520  0.2368  0.0135
16605W        W36885   3.739  15.559   3.248 -0.0725 -0.1625  0.1902
16606W        W36886  10.802   6.381  15.140  0.1189  0.1385  0.0100
16607W        W36887  18.010   3.758   2.713 -0.0746 -0.0113 -0.3373
16608W        W36888  13.748   5.431   3.861 -0.0405  0.1473 -0.1193
16609W        W36889  17.470   0.916  15.029 -0.2428 -0.2175 -0.1379
16610W        W36890  16.389   3.241  14.822 -0.0865 -0.3462 -0.2155
16611W        W36891   1.544  10.496  13.251 -0.0003 -0.1166  0.2028
16612W        W36892   1.780   3.698  14.711 -0.1402  0.1672 -0.1380
16613W        W36893  15.336   7.795   3.602 -0.3264 -0.2046 -0.0046
16614W        W36894  17.026  10.286   3.146 -0.0862  0.2079 -0.1385
16615W        W36895  11.127   4.382   2.299  0.0522 -0.1790  0.2499
16616W        W36896  12.707   5.888   2.212  0.1377 -0.0101 -0.0544
16617W        W36897  10.865  18.633  12.179 -0.1103  0.0643  0.0292
16618W        W36898   2.828  13.914  12.683  0.2596  0.4301  0.0343
16619W        W36899   5.284  17.454  13.363 -0.0426  0.1328 -0.1780
16620W        W36900   9.746   2.984  13.045 -0.1054  0.0132  0.0353
16621W        W36901   0.271   9.784  14.473  0.2393  0.0098 -0.1091
16622W        W36902   4.190   4.872  12.317 -0.1222 -0.0859 -0.0716
16623W        W36903   1.262   4.750  11.741  0.0476 -0.0329 -0.3041
16624W        W36904   7.939  10.035   4.905 -0.2252  0.2892  0.2563
16625W        W36905  18.527  15.856  14.437  0.1983 -0.2252 -0.0165
16626W        W36906  10.622   5.657  11.755 -0.0300 -0.0551  0.0896
16627W        W36907   0.166   6.623   4.613 -0.1612  0.1875 -0.1620
16628W        W36908   5.068   9.185   2.632 -0.2464  0.0735 -0.3399
16629W        W36909   7.885   5.876  14.471 -0.0308  0.0842  0.1292
16630W        W36910   2.042   1.475  11.570 -0.2373  0.0869  0.1784
16631W        W36911   3.325   7.656   2.029  0.1351 -0.0260 -0.0293
16632W        W36912  11.680   3.819   2.446 -0.2399 -0.0188 -0.1079
16633W        W36913   8.801  17.338  13.933 -0.1906  0.1492  0.0859
16634W        W36914   3.788  16.284   0.286  0.0612  0.2240 -0.0811
16635W        W36915  18.157  15.421  11.139 -0.0908  0.0103 -0.0666
16636W        W36916   6.387   7.914   2.169 -0.1073  0.3385  0.2147
16637W        W36917   5.812   5.242   3.288 -0.0690 -0.0382 -0.1098
16638W        W36918  17.571  13.939   4.167 -0.2390 -0.0145 -0.0373
16639W        W36919  11.778   4.943   3.303 -0.0662 -0.1824 -0.4796
16640W        W36920   4.851  12.301   3.620  0.1392  0.0684 -0.3049
16641W        W36921   1.985  11.154   0.559 -0.0530 -0.0504 -0.1164
16642W        W36922   4.994  12.304  10.356  0.0651 -0.0181 -0.0591
16643W        W36923  14.474  10.959  11.965  0.1925  0.2449 -0.1327
16644W        W36924  15.550   1.806  12.015  0.0795 -0.1728 -0.1016
16645W        W36925  15.736  10.720   1.601 -0.0825 -0.1344 -0.2320
16646W        W36926  13.900   9.608   3.590 -0.1261 -0.0843 -0.2323
16647W        W36927  17.450  15.216  13.542 -0.0333  0.2615  0.1017
16648W        W36928   6.504  17.305  12.313 -0.1602 -0.1080  0.0620
16649W        W36929  18.405  11.024  13.410  0.3254 -0.3121 -0.0147
16650W        W36930  11.281   9.005   2.506 -0.2171 -0.4314  0.1379
16651W        W36931  18.386   7.326   0.727  0.0032 -0.0896  0.0151
16652W        W36932  18.583  12.478   0.500  0.1541  0.1344 -0.4549
16653W        W36933   8.417   3.563   1.408  0.3015  0.2157 -0.2305
16654W        W36934   2.739  17.703   2.256 -0.1956 -0.3700 -0.0749
16655W        W36935   8.250   3.486  14.538  0.2555 -0.1301 -0.2503
16656W        W36936   8.602   5.743   3.808  0.0931 -0.0735 -0.0193
16657W        W36937  18.724  17.831   0.387  0.0577 -0.0161  0.1915
16658W        W36938  16.768  17.331  11.335 -0.0843  0.3890 -0.1670
16659W        W36939  12.838  16.391   0.655  0.0281 -0.0365 -0.3516
16660W        W36940  14.058  16.796  11.367  0.0416 -0.0023 -0.5607
16661W        W36941   5.184   4.932  12.666 -0.0214 -0.0061  0.1315
16662W        W36942   5.539   9.429   5.274 -0.3402  0.3716 -0.0817
16663W        W36943   1.300  15.416   2.211 -0.0696 -0.1956 -0.3623
16664W        W36944   2.503   6.682  11.556 -0.0969 -0.3576 -0.0367
16665W        W36945   7.502  11.132   3.818 -0.1276  0.0576 -0.0378
16666W        W36946  12.229   2.200   0.279  0.0037  0.1411  0.1690
16667W        W36947  15.498   6.355  13.751  0.1781  0.0671  0.0698
16668W        W36948   0.385   0.500  12.007  0.0577  0.2240 -0.0011
16669W        W36949  12.213  14.589  15.344 -0.2894  0.0248 -0.1476
16670W        W36950  13.008   2.667   0.386  0.0991  0.0012  0.0872
16671W        W36951   6.256   3.317  13.061  0.0562  0.0380  0.0469
16672W        W36952   6.276  12.390  12.434  0.3192  0.2308 -0.4366
16673W        W36953  13.340   5.214   1.003 -0.0693  0.2934  0.2210
16674W        W36954   2.034  12.066  15.393  0.0820  0.0071 -0.0109
16675W        W36955  18.661   3.835  11.256  0.2708 -0.0710  0.1789
16676W        W36956  11.645  13.354  13.002 -0.1397 -0.1893  0.0808
16677W        W36957   9.602   7.552   2.304  0.0020  0.1033 -0.0368
16678W        W36958  17.753   4.747  13.224  0.0981 -0.0099 -0.0329
16679W        W36959  13.308  12.583  12.036  0.1622 -0.0641 -0.1263
16680W        W36960   1.274  11.327  11.076  0.0311 -0.1641 -0.2554
16681W        W36961  16.247  13.970   2.525 -0.2352  0.2499 -0.3163
16682W        W36962   1.230   3.276   3.106 -0.0200  0.0581  0.2027
16683W        W36963   6.804   3.599   0.870  0.1378 -0.1102 -0.2293
16684W        W36964   5.951   6.509  10.754  0.1103  0.3025  0.0696
16685W        W36965   0.220   8.923   0.468  0.6643 -0.0551 -0.0852
16686W        W36966   3.278   6.595   3.002  0.0035  0.0181 -0.2147
16687W        W36967  13.840   1.841  12.666 -0.0083 -0.0054  0.1267
16688W        W36968   1.162   3.445  10.842 -0.0492  0.2100  0.3075
16689W        W36969   0.668   2.865  12.152 -0.0695  0.0021 -0.0405
16690W        W36970  16.792   0.725  11.727 -0.0450 -0.0318 -0.1444
16691W        W36971  11.138  16.471   3.102  0.0150 -0.0503 -0.0001
16692W        W36972   4.485  16.813  15.245  0.0634  0.0896 -0.0189
16693W        W36973   1.859  10.301  14.107 -0.2004  0.3457  0.1791
16694W        W36974   4.557   9.141   1.360 -0.1615  0.0349 -0.0272
16695W        W36975  15.278  13.929  11.318 -0.0503 -0.1963 -0.3074
16696W        W36976   7.480  14.354   3.634 -0.0209 -0.1630 -0.3027
16697W        W36977   5.236   5.030  11.703 -0.0363 -0.2631  0.1472
16698W        W36978   8.714  12.547   4.430 -0.3214  0.2094  0.0849
16699W        W36979  17.974  12.098   2.384 -0.1537  0.0667 -0.1473
16700W        W36980   3.413   7.027  12.486 -0.0597 -0.1785  0.1522
16701W        W36981  14.398   9.320   1.700 -0.1880 -0.0627 -0.0658
16702W        W36982  18.220   5.235  11.229  0.2184 -0.3034  0.1473
16703W        W36983  15.009  14.756  13.441  0.2375 -0.1981 -0.1109
16704W        W36984   4.249   0.172   2.895  0.3143  0.0290  0.0925
16705W        W36985  13.285  13.956  14.573  0.0918  0.2594  0.1487
16706W        W36986   2.173   9.928   2.136  0.1793 -0.0252  0.3291
16707W        W36987  14.244  12.101   4.456 -0.2514 -0.2575 -0.4905
16708W        W36988   7.471  11.599   3.582 -0.1186 -0.0013  0.4049
16709W        W36989  12.014  13.998   0.327  0.0704  0.0171 -0.3447
16710W        W36990   2.882  14.837   1.218 -0.1749 -0.5551 -0.4074
16711W        W36991   0.313  12.825   0.958 -0.0520  0.1817 -0.0065
16712W        W36992  14.057   7.426   4.786 -0.0138  0.1451  0.0509
16713W        W36993   9.112   2.573  13.858 -0.1919 -0.1527 -0.0895
16714W        W36994  15.694  10.723  11.689  0.1082 -0.1355  0.3032
16715W        W36995   6.140   8.972   2.093  0.0780 -0.4320 -0.2440
16716W        W36996  11.635  16.859  11.690  0.0008 -0.4837  0.1915
16717W        W36997  11.876   7.013   2.584  0.0215  0.0476  0.0743
16718W        W36998  14.585   1.217  12.844 -0.0068 -0.1522  0.1260
16719W        W36999  10.874  17.591  10.751  0.1532  0.1068  0.0931
16720W        W37000  11.820   1.789   3.833  0.0257  0.1580 -0.1967
16721W        W37001   8.901  16.503   1.468  0.0844 -0.0078  0.3559
16722W        W37002   2.830   5.382   0.042 -0.0601  0.0979 -0.3470
16723W        W37003   3.761   1.337  13.963  0.1025  0.0700 -0.1845
16724W        W37004   8.861  18.688   0.451 -0.2075 -0.2814 -0.0742
16725W        W37005   5.999   6.618   0.519 -0.1521  0.3289 -0.1041
16726W        W37006  10.297   1.187  11.263 -0.1923  0.1742  0.0921
16727W        W37007  18.459  14.204   4.310  0.2461 -0.0828 -0.0181
16728W        W37008  15.043  18.466  11.909  0.1504 -0.1523 -0.1445
16729W        W37009  13.804   3.274   1.366 -0.0495 -0.3356 -0.2615
16730W        W37010   8.989   4.955   3.968  0.0149 -0.4093  0.1608
16731W        W37011   2.257   7.523  14.654  0.2023  0.0061 -0.0455
16732W        W37012   4.167  12.000  11.886 -0.1138 -0.0391  0.0720
16733W        W37013   9.056  15.645   1.448  0.2800  0.2266 -0.0907
16734W        W37014   8.105   2.153   1.571 -0.0049  0.0105  0.0956
16735W        W37015  15.065   4.633  13.124  0.2088  0.3142  0.0877
16736W        W37016  15.579   2.980  15.177  0.0096 -0.1163  0.0884
16737W        W37017   2.740  11.402  13.284 -0.2009  0.2458 -0.1073
16738W        W37018  14.989  17.736   0.727  0.2215 -0.1349 -0.4077
16739W        W37019   0.169   1.594  13.913 -0.0084 -0.1023  0.1410
16740W        W37020   3.988  14.952  13.941 -0.0320  0.3425 -0.2354
16741W        W37021  13.985   8.258   0.744  0.0416  0.0250  0.1608
16742W        W37022   2.900  11.354  12.003 -0.1708 -0.2109  0.1480
16743W        W37023  16.454   4.295   0.344  0.0824  0.2812  0.0503
16744W        W37024  13.390   7.596   1.438  0.0207  0.4713  0.0343
16745W        W37025   0.280  15.345  13.527  0.1289 -0.2479  0.2633
16746W        W37026  16.209  17.948   4.030  0.0203  0.1837  0.0436
16747W        W37027  17.290  16.934   4.515  0.2577  0.0310 -0.1433
16748W        W37028   5.940   7.718   2.003  0.0066 -0.0386  0.1710
16749W        W37029  15.880  16.660   3.643 -0.1398 -0.0742  0.0365
16750W        W37030   8.320   6.728   3.842  0.2242 -0.0918  0.1669
16751W        W37031   1.699   5.119   3.015 -0.1526  0.0487  0.1393
16752W        W37032  17.857  17.347  13.476  0.2181 -0.0540 -0.1295
16753W        W37033  12.974   7.703   1.737  0.0005 -0.0190  0.1570
16754W        W37034   4.038  13.375   1.279  0.0785  0.1311 -0.1616
16755W        W37035   6.620   7.527  11.849 -0.0097 -0.1372  0.2735
16756W        W37036   5.169  14.088   2.856  0.1772  0.2449  0.2119
16757W        W37037   9.365   4.892   4.407 -0.0686 -0.1735  0.0671
16758W        W37038   1.953   6.990  12.240  0.1728 -0.0100  0.0464
16759W        W37039  18.494   7.943  11.718  0.1120 -0.0190 -0.3624
16760W        W37040   4.107  12.504  14.914  0.1289  0.1694  0.0256
16761W        W37041  10.572   1.433   0.449  0.0563  0.1182 -0.2553
16762W        W37042  14.081   8.340   2.797 -0.2062  0.2655  0.0251
16763W        W37043   8.490  18.583  14.896 -0.2196 -0.1287  0.0773
16764W        W37044   2.046   8.147   0.888 -0.2952 -0.3222 -0.2070
16765W        W37045   3.436   8.494  13.980 -0.2094 -0.0272  0.0052
16766W        W37046  16.343   6.778   2.140  0.0533 -0.0409 -0.2289
16767W        W37047   7.072   5.478  11.522 -0.0354  0.1361 -0.1001
16768W        W37048   6.407   0.834  12.493 -0.0422  0.0872  0.2300
16769W        W37049  12.448   7.281  13.627 -0.1854 -0.0134 -0.3939
16770W        W37050  16.189   3.293  11.115 -0.2034 -0.2133  0.0735
16771W        W37051  10.838   8.509   5.812 -0.0447 -0.2384  0.4109
16772W        W37052  13.792   4.456  13.144  0.1379 -0.0016 -0.2101
16773W        W37053  16.329  16.540  14.422 -0.0570  0.2138  0.1193
16774W        W37054   5.247   7.827   4.016  0.4747 -0.0404  0.1055
16775W        W37055   1.246   2.349  10.963 -0.0088  0.0237 -0.0515
16776W        W37056  18.482   0.837  13.596 -0.2082 -0.1686 -0.3603
16777W        W37057  10.973   9.763  10.801  0.0927  0.0486 -0.2239
16778W        W37058  15.928  14.716   1.516 -0.2508  0.0715 -0.0977
16779W        W37059  17.333   1.827  12.191  0.2886  0.1902 -0.0155
16780W        W37060  17.856   9.748   3.917 -0.0859  0.3469  0.0005
16781W        W37061   5.437  11.410   1.655 -0.1861 -0.1370  0.3303
16782W        W37062  10.379   7.561   1.753 -0.2098 -0.0147 -0.1976
16783W        W37063  13.878  14.844  10.650  0.2716  0.1161  0.2551
16784W        W37064  14.318  13.481   0.213  0.0017 -0.1321  0.1122
16785W        W37065  17.386   9.654   2.528 -0.0749  0.1843  0.0622
16786W        W37066   0.414   0.975  14.940 -0.2454 -0.0063  0.0412
16787W        W37067   9.403  18.268   2.441 -0.1000  0.0543 -0.4269
16788W        W37068  16.582   2.725   1.590  0.1203  0.0915 -0.1921
16789W        W37069   2.459  15.673  14.313  0.2813 -0.1497 -0.1619
16790W        W37070  15.952   5.873   1.164  0.0655 -0.2440  0.0683
16791W        W37071  13.753  18.630   0.315  0.2628 -0.0499 -0.1445
16792W        W37072   4.821  15.028   2.033  0.1551  0.1849  0.3514
16793W        W37073   8.722   4.079  13.734  0.0845 -0.0306  0.1606
16794W        W37074   4.112  16.917  10.746 -0.2087  0.2706 -0.0815
16795W        W37075  16.402   8.432  14.107  0.0151 -0.2226  0.1296
16796W        W37076  15.930  11.811   4.809  0.0547 -0.2399 -0.0790
16797W        W37077  10.200  10.715   5.764 -0.0148  0.1762 -0.1275
16798W        W37078  13.674   9.402  12.959 -0.2379  0.2054 -0.1113
16799W        W37079  14.788   0.223  12.994  0.1980 -0.0890 -0.0217
16800W        W37080  13.868   4.172   2.415 -0.0066  0.3088  0.1907
16801W        W37081   3.538   5.039  14.513  0.2234  0.0560  0.4132
16802W        W37082  12.965   7.655   1.151  0.0989  0.0321 -0.0023
16803W        W37083   9.136  10.559  12.727  0.0890 -0.1835 -0.1663
16804W        W37084  12.712  15.514   3.152 -0.0824 -0.0685  0.2680
16805W        W37085   5.338  13.130   9.906 -0.1826 -0.1677  0.2930
16806W        W37086  15.459  12.064   3.241 -0.1086  0.1208 -0.3134
16807W        W37087   8.594   2.436  13.989  0.0919  0.1132  0.0646
16808W        W37088  13.137   9.719   1.283 -0.3432 -0.2091  0.2198
16809W        W37089   1.062  15.737   4.296 -0.1867  0.0014 -0.1877
16810W        W37090   9.771  13.008  14.928  0.2956  0.0009  0.0776
16811W        W37091  15.589   6.886   1.718  0.1492 -0.1130  0.3734
16812W        W37092   9.821  14.594  11.908  0.0681  0.1004  0.0087
16813W        W37093  13.492   9.750  14.633  0.4072 -0.0803  0.0208
16814W        W37094   1.460  17.938  12.198  0.1883 -0.0487  0.0043
16815W        W37095  12.538  13.407  11.266 -0.4115 -0.4410 -0.0183
16816W        W37096   1.930   9.890   0.690  0.2362 -0.3627  0.2123
16817W        W37097  18.056   7.630  13.432 -0.0449  0.0943 -0.2397
16818W        W37098  17.539  15.347  12.341 -0.3577  0.2609 -0.0724
16819W        W37099  18.583  12.283  13.647  0.1680 -0.1828  0.1290
16820W        W37100  12.085   9.538   2.924 -0.1439  0.1375 -0.2488
16821W        W37101   9.204   9.348  14.650 -0.0127  0.2382 -0.0462
16822W        W37102  11.885  15.228  11.934  0.1687  0.1967 -0.0988
16823W        W37103   5.543   3.944   1.283  0.3071 -0.1068 -0.0647
16824W        W37104  15.629   9.471   1.997 -0.1677 -0.2416  0.0389
16825W        W37105   6.737   9.019  14.168 -0.2750  0.1512 -0.0687
16826W        W37106  13.103   0.656   1.082 -0.3127  0.3497  0.2497
16827W        W37107  15.283   7.396   1.531  0.0586 -0.1150 -0.2140
16828W        W37108   5.617   6.628   3.401  0.0797  0.1237  0.2923
16829W        W37109  11.823  18.265   1.266  0.2296  0.0836  0.1999
16830W        W37110  13.310  10.680   1.458 -0.2085  0.0803 -0.1404
16831W        W37111   7.224  16.185  13.040  0.2267  0.0051 -0.0325
16832W        W37112   6.134  10.238  14.113  0.2125  0.0545 -0.2219
16833W        W37113   2.570   0.737  14.558 -0.3518  0.1668 -0.2818
16834W        W37114   5.441   4.838   1.278  0.3391  0.0155 -0.0046
16835W        W37115   3.670   4.501  12.101  0.2120  0.4874  0.1018
16836W        W37116  11.710  11.194  14.995  0.1203 -0.2636 -0.1477
16837W        W37117  11.831  15.656   3.768  0.0327 -0.2684 -0.3832
16838W        W37118  12.394  14.004  13.589 -0.2741 -0.0689 -0.1886
16839W        W37119   2.702   2.170   1.264 -0.0850 -0.1295 -0.2962
16840W        W37120   1.482  10.336  11.860 -0.0863 -0.3035  0.1574
16841W        W37121   1.394   9.112   3.042  0.0700  0.0611  0.0978
16842W        W37122   2.568  10.082  10.346 -0.1485  0.1920  0.1800
16843W        W37123  10.150   4.850   0.301 -0.0115 -0.0979 -0.0564
16844W        W37124   3.902   8.468  12.372 -0.0649  0.0538 -0.2965
16845W        W37125  17.465  12.379  11.410 -0.0860  0.3130  0.1410
16846W        W37126   0.080   3.775  14.900 -0.0470  0.0663 -0.1626
16847W        W37127  13.338  11.702  13.798  0.1758  0.1201 -0.0278
16848W        W37128   9.735   5.466   0.545  0.0623  0.2622 -0.1354
16849W        W37129   4.841  11.740  11.177 -0.0507 -0.1806 -0.0754
16850W        W37130   7.819  12.007  13.999 -0.0649 -0.0911  0.0476
16851W        W37131   3.554  11.278  15.290  0.0451  0.0147 -0.1192
16852W        W37132   0.768   6.239   0.282  0.1691  0.4053  0.1938
16853W        W37133  17.055   3.339   4.604  0.0180  0.3638 -0.0831
16854W        W37134  14.626  10.624   2.638 -0.0492 -0.2748 -0.0628
16855W        W37135   8.121  18.104   2.502 -0.3017 -0.0537 -0.1035
16856W        W37136   3.579   0.854  14.051 -0.0160  0.1272 -0.1718
16857W        W37137   7.145   2.191   2.074 -0.2622  0.1710  0.0987
16858W        W37138  14.842   8.029   4.809  0.0864  0.2753  0.0172
16859W        W37139   6.250   3.582  12.352 -0.2806  0.0628  0.1110
16860W        W37140  11.927   8.372   1.190 -0.0036  0.2124  0.1071
16861W        W37141   8.467   0.598  13.105  0.0490 -0.0551  0.0825
16862W        W37142  13.636  13.588   4.830  0.0685 -0.1248 -0.0075
16863W        W37143  18.249   8.642  12.797 -0.6180 -0.0612  0.4116
16864W        W37144   3.076   2.032   0.929 -0.2510 -0.1997 -0.2588
16865W        W37145  11.025   2.097  12.930 -0.1976  0.1630 -0.2424
16866W        W37146   8.921   5.726  14.171  0.3536 -0.0899  0.2960
16867W        W37147   9.382   8.801   1.713 -0.1914  0.4466 -0.2896
16868W        W37148   2.994   0.159  14.935  0.0474  0.2581  0.2848
16869W        W37149  17.882   8.304  12.896 -0.0588 -0.1706  0.0783
16870W        W37150   1.517  11.657   1.103  0.0447  0.3889 -0.0847
16871W        W37151   9.955   0.241   3.521  0.0140  0.3646  0.1582
16872W        W37152  16.766   6.734  12.105  0.1833 -0.0799  0.2395
16873W        W37153  18.654  11.761  14.869 -0.0365 -0.0434 -0.2956
16874W        W37154   9.508  12.937  12.637  0.0186 -0.0360  0.1805
16875W        W37155  17.424   9.333   4.024 -0.0142  0.0955  0.2715
16876W        W37156   3.962  11.317  10.931  0.0539  0.0466 -0.0474
16877W        W37157   0.664  11.936  15.267  0.0236  0.2317 -0.0977
16878W        W37158   3.397  12.592  11.918  0.1620  0.2359 -0.3739
16879W        W37159   5.618  14.355   4.132  0.1800  0.0956  0.3315
16880W        W37160  17.917   3.760  13.970 -0.0373 -0.0216  0.1588
16881W        W37161  16.927   2.230  12.839  0.2338  0.2502  0.1208
16882W        W37162   6.986  13.762   1.125 -0.1409 -0.0156  0.0600
16883W        W37163  17.371   8.821   2.987 -0.1484 -0.1992 -0.2897
16884W        W37164   2.478  14.077  13.402 -0.3982 -0.0575  0.0313
16885W        W37165  15.137   5.575   1.601  0.0383 -0.0622  0.0020
16886W        W37166   7.215  11.881  13.259 -0.1054  0.0282 -0.1139
16887W        W37167  16.940  13.805  15.266 -0.1103 -0.2149  0.3171
16888W        W37168  17.544   2.757  12.481 -0.0446  0.0040  0.0354
16889W        W37169   3.802  14.309   2.933 -0.1670 -0.3106 -0.2781
16890W        W37170  14.279   9.966  12.180  0.1462  0.2438  0.0783
16891W        W37171  10.540  12.054   1.234  0.1739 -0.0937  0.0567
16892W        W37172  13.129  10.704  12.800 -0.0559 -0.1432 -0.2041
16893W        W37173  17.375   7.494   1.178  0.0605 -0.2292 -0.2064
16894W        W37174  16.397   5.970   0.342 -0.0301  0.0454 -0.0853
16895W        W37175   7.389   3.117  13.484 -0.0309 -0.0060 -0.0627
16896W        W37176  10.155  14.298   1.899 -0.2166  0.2671  0.0863
16897W        W37177   3.093  17.438  13.641  0.1723 -0.2912  0.1350
16898W        W37178  13.268   3.103  13.404 -0.1716  0.0512  0.2443
16899W        W37179  10.739   0.819   1.178 -0.2781 -0.0714 -0.3630
16900W        W37180   3.148   8.222  11.233 -0.2563  0.1451  0.1613
16901W        W37181   5.144  14.983  12.403 -0.1693  0.3335  0.0842
16902W        W37182  14.957   0.777   2.286  0.0534 -0.0523  0.2094
16903W        W37183   5.398  14.633  14.377 -0.1356 -0.1165 -0.1597
16904W        W37184  15.972  17.700  14.074 -0.4915  0.1825  0.0009
16905W        W37185   1.343   2.777   3.250  0.0938 -0.0777  0.0412
16906W        W37186  13.191  13.590   4.665 -0.2043  0.0054  0.4618
16907W        W37187  13.588   9.272   2.661  0.3716 -0.1102  0.1416
16908W        W37188   6.354   9.053  13.576  0.0237  0.1269 -0.1431
16909W        W37189  10.708   0.356  12.209  0.2061  0.2515 -0.0460
16910W        W37190  13.672   9.394   0.520  0.1655 -0.3808  0.0508
16911W        W37191  15.572   8.491  14.319 -0.0449 -0.0897 -0.1101
16912W        W37192   8.620   3.245   2.671  0.0786 -0.1557  0.1359
16913W        W37193   1.171  12.381   2.215  0.0272 -0.1169  0.0355
16914W        W37194  12.984  11.129  11.876 -0.0332  0.1519  0.2098
16915W        W37195   0.658  10.857  11.870  0.1722 -0.2541 -0.1493
16916W        W37196   2.147   7.026  11.753  0.1352 -0.0100 -0.1032
16917W        W37197   4.112  13.671   4.263  0.0266  0.1350 -0.1236
16918W        W37198  13.811   3.565   4.265 -0.0209 -0.0083 -0.2959
16919W        W37199   1.443   3.643  14.281  0.1877 -0.2677 -0.0991
16920W        W37200  13.762  10.598   4.237  0.0050 -0.0075  0.1006
16921W        W37201  13.430  13.499   0.485 -0.1892  0.0856  0.0841
16922W        W37202  10.502  16.939   2.660  0.0803  0.1624 -0.2653
16923W        W37203   8.205  14.143   3.257  0.3915  0.4328 -0.2054
16924W        W37204  17.963   5.187   0.847  0.2178  0.2199  0.0936
16925W        W37205  15.719   5.415   0.603 -0.0223 -0.1918  0.2181
16926W        W37206   5.487  14.361  13.404  0.0342  0.1291  0.1336
16927W        W37207   1.443  16.364  11.386  0.0098  0.1789 -0.0808
16928W        W37208   6.771  11.207   1.851  0.0585  0.2432 -0.1409
16929W        W37209  12.616  18.350   1.263 -0.0419 -0.3156  0.0179
16930W        W37210  11.877  18.351  12.862 -0.3903 -0.1428  0.2345
16931W        W37211  14.757  10.835  14.427 -0.1064 -0.2170  0.5182
16932W        W37212  11.618  13.238   3.685  0.0242 -0.1784  0.0148
16933W        W37213   5.772  13.050   2.802 -0.1177  0.3133  0.0604
16934W        W37214  14.457  17.299   0.068  0.0487 -0.3690  0.3287
16935W        W37215  18.729  13.956   3.009  0.1363 -0.0746 -0.0151
16936W        W37216  13.509   7.504  12.469 -0.0040  0.3523  0.2522
16937W        W37217   5.270   6.394   1.050 -0.0137 -0.1425 -0.0611
16938W        W37218  14.519   5.779  15.147  0.0464 -0.2602 -0.2468
16939W        W37219   6.235  16.159  12.018 -0.0940  0.0672 -0.2241
16940W        W37220   5.003  16.679  15.009 -0.3594 -0.1109 -0.1363
16941W        W37221   2.348   6.438   3.693 -0.0357 -0.0221  0.0471
16942W        W37222  17.923   2.650   3.428  0.3380  0.1458  0.0883
16943W        W37223  17.986  10.208  12.371 -0.0332 -0.0733 -0.1839
16944W        W37224  14.676  14.501  11.945  0.4458  0.1729 -0.1337
16945W        W37225  13.418  17.810   0.151 -0.0384 -0.0077  0.1006
16946W        W37226   2.033  11.437   2.858 -0.0578  0.1854  0.0908
16947W        W37227  16.167  17.491  13.644 -0.0751  0.1241  0.0725
16948W        W37228   5.584  13.820   4.227  0.1333  0.0343 -0.0709
16949W        W37229   0.434  16.601  13.169  0.1042  0.2189  0.3008
16950W        W37230   1.137  17.808  11.446 -0.2846 -0.3002  0.0295
16951W        W37231   7.304   3.133   1.916  0.3069 -0.2055 -0.1213
16952W        W37232   9.305   9.838  13.437  0.2764 -0.1756 -0.1111
16953W        W37233   0.088   3.860  10.723  0.0400  0.0429  0.0977
16954W        W37234  16.477   0.027  14.106  0.1465 -0.0454  0.0167
16955W        W37235   0.785  16.007  12.566 -0.2355 -0.2393  0.0854
16956W        W37236  16.423  14.911   1.698  0.2667 -0.2566  0.1012
16957W        W37237   0.678  14.414   0.423  0.2489  0.0852  0.0111
16958W        W37238  11.315  15.799   0.237 -0.1446 -0.0228 -0.2796
16959W        W37239  17.543   9.590  12.410  0.4148  0.1896 -0.3565
16960W        W37240   6.724  17.795   4.965 -0.1611  0.0276 -0.1248
16961W        W37241  17.433   5.387  14.711  0.1044  0.0937  0.1820
16962W        W37242   2.898   9.378   3.716  0.3860  0.0883 -0.0070
16963W        W37243   8.981   4.573   1.560  0.0228  0.1048  0.0369
16964W        W37244   6.150  16.526   4.069  0.0180 -0.0036  0.0576
16965W        W37245   7.823   9.745   1.728  0.0900 -0.0745  0.1809
16966W        W37246  18.632   9.650   0.315 -0.1463 -0.0991 -0.1974
16967W        W37247   7.049   2.566   2.994 -0.1682  0.3249 -0.1654
16968W        W37248  11.959   6.362  13.025 -0.1113  0.1493 -0.0243
16969W        W37249   0.802  16.116  13.957  0.0319 -0.0801  0.0517
16970W        W37250  15.084  17.704  11.737  0.0019  0.0046 -0.1972
16971W        W37251  13.195  14.992  10.864  0.0695  0.1164  0.2638
16972W        W37252  10.304  10.808  12.665 -0.1558 -0.0723 -0.1258
16973W        W37253   8.080  10.555  15.059  0.0163  0.0420 -0.0387
16974W        W37254   7.027   7.326   2.232 -0.2784 -0.0684  0.2816
16975W        W37255   1.077  12.531  14.632 -0.0499  0.1977  0.0133
16976W        W37256   9.652  10.579   0.803  0.1604 -0.2960 -0.1218
16977W        W37257  14.884   1.756  14.663 -0.2512 -0.3915  0.3458
16978W        W37258   1.048  10.589   4.365  0.0430  0.1714 -0.1845
16979W        W37259  12.559   2.661  12.999  0.3155 -0.0109 -0.1023
16980W        W37260   3.587   6.209  13.997  0.2411  0.1226 -0.1933
16981W        W37261  11.722  15.739  12.924 -0.1594  0.2490 -0.1459
16982W        W37262   2.414  16.220  11.448 -0.1075 -0.0489  0.1587
16983W        W37263   0.185  15.006  12.697 -0.1798 -0.1497 -0.1441
16984W        W37264   4.203   9.434  13.452  0.2888  0.0563  0.1481
16985W        W37265  10.313  16.362   1.575 -0.2009  0.1564 -0.0067
16986W        W37266   3.439   3.233  14.853  0.0328  0.2217  0.4053
16987W        W37267   7.040  11.182   4.253 -0.1743  0.0458 -0.1248
16988W        W37268   4.404  14.200   2.289 -0.0118  0.1253 -0.0738
16989W        W37269  10.868  12.960  11.391 -0.2965  0.1262 -0.1333
16990W        W37270  12.160  11.525   1.883  0.0790 -0.0597  0.1438
16991W        W37271   4.761   0.534  14.492 -0.0105 -0.0990  0.0840
16992W        W37272  16.410  11.461   4.217 -0.0750  0.0812 -0.1972
16993W        W37273  17.048  10.011   2.371 -0.1629 -0.2519 -0.3759
16994W        W37274   1.017   5.235   3.547  0.0884 -0.0714 -0.1473
16995W        W37275   2.836   6.697  11.976 -0.1087  0.1455 -0.0781
16996W        W37276  16.510  15.325   1.998 -0.2857 -0.1183  0.2761
16997W        W37277  14.965   2.224  13.146 -0.0232  0.3736 -0.1271
16998W        W37278   1.188  17.461  10.886 -0.0622 -0.1795  0.0924
16999W        W37279  10.501  10.675   4.475  0.0867 -0.0563 -0.2110
17000W        W37280  16.410   9.824  11.708 -0.0211  0.2146 -0.1962
17001W        W37281  11.933  17.025   4.334 -0.1515 -0.0409  0.0377
17002W        W37282   7.719   1.657   2.594 -0.0630  0.1492 -0.1424
17003W        W37283   8.357   4.880   0.421  0.0204  0.0469  0.3457
17004W        W37284  13.343   3.150   1.443  0.0462  0.1507 -0.1617
17005W        W37285  11.301  12.149  12.871  0.1596 -0.1165  0.0879
17006W        W37286  18.050  13.714   2.698  0.1685  0.2245 -0.4257
17007W        W37287  13.306   4.081  13.027 -0.0771  0.0490 -0.1654
17008W        W37288  14.668   3.023   2.322  0.0211 -0.1650  0.0671
17009W        W37289  16.994   5.756   2.703  0.1902  0.2720 -0.1954
17010W        W37290   9.656  11.117   3.674  0.2268  0.1880  0.1476
17011W        W37291   8.967   6.717  11.664  0.1170  0.1877  0.0048
17012W        W37292   7.882   2.870   4.858  0.0153 -0.0454 -0.2789
17013W        W37293  13.085   7.588   5.020 -0.2237  0.0519 -0.0881
17014W        W37294  15.654   2.583   2.396 -0.2891  0.1490  0.0457
17015W        W37295  10.983  10.120  14.502 -0.2187 -0.0448 -0.0611
17016W        W37296   7.308   9.707   3.889 -0.0296  0.1574 -0.3713
17017W        W37297   8.549   0.313  13.487  0.1089 -0.0308 -0.1633
17018W        W37298  10.705   8.327  13.978 -0.0255 -0.2856 -0.2366
17019W        W37299   7.470   1.261   1.837 -0.1054  0.0464  0.2065
17020W        W37300   7.865   4.239  11.489 -0.1110  0.0936  0.1457
17021W        W37301  15.347  17.798  12.950 -0.2787 -0.0970  0.1492
17022W        W37302   2.974   2.807   0.473 -0.1257  0.1015 -0.3642
17023W        W37303   8.710  12.813  13.950  0.0662  0.0022  0.1565
17024W        W37304  12.153   5.474   1.629  0.4095 -0.0270 -0.0149
17025W        W37305   0.590   4.970   3.622  0.1876  0.2011  0.1185
17026W        W37306   3.286   9.952  14.070  0.0355 -0.1387  0.4217
17027W        W37307   2.841  13.167  12.756 -0.0943  0.1062  0.1441
17028W        W37308   1.684  15.807   5.389 -0.4034 -0.2433 -0.1056
17029W        W37309   4.816  15.524   2.074  0.0783 -0.0663  0.3143
17030W        W37310   1.075   5.665  14.674  0.0707 -0.0584  0.0934
17031W        W37311   0.130  17.131   1.527  0.0960  0.0462  0.1606
17032W        W37312   9.137  14.201  10.856  0.1165 -0.1297  0.1641
17033W        W37313   9.352  17.605  12.589 -0.0074  0.2925  0.2428
17034W        W37314   9.566  17.683   2.870 -0.0136 -0.0916 -0.3847
17035W        W37315  10.602   6.940   1.155 -0.2640 -0.0755 -0.0457
17036W        W37316   5.993  11.925   0.442 -0.0179 -0.2672 -0.1256
17037W        W37317   5.408  18.273  13.326 -0.0629  0.0170 -0.0279
17038W        W37318   6.810  14.047  13.042 -0.2006 -0.4130  0.1956
17039W        W37319   3.955  15.943   9.808  0.0538 -0.5709  0.0875
17040W        W37320   8.940  10.746   1.007  0.2192 -0.1921 -0.1355
17041W        W37321  17.511  16.232  12.289  0.3792  0.0125 -0.0885
17042W        W37322   1.891   7.311  13.163 -0.0813 -0.1286  0.0878
17043W        W37323  15.726  17.555  13.360 -0.4085 -0.2223 -0.7516
17044W        W37324  15.768   4.804  13.550 -0.0299  0.0481 -0.2274
17045W        W37325   6.207   7.981  11.191 -0.1134 -0.0976 -0.0049
17046W        W37326   1.104   8.736  11.766 -0.1431  0.1061 -0.0502
17047W        W37327   2.002   9.700  11.566 -0.2589 -0.2368  0.0140
17048W        W37328  16.957   5.671   1.122  0.0099  0.2297 -0.1943
17049W        W37329   0.757   7.009   2.762  0.0890 -0.0548  0.1557
17050W        W37330   8.377  13.026  15.019  0.0637  0.1716 -0.2286
17051W        W37331   6.614   3.903  11.267  0.1873 -0.3076  0.0909
17052W        W37332  10.783   5.371  12.211  0.2190  0.0368  0.3088
17053W        W37333   7.388   8.739   1.178 -0.3855 -0.0462 -0.2708
17054W        W37334   6.530  16.360   3.788  0.2740 -0.1112 -0.0509
17055W        W37335   7.398   6.680   1.873 -0.1507 -0.0527 -0.0810
17056W        W37336   4.963   7.076  13.205 -0.0396  0.0299  0.4132
17057W        W37337   5.435   4.847  14.566  0.1713  0.2383 -0.3335
17058W        W37338  10.874   9.583  14.575  0.0179 -0.0294 -0.0935
17059W        W37339   3.030   2.591  14.550  0.0032 -0.0346 -0.1770
17060W        W37340   8.880   1.395  13.119 -0.1597 -0.0952 -0.0015
17061W        W37341   2.900  11.971  14.119 -0.3442  0.0002  0.0353
17062W        W37342  12.890   6.966  13.617  0.0069 -0.2748  0.0663
17063W        W37343  16.576   4.003   1.597 -0.1964  0.0835 -0.1960
17064W        W37344  15.132   3.679  15.351  0.0623 -0.1135  0.1141
17065W        W37345  16.230  11.928   3.794  0.0513  0.0744 -0.1283
17066W        W37346  13.729   9.047  13.407 -0.0483  0.2250  0.0507
17067W        W37347  18.611   0.361   3.048 -0.2604  0.1800  0.1091
17068W        W37348   4.672   2.855   1.108  0.1629 -0.1103  0.0782
17069W        W37349  18.056   3.580   2.154  0.2995  0.0141 -0.1712
17070W        W37350   0.759  17.003  13.195  0.1049 -0.1540  0.4018
17071W        W37351   2.862   1.566   2.456  0.0918 -0.3228 -0.2565
17072W        W37352  11.219  14.592   0.352  0.2783  0.0477  0.2311
17073W        W37353   4.815   3.765   4.754  0.0102 -0.1045 -0.1271
17074W        W37354   0.732   2.090   5.182 -0.1587  0.0114  0.1743
17075W        W37355  12.721  17.192  12.561  0.1952  0.0595  0.1264
17076W        W37356   2.708   0.893  12.497  0.0162  0.1515  0.0437
17077W        W37357   7.799   1.009  12.166  0.0136  0.0652  0.1650
17078W        W37358  11.422   1.985  15.117 -0.0273 -0.0005  0.0695
17079W        W37359   7.426   5.740  11.873  0.2736  0.2811  0.1129
17080W        W37360   1.825  12.596   1.368 -0.2456  0.0844 -0.1506
17081W        W37361  10.725   2.630  12.151 -0.4394 -0.1076 -0.1028
17082W        W37362   8.246  12.978  13.217 -0.0360 -0.2526  0.0716
17083W        W37363  13.234   8.170  15.039  0.1082 -0.0203  0.0271
17084W        W37364   4.624   1.461  12.479 -0.0012 -0.5993  0.0974
17085W        W37365   3.689  15.411   0.445  0.1182 -0.0638  0.1698
17086W        W37366   5.824   2.198   2.484  0.2988  0.2124  0.1544
17087W        W37367   7.320   7.151  12.266 -0.0120  0.4267 -0.1933
17088W        W37368  14.856  11.589   1.301  0.1092 -0.2641  0.0744
17089W        W37369   8.109   2.166  13.431 -0.0485 -0.1647 -0.1734
17090W        W37370  14.907   4.319   2.701 -0.1159  0.1589 -0.2145
17091W        W37371  18.505   9.708  13.496  0.0217  0.3347 -0.1543
17092W        W37372  13.784  15.054   3.010  0.0986 -0.2685 -0.0926
17093W        W37373   7.959  13.981  15.094  0.1335  0.2440 -0.0124
17094W        W37374  11.514  15.104   1.954 -0.0810  0.2009 -0.2020
17095W        W37375  12.319  16.191  14.335  0.1549 -0.2207  0.3404
17096W        W37376  13.203  13.707  14.989  0.2870 -0.2064  0.0150
17097W        W37377   9.106   9.949  11.539 -0.0106  0.1227  0.0973
17098W        W37378   1.391  18.660   2.288  0.2547  0.0048  0.0104
17099W        W37379   4.243  12.056   2.613  0.4207  0.0315 -0.2543
17100W        W37380   1.182   7.536   2.942  0.1390  0.4189 -0.3142
17101W        W37381  16.229   1.283   1.278  0.0951  0.2193  0.2227
17102W        W37382   8.842   7.757   0.001 -0.1845 -0.1358  0.1894
17103W        W37383  18.192  16.126   3.916 -0.0441 -0.0001 -0.1634
17104W        W37384   1.760   5.706  11.578 -0.0142  0.0141 -0.1792
17105W        W37385  15.343  12.622   0.712 -0.2372 -0.1209 -0.0221
17106W        W37386   8.410   4.740  13.106 -0.1585 -0.3300 -0.1939
17107W        W37387  16.497   8.203  14.644  0.0220  0.2769  0.2748
17108W        W37388  15.448  13.421   3.480  0.3542  0.0231  0.0764
17109W        W37389   0.784   0.238  11.380  0.0319  0.1404 -0.0002
17110W        W37390   5.736  10.009  12.696 -0.1766  0.3716  0.1035
17111W        W37391  17.587  18.136   3.764 -0.0792 -0.2338 -0.2072
17112W        W37392  18.228   7.765  12.158  0.3141  0.2469  0.1703
17113W        W37393   0.975  11.748  14.962 -0.0771  0.1300  0.1973
17114W        W37394  12.914  18.429  12.299 -0.0762 -0.1479 -0.3052
17115W        W37395   6.952   0.913   0.414 -0.0096  0.3426  0.1217
17116W        W37396  18.341  16.699  13.840 -0.1570  0.0003 -0.1141
17117W        W37397  11.731   8.857   1.267 -0.0320  0.0825  0.0789
17118W        W37398  14.075  17.351   3.489  0.0652 -0.3215 -0.1401
17119W        W37399   9.870   9.477  11.324 -0.1636  0.0741  0.0108
17120W        W37400   6.592  15.444  13.002  0.2102 -0.0542  0.1011
17121W        W37401  12.555  13.442   3.894  0.0336  0.1127  0.4029
17122W        W37402  16.696  12.844  11.118  0.0876 -0.1025  0.2460
17123W        W37403  13.149  16.159  11.141 -0.1282 -0.0906 -0.1095
17124W        W37404  11.397   1.940   1.466  0.1966 -0.0447  0.0969
17125W        W37405   3.522  11.380  12.585 -0.1674 -0.1980 -0.2626
17126W        W37406   6.919   2.887  11.825 -0.0092  0.0302 -0.2368
17127W        W37407   4.150   3.147  13.098 -0.2656  0.0716 -0.0399
17128W        W37408  12.799  10.043   1.489 -0.0136 -0.0702  0.0628
17129W        W37409  14.885   9.094  13.027  0.0599 -0.0399  0.0208
17130W        W37410   9.705  14.574  14.182  0.1779 -0.2426  0.1466
17131W        W37411   1.704   0.718  14.837  0.1679 -0.4803  0.0453
17132W        W37412  12.671   0.569  13.819  0.2447  0.1553 -0.6082
17133W        W37413  15.509   6.719  13.432  0.0387  0.1160  0.1770
17134W        W37414   1.383  16.639  13.595 -0.0605 -0.0801  0.0726
17135W        W37415  12.375   5.604   0.678  0.1466  0.0843  0.0111
17136W        W37416  17.005  11.916  14.588  0.3021  0.0303  0.0234
17137W        W37417   3.436  15.382   3.721 -0.3961  0.2686  0.1523
17138W        W37418  16.945   2.126  11.378 -0.0687 -0.0494 -0.0362
17139W        W37419   8.566   9.057  11.458  0.2427  0.0365 -0.2824
17140W        W37420   0.200  13.545   3.276 -0.0367  0.0012 -0.0519
17141W        W37421  16.857   5.125   4.756  0.0757 -0.0695  0.2414
17142W        W37422   7.449   7.728  14.406 -0.0117 -0.2697  0.1601
17143W        W37423   1.706  12.234  11.360  0.2564 -0.0437  0.2767
17144W        W37424   4.527   1.694  15.045  0.0933  0.1222 -0.2134
17145W        W37425  16.042  17.272   0.629  0.3429  0.2963 -0.1061
17146W        W37426  10.001   1.574   0.504 -0.1221 -0.1127 -0.0815
17147W        W37427   6.231   5.593  12.766 -0.2246  0.0280  0.0271
17148W        W37428  17.056  13.726   2.768  0.2768  0.1160  0.1239
17149W        W37429   5.993  18.358   2.559 -0.4232 -0.0936  0.0389
17150W        W37430  16.911   5.217  11.618  0.0761 -0.1054 -0.0557
17151W        W37431  16.872  17.105  10.872  0.0667 -0.0056 -0.0012
17152W        W37432   9.299  17.967   4.175 -0.0845 -0.1560  0.2468
17153W        W37433   3.202   6.459   1.287  0.5487  0.2399  0.2497
17154W        W37434  11.216   8.017  13.941  0.0424 -0.1017  0.2402
17155W        W37435  15.876   0.786  14.109  0.1785  0.0035 -0.0456
17156W        W37436   0.826  17.156  11.713  0.0124 -0.2282  0.0785
17157W        W37437  11.182   1.960  13.911 -0.2747 -0.0008 -0.2038
17158W        W37438   0.389   5.816  12.028 -0.1019  0.0230 -0.3546
17159W        W37439  18.706   2.690   4.977 -0.0338  0.1649 -0.3528
17160W        W37440  11.637  15.943  14.564  0.0365  0.1469 -0.3236
17161W        W37441   5.326  17.278  12.317 -0.0043 -0.0423 -0.0783
17162W        W37442  13.596   3.818   2.102 -0.3122  0.1637  0.1377
17163W        W37443   0.544   9.079  12.865 -0.2510 -0.1839 -0.1316
17164W        W37444   9.450   1.358  14.386 -0.0717 -0.0413  0.4712
17165W        W37445   6.578   5.699   0.984  0.4562 -0.0284  0.1157
17166W        W37446  14.788  11.725   3.147  0.1187  0.1439 -0.1937
17167W        W37447  11.399   6.090   3.975  0.2535 -0.0876 -0.0172
17168W        W37448  12.723  15.781   0.085 -0.0900 -0.1443 -0.0924
17169W        W37449   7.435  10.591   2.218 -0.1577  0.2002  0.3921
17170W        W37450   4.378   5.687  10.903  0.2449  0.2477  0.2035
17171W        W37451   2.495   4.334   1.646 -0.2017  0.1357 -0.1105
17172W        W37452   9.324  17.965  12.943  0.4595  0.0514 -0.1512
17173W        W37453   8.149  10.178  11.406  0.0932  0.0637  0.2205
17174W        W37454   4.555   9.581   1.508 -0.1303 -0.1445  0.1944
17175W        W37455  16.363  12.478   3.072  0.2810  0.2722  0.0041
17176W        W37456   9.391   5.085  13.165  0.0425 -0.0397  0.0258
17177W        W37457   3.626  15.223  13.627  0.4231 -0.1148  0.2349
17178W        W37458   0.775   1.887   0.873 -0.0902  0.0869  0.1236
17179W        W37459  14.036   0.015  11.707  0.2355 -0.1767 -0.2710
17180W        W37460   9.369   5.587  12.405 -0.0736  0.0035 -0.2076
17181W        W37461   2.580  16.690   3.713 -0.0516  0.0612 -0.0906
17182W        W37462  11.003   0.071   4.158  0.0971 -0.1012  0.0586
17183W        W37463  13.844   7.883   2.326 -0.1163 -0.1143 -0.2343
17184W        W37464   2.566   6.720  15.060 -0.4437 -0.0617  0.0963
17185W        W37465  18.362   6.843   1.608 -0.0076  0.0112 -0.1582
17186W        W37466   4.640   8.251   2.996 -0.0174 -0.2431 -0.0813
17187W        W37467   9.776  11.433   0.136  0.2160  0.1352  0.1407
17188W        W37468   8.987  14.723   1.673  0.0870  0.0642 -0.2149
17189W        W37469  13.021   2.745  11.718  0.3701  0.1880 -0.1050
17190W        W37470   9.771   7.272  12.093 -0.1918 -0.1145  0.1962
17191W        W37471   2.658  17.122   3.194 -0.0532 -0.3781  0.0504
17192W        W37472   9.614  11.927  13.442 -0.2003 -0.0236  0.0244
17193W        W37473  14.297   2.192  13.463  0.0829  0.0381  0.1389
17194W        W37474   5.625   8.642   5.767  0.2679 -0.2197 -0.1691
17195W        W37475   0.668  15.855   4.829 -0.2632  0.1096  0.2217
17196W        W37476  10.922  13.503  12.518 -0.3688  0.0933 -0.0483
17197W        W37477  17.208   4.987   3.987 -0.0122 -0.0328  0.2659
17198W        W37478  15.949  17.879   0.775 -0.1286 -0.0243 -0.1361
17199W        W37479   3.632  12.948   2.581  0.0864  0.0501  0.0945
17200W        W37480   1.269   5.325   1.903  0.0950  0.3124  0.0088
17201W        W37481   3.703  10.290   1.978 -0.3073 -0.2356  0.1252
17202W        W37482  12.948  10.682   0.452 -0.1627  0.1139  0.0451
17203W        W37483  14.659   3.041   3.972  0.0481 -0.0740  0.0611
17204W        W37484  17.976   3.018  11.824 -0.6100  0.1095  0.0006
17205W        W37485   1.420   6.924  14.123  0.3005  0.1954  0.1169
17206W        W37486   3.367   1.588  13.678  0.1675 -0.0023  0.1804
17207W        W37487   9.087  14.207   3.141 -0.3362 -0.0603 -0.1110
17208W        W37488   3.249  15.633  11.953  0.1120  0.0582 -0.5633
17209W        W37489   2.681   1.986   2.211  0.0721 -0.0344 -0.0668
17210W        W37490   8.497   7.897   3.256  0.1570  0.1027 -0.0145
17211W        W37491  14.069  11.024   2.547 -0.0023  0.1224  0.1821
17212W        W37492  10.844  11.681   1.227  0.0358 -0.1032  0.1508
17213W        W37493   6.992   1.644   1.199  0.1712 -0.3414 -0.0242
17214W        W37494  18.581  12.719  12.722 -0.1604 -0.1370 -0.0600
17215W        W37495   6.033   4.538   2.624  0.2317 -0.1797 -0.1087
17216W        W37496   3.159   2.031   2.472  0.1351 -0.4084 -0.1050
17217W        W37497   7.564  11.546  14.150  0.3037  0.0930 -0.2643
17218W        W37498  13.641  17.524  15.122  0.3374  0.0572 -0.1416
17219W        W37499  16.084   5.471   3.170 -0.0691 -0.0922  0.1022
17220W        W37500  15.015  12.585   2.928  0.0058 -0.1013 -0.0320
17221W        W37501   0.627   8.647  13.165 -0.1248 -0.0358 -0.1569
17222W        W37502   8.731  16.527  14.963  0.4745 -0.1567  0.0968
17223W        W37503  13.086   2.110  14.676 -0.1351 -0.1624 -0.0101
17224W        W37504   4.180   7.216  13.721  0.0429 -0.0373 -0.0729
17225W        W37505   7.488   9.558  15.355  0.0388 -0.0792 -0.2471
17226W        W37506   0.917  17.951   4.837  0.1935 -0.1161 -0.3368
17227W        W37507   7.186   4.390  11.488  0.4403 -0.2767  0.0498
17228W        W37508  13.784   0.921  13.526 -0.0074 -0.1750  0.1407
17229W        W37509   7.676   9.886  13.538  0.0404 -0.0339  0.0091
17230W        W37510   4.618  11.013   1.573  0.2505 -0.1610 -0.3292
17231W        W37511   2.250   2.838  15.127  0.2568 -0.0831 -0.5203
17232W        W37512  17.603  14.655  11.681  0.1080  0.2281  0.2254
17233W        W37513   2.887   1.345  13.510 -0.1185 -0.2587  0.0291
17234W        W37514   2.005  12.564   4.297  0.2697  0.0050  0.0672
17235W        W37515  18.295  17.203   2.366 -0.1797 -0.3052  0.0037
17236W        W37516   2.411   1.073  12.162  0.1377  0.1960 -0.0639
17237W        W37517   6.683  10.173   2.563  0.3829 -0.2425  0.3573
17238W        W37518   3.242   6.942  13.771 -0.0056  0.0640  0.1631
17239W        W37519  10.299  14.670   4.067 -0.2795  0.2692  0.0875
17240W        W37520  18.169   2.241   1.917 -0.0363  0.2787 -0.3879
17241W        W37521  11.467   5.259  13.899  0.0237  0.0262 -0.2094
17242W        W37522   7.167  17.670  13.272 -0.2356  0.2905  0.1325
17243W        W37523   0.249  10.160  12.747 -0.0093  0.3080 -0.1936
17244W        W37524  18.543  12.140  12.264  0.0802 -0.1461  0.3325
17245W        W37525   6.267  14.496   4.422 -0.0118  0.0414  0.1064
17246W        W37526  16.979  18.724  14.195  0.0263  0.0998 -0.2571
17247W        W37527  16.485  16.206  10.641 -0.2121  0.1428 -0.0349
17248W        W37528   3.921  15.169   3.549 -0.3093  0.2456  0.1174
17249W        W37529   7.972  12.996  12.714 -0.0979  0.2459 -0.0989
17250W        W37530   9.404  12.049  12.979  0.0678  0.0660  0.1713
17251W        W37531   2.117  11.745   4.347 -0.0810  0.1439 -0.0328
17252W        W37532  14.356  14.578   4.131  0.1560 -0.0191  0.2987
17253W        W37533   9.984  16.125  12.069 -0.0923  0.2154 -0.3574
17254W        W37534   9.877   2.309   0.938 -0.2238 -0.0551  0.0382
17255W        W37535   2.772  13.209   2.935  0.0400  0.2165  0.1134
17256W        W37536   0.461  11.329   3.421  0.0139 -0.1122 -0.0752
17257W        W37537  15.971  10.233  13.425  0.1752 -0.0426 -0.1114
17258W        W37538  16.040  15.381  14.449 -0.0101 -0.0368  0.0108
17259W        W37539   5.266  11.520   2.596 -0.0038  0.1778  0.2206
17260W        W37540   5.050  12.772  14.996 -0.0276  0.1390  0.4290
17261W        W37541   5.935  15.718   0.305 -0.0004 -0.1568 -0.0224
17262W        W37542   2.311  12.748  12.045  0.2767  0.1430  0.1330
17263W        W37543   8.757   9.337   2.286 -0.1975  0.4345  0.2178
17264W        W37544   1.584   6.002   3.189  0.1535 -0.1992 -0.0401
17265W        W37545   5.248  10.922  13.289 -0.2362  0.0933  0.0745
17266W        W37546   7.672  18.166   2.439  0.1231  0.2190  0.3468
17267W        W37547   7.524   4.925  14.121  0.1807 -0.2325  0.0380
17268W        W37548  12.419   2.075  14.530 -0.1389  0.0032  0.3167
17269W        W37549   1.500  17.762  15.084  0.0227 -0.0999  0.1991
17270W        W37550  18.039  18.446  15.333 -0.4403 -0.1835  0.1920
17271W        W37551   4.894   0.200  12.903 -0.2626 -0.1401  0.0758
17272W        W37552  10.276   6.612  12.459  0.0444 -0.0892  0.1384
17273W        W37553  14.872   2.956  11.374 -0.1255  0.1322 -0.2335
17274W        W37554  10.317  18.295  12.705 -0.1832 -0.2434 -0.1087
17275W        W37555  11.487   9.045  14.378 -0.0223  0.1758  0.0251
17276W        W37556  17.115   2.788   3.426 -0.1011 -0.1905  0.1396
17277W        W37557   4.198   1.891   9.900  0.0705  0.1325  0.2943
17278W        W37558  10.673   0.949   0.244 -0.1520  0.1588  0.3472
17279W        W37559  10.495  13.123  11.017  0.1111 -0.0513 -0.1156
17280W        W37560   4.979   9.647   2.780 -0.0513  0.2593  0.0769
17281W        W37561   9.208  12.386   2.095 -0.1432  0.1565  0.1958
17282W        W37562   6.531   2.675   3.713  0.1738 -0.2136 -0.1633
17283W        W37563   6.696   0.296  14.247 -0.2078  0.1722  0.0481
17284W        W37564   5.639  14.689   2.026  0.1716 -0.0539 -0.0249
17285W        W37565   3.362  16.587   3.490  0.0326 -0.2854  0.2686
17286W        W37566   5.451   1.070  11.092  0.2060 -0.1734 -0.0085
17287W        W37567  11.785  16.979   0.906  0.1267  0.1681 -0.1159
17288W        W37568  13.585   3.146  13.782  0.1899  0.0390  0.1688
17289W        W37569   1.615   1.391  12.464  0.0637  0.0408  0.2094
17290W        W37570  13.834  17.302  11.248  0.2331 -0.0787  0.1356
17291W        W37571  14.453   8.260   3.148  0.0467 -0.3626 -0.0542
17292W        W37572  12.791  10.341  11.475 -0.0992  0.3209  0.0768
17293W        W37573  12.881  10.733  14.890 -0.1107  0.0557  0.0909
17294W        W37574   3.464  18.596   3.289  0.2082 -0.1864  0.0740
17295W        W37575  12.707   2.302   0.642  0.0455 -0.2471  0.0255
17296W        W37576   1.877  10.090  11.301  0.2271 -0.1781  0.2083
17297W        W37577  10.099  12.216  14.319 -0.1218  0.2885 -0.6006
17298W        W37578   2.179  13.382   0.703  0.0830  0.0172 -0.1493
17299W        W37579   3.916  13.092  13.701  0.0756 -0.0763 -0.0749
17300W        W37580   6.305   5.030  11.670 -0.0125  0.0737  0.0113
17301W        W37581   2.205  15.213  14.281 -0.2692  0.3282  0.0785
17302W        W37582  11.752  13.167  11.216 -0.1097  0.2117 -0.0353
17303W        W37583   8.618  13.590   4.409  0.2636  0.0681  0.1005
17304W        W37584  11.388  17.012   1.634  0.2472 -0.3146 -0.0599
17305W        W37585  15.210   6.021   1.766 -0.0627 -0.3606 -0.0429
17306W        W37586   4.840   3.474   2.674  0.0647 -0.0117 -0.0335
17307W        W37587   4.858   3.595   1.669  0.1601  0.0993  0.1878
17308W        W37588   8.141  18.666   3.220 -0.1698 -0.3764  0.0910
17309W        W37589   4.005   9.526  11.501 -0.0291 -0.1626  0.0233
17310W        W37590   7.275   2.212  13.616  0.2026 -0.3479  0.0866
17311W        W37591   4.837   4.106  12.334 -0.2280 -0.1007 -0.1631
17312W        W37592   8.199   6.881   2.840  0.1584 -0.3229 -0.0892
17313W        W37593   3.745  14.017  12.902  0.1787  0.0088 -0.0318
17314W        W37594   9.811  10.554  14.768  0.2581 -0.1774 -0.1690
17315W        W37595  17.990  16.070  14.373  0.0734  0.2106 -0.0614
17316W        W37596   5.454   3.910  12.000 -0.0325  0.0484  0.1275
17317W        W37597   2.934  14.127   3.949  0.0683  0.0344 -0.5507
17318W        W37598  18.363   8.871   0.920 -0.1870 -0.0710  0.1263
17319W        W37599   4.471  12.716   2.544 -0.0954 -0.1777  0.1258
17320W        W37600   2.687   7.179   3.589  0.1968 -0.1304  0.0185
17321W        W37601   8.693  17.370  13.378 -0.1720  0.1416  0.2964
17322W        W37602   4.288  11.545  13.241 -0.1815 -0.0808  0.1695
17323W        W37603  12.565   4.705   1.104 -0.0258  0.1794  0.1355
17324W        W37604   6.667  18.260   4.212  0.2144 -0.1364 -0.0993
17325W        W37605  16.711   1.156  10.970  0.0821  0.0655  0.0893
17326W        W37606  12.334  16.656   1.992 -0.0192 -0.0273  0.0844
17327W        W37607   9.663  15.467   1.764 -0.0058 -0.1798  0.0775
17328W        W37608  10.206  14.543  11.191  0.0062  0.0047  0.1592
17329W        W37609   6.398   7.748  12.990  0.1373  0.3709  0.0159
17330W        W37610   4.974   1.200  11.244  0.0794 -0.1972  0.0734
17331W        W37611   6.546   6.321   3.857 -0.3258  0.0538 -0.1158
17332W        W37612   8.090  17.284  11.154 -0.2162  0.0174  0.1111
17333W        W37613   7.806   7.585  14.061 -0.4126  0.3821  0.1624
17334W        W37614   9.874   1.015  14.480  0.0381 -0.2126 -0.0589
17335W        W37615  12.830   3.198   2.178  0.2836 -0.3979 -0.1285
17336W        W37616   8.432  11.029  11.097 -0.0480  0.0249  0.0390
17337W        W37617  13.556   5.345  13.055 -0.1563  0.0100 -0.1312
17338W        W37618  10.525   7.335   3.182  0.0851  0.0067 -0.0009
17339W        W37619  18.336   6.357  12.126 -0.3389  0.3851  0.2397
17340W        W37620  18.202   7.885   0.000  0.0790  0.0481  0.0283
17341W        W37621  15.493   4.301  11.948 -0.0822  0.1403  0.1455
17342W        W37622   1.200  18.680   2.816 -0.1933 -0.0303  0.0665
17343W        W37623  12.871   9.301  14.733  0.0357  0.1543  0.0588
17344W        W37624  16.563  18.604   0.361 -0.4437  0.1907 -0.0376
17345W        W37625   7.687  14.057  12.341  0.0322 -0.0041  0.0682
17346W        W37626   7.504   0.452  13.555 -0.1614  0.1815 -0.1698
17347W        W37627   2.341  17.894   1.583  0.0014 -0.0924  0.0486
17348W        W37628  16.952  16.677  12.065  0.1249  0.0100  0.0274
17349W        W37629   7.306   6.269   2.256  0.1482 -0.2539  0.1543
17350W        W37630  13.980  16.959   0.312  0.0458  0.0710 -0.0500
17351W        W37631   5.741   1.956  10.134  0.0905  0.1726  0.1196
17352W        W37632   0.703   5.717   3.348  0.1600  0.1180  0.2725
17353W        W37633   4.987  18.334   0.108  0.1689 -0.0080  0.0301
17354W        W37634  10.011   4.041  12.157  0.1409 -0.1350  0.1401
17355W        W37635   0.552   1.181  13.151 -0.0618  0.2117  0.0429
17356W        W37636  18.108  10.372  14.695  0.2976 -0.2269 -0.1479
17357W        W37637  18.638   1.997  12.982  0.1244  0.0588 -0.3810
17358W        W37638   9.726  18.557  12.055 -0.0802  0.1295  0.0361
17359W        W37639  14.138  13.643  10.041 -0.0906 -0.2372  0.1057
17360W        W37640   8.853   4.474   2.052 -0.0262 -0.1615  0.3194
17361W        W37641  17.665  15.205   0.168 -0.0155  0.0423  0.1078
17362W        W37642  10.499  16.257  13.014  0.0488  0.1825 -0.0807
17363W        W37643   8.342   8.027  14.538 -0.1294  0.2172  0.1229
17364W        W37644   6.782  12.811  14.464 -0.0748 -0.0569 -0.1250
17365W        W37645  12.417   4.189   1.135  0.1832  0.1892  0.4344
17366W        W37646  12.141   4.592  10.578 -0.0549 -0.2777  0.2128
17367W        W37647   6.494   1.921  13.736 -0.0196 -0.1198  0.1080
17368W        W37648  10.877   4.043   3.392  0.0286  0.1898 -0.0828
17369W        W37649   1.781  15.229  14.671 -0.1354  0.2860 -0.0094
17370W        W37650   2.101   0.628  14.458  0.2693  0.1015 -0.0265
17371W        W37651  11.777   4.162   0.257 -0.2183  0.1568 -0.0833
17372W        W37652  17.758  11.261   2.000 -0.0778  0.3466 -0.0979
17373W        W37653  10.011   1.999  12.870 -0.2668  0.1768 -0.2124
17374W        W37654  17.367   8.737   2.495  0.0534 -0.0228  0.1562
17375W        W37655  16.462   4.699  12.385  0.1970 -0.1871  0.0715
17376W        W37656   9.622  16.041   0.451  0.3217  0.0497 -0.0938
17377W        W37657   4.152   4.364  12.211 -0.1667 -0.0965  0.0146
17378W        W37658   4.195   2.918   1.465 -0.0724  0.0857  0.0520
17379W        W37659  16.838   4.197   2.529 -0.1423  0.3094 -0.2799
17380W        W37660  18.719   5.432  11.929 -0.3638 -0.1489  0.0332
17381W        W37661   8.834  17.550   0.717 -0.0879  0.3006  0.1636
17382W        W37662   0.418  14.740   0.035 -0.0445  0.0304 -0.0440
17383W        W37663   2.992   9.747  11.760 -0.1876  0.0462 -0.4365
17384W        W37664   9.082   4.122   1.378 -0.4633 -0.0279  0.2342
17385W        W37665  14.851   5.238  14.609  0.0162  0.0257  0.1295
17386W        W37666   5.726  11.639   0.781  0.0083 -0.1199  0.1287
17387W        W37667  10.055   8.421   0.389  0.0266  0.0097 -0.0067
17388W        W37668   4.030  18.730  11.630 -0.0402  0.0475 -0.3274
17389W        W37669   4.029   6.208   4.066  0.0276  0.0088 -0.2195
17390W        W37670   3.002   6.930   1.300 -0.2335  0.0863  0.1411
17391W        W37671  10.934   8.927   0.873 -0.1489  0.0720 -0.0338
17392W        W37672  12.126  10.908  10.923 -0.1711 -0.2315  0.0184
17393W        W37673  17.554   3.021  13.669  0.0885  0.2947 -0.0869
17394W        W37674   5.772   1.892   2.134  0.0112  0.4851 -0.1095
17395W        W37675   9.225   8.158   3.676 -0.1863 -0.2950  0.0165
17396W        W37676  17.383   0.725   4.314 -0.0245 -0.1402 -0.1472
17397W        W37677   4.315   3.847   3.782 -0.1581 -0.1317  0.1278
17398W        W37678  12.389   7.780  12.936 -0.4576 -0.1592 -0.1828
17399W        W37679   5.070  11.706  13.340 -0.3790 -0.0361 -0.0176
17400W        W37680   5.938   9.092  10.610  0.2766  0.2204  0.0295
17401W        W37681  12.973   0.832   1.616  0.1469 -0.3013 -0.0516
17402W        W37682   2.183   6.405   0.388  0.1725 -0.0287 -0.0620
17403W        W37683  16.898  18.685  15.070 -0.3578  0.0936  0.3002
17404W        W37684   1.769   5.604  14.269 -0.0402  0.0351  0.1120
17405W        W37685  15.235   7.679   2.075 -0.0298  0.3079 -0.5445
17406W        W37686   9.616   1.752   4.195 -0.1738 -0.1942 -0.1566
17407W        W37687   5.007  14.803  14.671  0.0534  0.2365  0.1304
17408W        W37688   3.358  17.116  13.969 -0.0863  0.4058 -0.3087
17409W        W37689  11.904  17.205  11.416 -0.1130 -0.2391  0.0773
17410W        W37690  15.602  14.211   1.406  0.1320 -0.3825  0.0696
17411W        W37691   4.607  14.168   0.806 -0.2287  0.0617 -0.2819
17412W        W37692   3.674   9.449   0.774  0.0296  0.2590 -0.0679
17413W        W37693   2.095  15.463   3.205  0.0248  0.2155  0.1784
17414W        W37694   2.998   8.149   2.180  0.0989 -0.1456  0.0971
17415W        W37695  13.667   2.676   1.585  0.4780 -0.3447  0.0845
17416W        W37696   1.175   0.953  11.360 -0.0150  0.2202  0.1382
17417W        W37697   6.465  11.450  14.438 -0.1467 -0.1813  0.0466
17418W        W37698  11.410  17.178   2.822  0.2345 -0.0435 -0.1278
17419W        W37699  11.666   3.221   1.003 -0.2121 -0.1490 -0.0983
17420W        W37700  12.835   7.381   0.516  0.0220  0.1245 -0.0805
17421W        W37701   9.404   6.608   1.297 -0.0276 -0.0184 -0.0366
17422W        W37702  18.167  12.580   2.672 -0.0551 -0.1284  0.1593
17423W        W37703   3.053  12.586   1.119 -0.0104  0.0544 -0.1194
17424W        W37704   1.558  15.682   3.404  0.0756  0.2627  0.1066
17425W        W37705   7.662  16.976   1.401 -0.0267 -0.2138  0.1482
17426W        W37706   8.717  15.400   0.184  0.2012 -0.1219  0.0507
17427W        W37707  14.331   0.958  13.652  0.1231 -0.0892 -0.0652
17428W        W37708   3.064  11.470   1.844  0.4164  0.2124 -0.2822
17429W        W37709  10.360  12.729   2.882 -0.0418  0.3260  0.2015
17430W        W37710  14.822   9.415   4.001 -0.1185 -0.1009  0.2739
17431W        W37711   8.446   8.573  12.538 -0.3335  0.0020  0.2298
17432W        W37712  14.029  15.247   2.593  0.0870  0.2109 -0.0147
17433W        W37713  16.954  17.750   1.444  0.0685 -0.0456 -0.0199
17434W        W37714  12.877  15.705  11.074 -0.1279  0.2450  0.1151
17435W        W37715  17.779   8.235   1.036 -0.3756 -0.0458  0.0642
17436W        W37716   1.606  17.970   4.197  0.0749  0.2644  0.0764
17437W        W37717  13.075   4.012   0.442 -0.1544 -0.1950 -0.0910
17438W        W37718   4.652  13.409   2.023 -0.0019 -0.3364  0.3654
17439W        W37719   7.512   7.465  13.116  0.0746  0.1179 -0.0276
17440W        W37720   5.638   6.081  10.712 -0.0296  0.0486  0.1978
17441W        W37721  11.862   7.047   0.895  0.0136  0.0434 -0.1342
17442W        W37722   3.062   1.111   4.396  0.0230  0.2604  0.0475
17443W        W37723  10.258   0.698  15.386  0.1654  0.2428 -0.0626
17444W        W37724   3.076  10.197  13.578 -0.1095  0.1948  0.3889
17445W        W37725  14.233  12.393  14.553  0.4333 -0.0056  0.0897
17446W        W37726   6.528   7.023   2.202  0.0124  0.2240 -0.1802
17447W        W37727  18.712   3.397  12.880  0.0679 -0.0163  0.1927
17448W        W37728  18.276   6.734  14.174  0.1055 -0.1288  0.0189
17449W        W37729   9.349  13.296   2.377 -0.2373  0.1980 -0.2648
17450W        W37730  10.577  11.707  13.266 -0.3185 -0.0953  0.1105
17451W        W37731  13.687  14.442   2.120  0.0413 -0.4339  0.0086
17452W        W37732  18.547   7.220   5.537 -0.0741  0.0811  0.0624
17453W        W37733   1.666  12.615  14.709  0.2856 -0.0813  0.3265
17454W        W37734   8.347   8.594  13.847 -0.1234 -0.2861  0.4409
17455W        W37735   0.764  17.749  10.936 -0.0564 -0.2836 -0.0512
17456W        W37736  15.551  18.012   3.295 -0.0413 -0.0295  0.1252
17457W        W37737  11.146   2.607   5.100  0.1306 -0.0744  0.2794
17458W        W37738   9.642   4.591   0.779 -0.1096 -0.0072  0.2556
17459W        W37739   8.004  13.768  13.221 -0.2186 -0.0601 -0.2211
17460W        W37740   7.818  16.355   0.652  0.2598 -0.2851 -0.0281
17461W        W37741   8.073   4.006   2.597  0.2598  0.1145 -0.1586
17462W        W37742  12.985   4.593   2.352 -0.0680 -0.1321 -0.5868
17463W        W37743  18.287   1.583  14.967  0.3617  0.1367  0.0416
17464W        W37744   0.041  11.375   3.760  0.0668  0.1930  0.0855
17465W        W37745  14.774   0.533   1.322 -0.0110  0.2333 -0.1765
17466W        W37746  14.274  14.422  15.386 -0.0208  0.3110  0.0383
17467W        W37747   4.434  14.326   3.640 -0.1465 -0.0044 -0.0588
17468W        W37748  15.467  10.751   0.348  0.2351 -0.0904 -0.2156
17469W        W37749  16.882   6.928   1.558  0.1242  0.0861 -0.0714
17470W        W37750   1.905  15.564  11.228  0.1347  0.0603 -0.0094
17471W        W37751   7.680  13.372   0.118  0.0794 -0.3801 -0.3758
17472W        W37752   5.595   7.005   4.264  0.0871  0.0752 -0.1172
17473W        W37753  17.012  17.826  15.238  0.1037 -0.4396  0.1981
17474W        W37754   1.257   7.169   1.517  0.2088 -0.0817  0.3968
17475W        W37755  18.359  15.072  14.570  0.1023  0.0710 -0.3239
17476W        W37756  18.664  18.198  11.471  0.0975  0.1129  0.1112
17477W        W37757   9.095   5.222   0.614  0.0829  0.3130 -0.2130
17478W        W37758  11.065  16.026   3.405 -0.1557  0.1429 -0.0760
17479W        W37759  17.938  13.970   0.097  0.2355  0.3500  0.0284
17480W        W37760  16.522  14.926   3.096 -0.1201 -0.3184 -0.2304
17481W        W37761   6.021   1.057   3.377 -0.2165  0.0879 -0.3409
17482W        W37762   8.852  10.188   2.197 -0.3563  0.0571  0.0060
17483W        W37763  17.871  16.070   2.619  0.0794  0.0639  0.0105
17484W        W37764   1.639   3.576   3.245 -0.0424 -0.1668  0.1132
17485W        W37765  12.342   3.982  12.277  0.0397 -0.0241 -0.0033
17486W        W37766  10.842   3.256  12.980 -0.1471 -0.1104 -0.0509
17487W        W37767   7.700   0.860   1.510 -0.1974 -0.2569 -0.1828
17488W        W37768  10.374  12.748  10.696  0.2442  0.0288  0.0310
17489W        W37769  10.688   9.279   4.114 -0.2335  0.2103 -0.1585
17490W        W37770   2.299  16.619  15.022  0.0368 -0.0927  0.1685
17491W        W37771  12.189   9.201   2.050  0.3727  0.0150  0.0298
17492W        W37772   1.961  12.941   4.044  0.2225 -0.0415  0.0686
17493W        W37773   0.597   2.973   2.106 -0.0765 -0.0539  0.1394
17494W        W37774   8.113  11.601  14.125 -0.0298  0.0086  0.0577
17495W        W37775  11.203  14.953   0.793  0.1411 -0.2974  0.0572
17496W        W37776  12.563   8.527   3.377 -0.0978  0.3612 -0.1481
17497W        W37777   4.436   8.700   3.640 -0.0627 -0.1194  0.2367
17498W        W37778  10.020  16.366   2.282  0.0226  0.1399 -0.0201
17499W        W37779   3.458   1.684  14.162 -0.0458  0.0704 -0.1515
17500W        W37780   4.668   3.310   1.264  0.3176  0.0105  0.1228
17501W        W37781  15.885   0.608  12.492 -0.0409  0.2110  0.1155
17502W        W37782  12.280   1.977  11.242 -0.2199  0.0805  0.0294
17503W        W37783   5.294  11.124  11.948 -0.0608  0.2537 -0.0242
17504W        W37784  15.209  17.380   0.363  0.0644  0.2294  0.2314
17505W        W37785   3.804   6.323   3.246 -0.2195 -0.0687  0.0723
17506W        W37786   4.220  13.718  14.494 -0.0173 -0.1921 -0.0214
17507W        W37787   7.427  18.215  11.574 -0.0693  0.1210 -0.1676
17508W        W37788   7.625   5.007   4.127 -0.1087 -0.0926 -0.2532
17509W        W37789   1.914  12.445  11.837 -0.0561  0.0065  0.2543
17510W        W37790  10.952   0.836   0.644 -0.3313 -0.1230 -0.0624
17511W        W37791  10.366  15.222  14.635 -0.0772  0.0374 -0.0285
17512W        W37792  11.180   5.596  14.679  0.2061  0.0704  0.0107
17513W        W37793  14.127   0.743  14.217  0.1569 -0.0831  0.2851
17514W        W37794   3.485   0.288   0.403 -0.4259  0.1179  0.0473
17515W        W37795  12.131  14.507   0.409  0.4361  0.3099  0.0665
17516W        W37796  15.366  13.326   3.958  0.0751  0.0192  0.2376
17517W        W37797   1.316   7.643   1.093  0.1132  0.0417 -0.2506
17518W        W37798   0.187   2.988  13.589 -0.0725 -0.2597  0.0474
17519W        W37799  10.084   2.017  13.380 -0.2218 -0.0759  0.1239
17520W        W37800  12.980  13.796  13.625  0.0185  0.2127 -0.0882
17521W        W37801  12.829   9.349   4.425 -0.2266 -0.0572 -0.0767
17522W        W37802   2.564   0.098   3.842  0.1748  0.1253  0.2057
17523W        W37803   1.620   1.541  13.481  0.1511  0.2696  0.2668
17524W        W37804   4.940  15.862  11.838  0.0798 -0.3155  0.1257
17525W        W37805   3.628   4.532   1.139 -0.0526  0.2623 -0.0738
17526W        W37806   6.038   2.037  13.643 -0.0495 -0.0111 -0.0543
17527W        W37807  15.950  16.592   1.247 -0.1318 -0.1297  0.0774
17528W        W37808  12.820  11.499   5.371  0.0249  0.3830 -0.2896
17529W        W37809   7.886   9.948  14.359  0.2264  0.4808 -0.0151
17530W        W37810  10.402   4.193  14.659 -0.5417 -0.0241 -0.0149
17531W        W37811   5.555  15.311   4.135 -0.3226  0.4401  0.0548
17532W        W37812   4.994   9.436  11.373  0.2143 -0.2100  0.0986
17533W        W37813   3.543  12.501   1.961 -0.2551  0.1090 -0.4979
17534W        W37814   2.820  11.238   2.421 -0.2289  0.0735  0.0748
17535W        W37815   2.320  10.244   1.194 -0.1345  0.0443 -0.1414
17536W        W37816  16.470  13.383   4.216  0.1447 -0.3644  0.1172
17537W        W37817   6.267  17.424  14.361 -0.1573  0.0223 -0.2824
17538W        W37818   4.596   1.466   1.809 -0.0248  0.0414 -0.2734
17539W        W37819   3.598  11.910   1.206 -0.0383  0.1750 -0.0300
17540W        W37820   9.049  16.264   3.196 -0.0842  0.1959 -0.2475
17541W        W37821   4.934  18.696   4.297  0.1645 -0.2542 -0.2240
17542W        W37822   7.840   5.431   3.923  0.0975 -0.2406  0.4491
17543W        W37823   3.955  12.086   2.216  0.4525 -0.2685 -0.0421
17544W        W37824   6.418   9.420   3.730  0.0712 -0.1053  0.0643
17545W        W37825  13.424  14.621   3.186  0.0493  0.0455  0.1310
17546W        W37826  13.433   8.162  13.241  0.0694  0.0543 -0.2713
17547W        W37827  15.465   4.276  14.829 -0.3089  0.2874 -0.0816
17548W        W37828  11.761  12.686   0.285  0.1303 -0.2292  0.1823
17549W        W37829  16.858   8.631  13.953 -0.0346  0.0328 -0.1976
17550W        W37830  11.032  18.087   4.369  0.1485 -0.2536 -0.3000
17551W        W37831   7.582   3.843  12.828 -0.1057 -0.0974 -0.1887
17552W        W37832  15.048  17.483  15.253  0.0502  0.1453  0.0960
17553W        W37833   0.107  12.589  13.160 -0.1939 -0.1311 -0.0281
17554W        W37834   9.563   9.928   1.814 -0.1603  0.1983 -0.2518
17555W        W37835  16.235   0.107   1.984 -0.0119 -0.0542 -0.0593
17556W        W37836   3.545   8.456   2.749 -0.1521  0.2077  0.0741
17557W        W37837   3.334   0.914   3.454  0.1729 -0.1052  0.0996
17558W        W37838   0.339  15.097   4.119  0.1339  0.2512  0.0541
17559W        W37839  14.190  11.758   0.083 -0.1125  0.3381 -0.0773
17560W        W37840  17.914  10.570   2.093 -0.0055 -0.1141  0.3232
17561W        W37841   4.650  13.194   0.435 -0.0537 -0.0975  0.1012
17562W        W37842  14.690  11.598   0.347 -0.1308  0.3131 -0.2583
17563W        W37843   6.657   1.476   2.153  0.0432  0.1979  0.1586
17564W        W37844   4.897  17.093  12.599 -0.1355 -0.0027  0.1133
17565W        W37845  17.416  15.589   1.751  0.0427 -0.1571  0.3055
17566W        W37846  12.734   6.311  13.160  0.0399 -0.1402 -0.2580
17567W        W37847  11.519   5.661   3.748 -0.0375 -0.0089 -0.1560
17568W        W37848  12.126  11.617   9.780  0.0130  0.1578 -0.2050
17569W        W37849   4.868   6.913  11.480 -0.1175 -0.1304 -0.1109
17570W        W37850  14.391   2.922   4.416  0.4176 -0.3027  0.0800
17571W        W37851  14.755  10.051  14.892 -0.1969  0.2212 -0.3186
17572W        W37852   4.090  13.968   0.018 -0.2901 -0.0099  0.1975
17573W        W37853   8.072   6.405   2.935  0.1602 -0.4125  0.1803
17574W        W37854  18.574   8.663   3.960 -0.0930 -0.0871  0.4521
17575W        W37855   8.538  14.359   0.442 -0.1392 -0.1170  0.1021
17576W        W37856   2.428   0.370  10.300 -0.2193 -0.1124  0.2106
17577W        W37857   6.004  18.630  10.395 -0.2557  0.0289  0.2233
17578W        W37858   9.496   2.595   1.133 -0.0049 -0.0524 -0.3350
17579W        W37859   0.135   9.265   1.427  0.3408 -0.1579  0.0300
17580W        W37860   0.292   4.388  12.165  0.2631  0.1392  0.0915
17581W        W37861  16.495   1.886  11.242 -0.0153  0.0886  0.1245
17582W        W37862   3.640   0.895  11.171  0.1316 -0.2095  0.1905
17583W        W37863  13.472  16.191  15.337  0.0728 -0.2468 -0.0107
17584W        W37864  17.322   2.025   0.462 -0.0020 -0.1022 -0.1014
17585W        W37865   6.125   2.032   2.997 -0.1483 -0.2264 -0.2208
17586W        W37866  14.069   8.899   1.513  0.1564 -0.1746 -0.1042
17587W        W37867  12.805   2.512   2.698  0.0584  0.2447  0.0945
17588W        W37868  18.690   8.656   1.943 -0.0256 -0.0298 -0.0153
17589W        W37869   1.581   4.999  12.073  0.2669 -0.1200  0.1022
17590W        W37870   1.573  11.612   4.571  0.0180  0.0711  0.0753
17591W        W37871   7.958  13.422   2.791  0.1615 -0.0901 -0.0254
17592W        W37872   5.131  11.995   2.726 -0.1172  0.0926 -0.2816
17593W        W37873  10.613  11.539   0.362 -0.1599  0.1945 -0.1813
17594W        W37874   9.328   0.861   2.347  0.0827 -0.0139 -0.0271
17595W        W37875  13.983  15.555   3.563 -0.1321 -0.0305  0.1705
17596W        W37876  18.352   4.683  14.927  0.1064 -0.3276 -0.2249
17597W        W37877  17.183  10.095  15.080 -0.2978 -0.1026 -0.0117
17598W        W37878   7.182   3.027   1.358  0.2941 -0.0549 -0.0629
17599W        W37879  12.277   7.009   1.178 -0.2835  0.0037  0.3670
17600W        W37880  17.840   9.423  12.773  0.1166  0.1166 -0.0257
17601W        W37881  12.192   0.094  14.877 -0.0549  0.1514  0.1987
17602W        W37882   6.326   3.191   1.618  0.0156 -0.2076 -0.1315
17603W        W37883  10.179  12.302  12.229 -0.2334  0.0138  0.1096
17604W        W37884  10.207   1.100   3.401  0.1661  0.0041  0.0601
17605W        W37885  15.656  10.663  14.531  0.2785  0.0675  0.0099
17606W        W37886   5.756  10.665   3.466 -0.0290 -0.1695 -0.0202
17607W        W37887   0.265  18.717  15.332  0.0764 -0.0294  0.0891
17608W        W37888  13.599  18.063  13.955 -0.2169 -0.0273  0.0758
17609W        W37889   9.825   5.152   4.250 -0.0120 -0.0774  0.4098
17610W        W37890  12.402   5.352  14.956 -0.0223 -0.0013  0.1800
17611W        W37891  14.282   3.816  12.311 -0.2274  0.0714  0.0734
17612W        W37892   7.532   3.000   0.004 -0.0027 -0.0889  0.0518
17613W        W37893   3.549   7.291  11.037  0.0061 -0.2159 -0.0135
17614W        W37894   9.366   8.319   1.977  0.1509  0.0675 -0.2069
17615W        W37895   0.179  15.646   3.517  0.1426 -0.0376 -0.1976
17616W        W37896  11.832   8.799  14.892  0.2612  0.0582 -0.1503
17617W        W37897  12.518   4.450  12.430 -0.0604  0.0258 -0.0893
17618W        W37898  17.778   5.083  11.913  0.1288 -0.0617 -0.1030
17619W        W37899  15.999   7.363  14.514  0.0337  0.1415 -0.0096
17620W        W37900   6.505   4.792  13.224  0.0636 -0.2183 -0.0728
17621W        W37901  10.807   6.101   4.292  0.0282  0.1334 -0.1224
17622W        W37902   7.446   3.444  15.160 -0.0023 -0.1885  0.1380
17623W        W37903  16.562   3.715  14.802 -0.0453 -0.2566  0.0710
17624W        W37904   1.794   8.071  11.961 -0.0861 -0.1065  0.0454
17625W        W37905   1.197  16.590  13.037 -0.1098 -0.4447 -0.5031
17626W        W37906  12.581  10.829   3.796  0.0323  0.1895  0.1209
17627W        W37907  15.017  11.558   4.211 -0.0358  0.1083 -0.3261
17628W        W37908   5.388  13.251   3.556 -0.0302  0.0494  0.1704
17629W        W37909   7.176  17.093  14.090  0.3304  0.0496  0.3078
17630W        W37910  15.885   8.324  11.765 -0.0004  0.0842  0.1576
17631W        W37911   6.990  10.027  12.774 -0.0412  0.5112 -0.0752
17632W        W37912   4.916  11.710   3.609 -0.1308 -0.0460 -0.0999
17633W        W37913   2.019   4.295   1.770 -0.2405  0.0582  0.2941
17634W        W37914   8.368   0.086  10.313 -0.0323  0.0274  0.2513
17635W        W37915   4.111  11.995  13.531  0.0240  0.1850 -0.1512
17636W        W37916   6.798   3.206  12.890 -0.3682  0.1566  0.0237
17637W        W37917   7.768  15.310  14.944  0.1536 -0.0192 -0.1803
17638W        W37918  12.132   0.503   3.484  0.0160  0.4108 -0.1561
17639W        W37919  13.404   9.681  12.549  0.0124 -0.1578 -0.0787
17640W        W37920   6.049   1.267  11.758 -0.1929 -0.4680  0.0671
17641W        W37921  12.578   6.112  14.358 -0.3020  0.1733 -0.2136
17642W        W37922   5.234   5.081   0.798 -0.1620 -0.0190  0.1862
17643W        W37923   0.157  14.566  11.694  0.1662 -0.2290 -0.2266
17644W        W37924   1.243  12.640   3.171 -0.0194 -0.1244  0.3385
17645W        W37925   2.074  12.738   4.925 -0.0240  0.0213  0.0351
17646W        W37926  15.762  17.138   4.145 -0.2087 -0.0487 -0.2241
17647W        W37927   4.132   1.632  14.135 -0.0563  0.1449  0.1335
17648W        W37928  10.584  10.525   2.615 -0.0223 -0.0301 -0.1612
17649W        W37929  14.134   7.523  13.523  0.1767  0.0079 -0.1291
17650W        W37930  16.525   1.877  12.335  0.1591 -0.0642 -0.0884
17651W        W37931   2.026   9.117   5.243  0.0075  0.4905 -0.0301
17652W        W37932   4.442   6.720   1.076 -0.1308  0.2755 -0.1808
17653W        W37933  15.289   4.726  15.230  0.0421 -0.2648 -0.1930
17654W        W37934   5.859   3.112  11.661  0.1361 -0.1093 -0.1024
17655W        W37935  14.145   4.007  13.226 -0.1936 -0.1825  0.0294
17656W        W37936  17.809  12.789  12.908 -0.2628  0.0962 -0.1830
17657W        W37937   5.149  16.732  12.311 -0.1981  0.0948  0.2438
17658W        W37938   4.108   6.940   3.977 -0.2876 -0.0782 -0.3484
17659W        W37939   2.450   8.929   1.139  0.1247 -0.0566 -0.2298
17660W        W37940  15.717  11.818  14.216 -0.0165  0.0305  0.2845
17661W        W37941  13.081   5.627  15.136  0.0254  0.0515 -0.0563
17662W        W37942   1.289  17.844   3.773 -0.1543 -0.2015  0.0150
17663W        W37943  12.166  15.229  12.643 -0.0497 -0.2836 -0.0922
17664W        W37944   2.606   2.756  12.888  0.0910 -0.0700 -0.0607
17665W        W37945   7.662  10.115   1.350 -0.2022 -0.0704  0.2499
17666W        W37946  10.640   7.359   3.706 -0.1833 -0.1348  0.0348
17667W        W37947   2.622   8.424  14.908  0.0199 -0.2791 -0.0183
17668W        W37948   5.714  16.797   3.324  0.0760 -0.1214  0.1384
17669W        W37949  11.541   8.963  15.343 -0.1228  0.1643 -0.0745
17670W        W37950   6.761   7.466  13.872  0.2267  0.0538 -0.0047
17671W        W37951   4.315  13.800   1.101 -0.1789 -0.1029  0.0267
17672W        W37952   8.951  12.534   1.104  0.0005 -0.1118  0.1717
17673W        W37953   4.943   9.177  12.796  0.2188  0.0459 -0.1583
17674W        W37954   3.865   9.090   4.114  0.0948 -0.1124 -0.2478
17675W        W37955   1.306   0.012  11.585  0.1429 -0.2633  0.0977
17676W        W37956   0.820   8.778   1.468  0.0156  0.1450  0.0237
17677W        W37957  15.884   9.247   0.710 -0.0824  0.1587 -0.0779
17678W        W37958   9.334  18.553   0.475 -0.0636  0.1772  0.0507
17679W        W37959   3.544  18.670  15.233 -0.1908 -0.0304  0.1542
17680W        W37960  13.501  11.256   1.609  0.0647 -0.3659  0.1145
17681W        W37961  13.578   3.597   2.554  0.0287 -0.1568  0.0141
17682W        W37962   3.984  16.447  12.927 -0.0540  0.1345  0.0255
17683W        W37963   4.792   5.141   0.954  0.1190  0.0625  0.0631
17684W        W37964   9.954  14.555   0.712  0.0606  0.0874 -0.1176
17685W        W37965  16.282   3.079  11.590 -0.0303  0.0515  0.4184
17686W        W37966  12.700  12.696  13.048 -0.2948 -0.1711  0.1206
17687W        W37967  12.308   3.785   3.156  0.1258 -0.2157  0.1061
17688W        W37968   9.334   4.202   0.450 -0.0653  0.2640 -0.0297
17689W        W37969   7.814  10.880  15.331 -0.0891 -0.3541  0.2120
17690W        W37970  17.926   5.302  14.272  0.2606  0.2833  0.1552
17691W        W37971  12.796  14.662   0.791 -0.4079 -0.1072 -0.3764
17692W        W37972  10.565   9.765   4.244  0.0174 -0.2655  0.2221
17693W        W37973  13.019   9.643   3.412  0.0446  0.0010 -0.1550
17694W        W37974   1.388   3.002  11.690 -0.2335 -0.4113  0.0229
17695W        W37975   6.340   3.177  14.450 -0.2473  0.0621 -0.0960
17696W        W37976  18.063   4.654   0.999  0.0796 -0.3214 -0.1613
17697W        W37977  14.814  16.876  12.034  0.1546 -0.2132  0.0936
17698W        W37978   3.408   2.114  13.647 -0.1092  0.0300 -0.0572
17699W        W37979   5.120  12.743  11.123 -0.0069  0.2663 -0.0331
17700W        W37980   8.601   4.918   1.871 -0.2348  0.0635  0.0393
17701W        W37981   6.493   7.495   4.180 -0.1589  0.3237  0.1679
17702W        W37982   1.077   9.834  13.942  0.3688 -0.1786 -0.0994
17703W        W37983   1.561   3.631  13.781 -0.1727 -0.0473 -0.1520
17704W        W37984  11.339   9.877   3.670  0.0215 -0.0065 -0.1829
17705W        W37985   6.726  13.094   2.934  0.1050  0.2299  0.1894
17706W        W37986   8.957   8.365   4.106 -0.0468  0.0864  0.2950
17707W        W37987   9.451   8.228  12.232  0.1498 -0.0535 -0.0568
17708W        W37988   6.835  10.891   0.608  0.2269 -0.1667 -0.1562
17709W        W37989  13.770  11.112   2.082 -0.1730  0.0078  0.1799
17710W        W37990   7.673  15.131  11.412  0.1888 -0.1419  0.0723
17711W        W37991   0.368   4.430   2.732  0.2077  0.0860 -0.1639
17712W        W37992   2.731   0.652   0.967  0.1381 -0.0458  0.1880
17713W        W37993  14.289  14.179  14.470 -0.1127 -0.2603 -0.1002
17714W        W37994   6.702  16.396   2.427 -0.0601  0.0824  0.2102
17715W        W37995  10.971  12.081   1.640 -0.4203  0.1752 -0.2449
17716W        W37996  18.667  18.309  13.765 -0.1105  0.0749  0.0145
17717W        W37997  16.079  12.656   3.724  0.0149  0.0427 -0.1624
17718W        W37998  13.267  16.921  13.956 -0.2094 -0.1583 -0.0542
17719W        W37999  11.238  14.176   0.704  0.3813 -0.1346 -0.0512
17720W        W38000  11.233   2.156   0.519  0.0593  0.0561  0.0348
17721W        W38001  15.414   9.333  13.958  0.2787  0.1127  0.1088
17722W        W38002   5.183  17.946  14.484 -0.1214  0.1092 -0.0481
17723W        W38003   4.952  12.583   0.058  0.1885  0.0980  0.0010
17724W        W38004   0.142   4.515   1.292  0.3610 -0.5415  0.1152
17725W        W38005  18.649   2.347   2.814 -0.3175  0.2118  0.0106
17726W        W38006  14.398   5.301  14.414  0.0914  0.1130  0.2624
17727W        W38007  17.591  11.046   4.217  0.0857 -0.2541 -0.0574
17728W        W38008  12.809  11.502  11.343  0.2732  0.1906 -0.1082
17729W        W38009  11.357  17.993   2.479 -0.0739 -0.0401  0.0706
17730W        W38010   2.296  17.065   3.583  0.3723  0.0049 -0.4320
17731W        W38011   4.121   6.151  14.436  0.4933  0.4144  0.3048
17732W        W38012   2.365   1.712   2.495  0.1785 -0.0180  0.1193
17733W        W38013  10.576  18.347   3.061 -0.3226 -0.0141  0.0229
17734W        W38014  11.581   3.977   1.865  0.1549  0.2105 -0.1729
17735W        W38015  14.803  12.838   2.513  0.1135  0.1208 -0.1838
17736W        W38016  17.640   0.844  12.287 -0.1193  0.1756 -0.2687
17737W        W38017  14.848  13.301   1.993  0.0553  0.0359 -0.1130
17738W        W38018  14.326  10.633  13.175  0.0273 -0.0124  0.0178
17739W        W38019  13.411  12.330   3.929 -0.0734  0.2445 -0.1210
17740W        W38020  14.935  14.130   3.030  0.2281 -0.1038  0.2042
17741W        W38021  11.109   6.483   2.196 -0.2189  0.1895 -0.1326
17742W        W38022   2.365   3.152   2.571  0.4113 -0.3130  0.0740
17743W        W38023   7.788   0.263  13.917  0.1929  0.4308  0.2090
17744W        W38024   9.980   2.064   2.821  0.0501 -0.2842 -0.1137
17745W        W38025   3.955   9.874   0.802 -0.0159 -0.2047 -0.0431
17746W        W38026  13.416   5.213  14.523  0.1024  0.0378 -0.0237
17747W        W38027  13.823  13.981  13.134  0.2063 -0.2298  0.0243
17748W        W38028  17.719  11.620   1.087  0.0598 -0.0027 -0.1332
17749W        W38029   1.509   7.603  12.154 -0.2155  0.1917  0.0550
17750W        W38030  10.568  12.789  13.590 -0.2410  0.0352  0.0010
17751W        W38031  10.166   5.490   2.750  0.2089 -0.3402 -0.0894
17752W        W38032   9.643   0.326  13.639  0.0779 -0.4223 -0.1508
17753W        W38033   1.818   5.224   3.764  0.0457  0.0872 -0.1331
17754W        W38034   4.691  17.509   1.822  0.0282  0.0386 -0.3468
17755W        W38035   4.430   5.076   0.529  0.0816  0.1410  0.4815
17756W        W38036   2.624  10.749   2.704  0.0645 -0.1461 -0.0464
17757W        W38037   5.626   6.555  10.312  0.0475  0.1589  0.1662
17758W        W38038   5.993   9.997   1.867 -0.3689  0.1797  0.0280
17759W        W38039  10.593   2.228  12.556 -0.0505 -0.1298 -0.1426
17760W        W38040  10.394  13.354   1.108  0.0441 -0.3694  0.2016
17761W        W38041  18.125   3.223  15.395  0.1901 -0.0968  0.1870
17762W        W38042  13.695   8.462  12.551 -0.0445  0.0803  0.2121
17763W        W38043   7.802  14.729  14.058  0.0446  0.1158  0.1050
17764W        W38044   5.712   9.309   2.446 -0.1330  0.1489 -0.1513
17765W        W38045  16.379  10.700  15.122 -0.0847 -0.0050 -0.0572
17766W        W38046   7.729  10.119  13.000 -0.2273  0.1271 -0.0256
17767W        W38047   4.877  13.812  14.960  0.1684  0.0786  0.2655
17768W        W38048  15.476   1.296   1.973  0.1892  0.1348 -0.1683
17769W        W38049  10.632  17.041   1.852 -0.0911  0.0750 -0.1811
17770W        W38050  17.273  11.522  12.506  0.2715  0.1295 -0.1021
17771W        W38051  12.433  18.144  14.116 -0.0872  0.1697 -0.1430
17772W        W38052  14.941  12.459   4.435 -0.2093 -0.1717  0.0522
17773W        W38053  11.994   7.354   2.251  0.0848 -0.0055 -0.1895
17774W        W38054   1.060  10.547   3.116 -0.0464  0.2640  0.1863
17775W        W38055  16.617   3.090   4.404 -0.0873 -0.1111  0.0297
17776W        W38056  10.634  12.768  15.351  0.1124 -0.0008  0.0019
17777W        W38057   1.650  17.853  14.141 -0.0201 -0.1807 -0.0930
17778W        W38058   5.091  13.222   3.121 -0.0743  0.2767  0.1015
17779W        W38059   5.284  13.956  14.425  0.3206 -0.3088 -0.0252
17780W        W38060  13.411   7.112  12.020  0.2107 -0.1168 -0.1010
17781W        W38061   0.709  11.276   0.788  0.1091  0.1374  0.0795
17782W        W38062  13.011  11.597   1.633 -0.2337  0.0493 -0.0419
17783W        W38063   0.295  18.465   0.484  0.0043  0.0463 -0.1563
17784W        W38064   8.693   7.770   4.635 -0.3104  0.0106  0.0446
17785W        W38065   8.511   0.660   1.405  0.0310  0.0191 -0.0611
17786W        W38066  15.756   4.706   0.750 -0.1903  0.0609  0.0721
17787W        W38067  15.824  12.896  13.872 -0.2275 -0.1617  0.1879
17788W        W38068  10.332   4.737  14.386  0.2408  0.2026 -0.1838
17789W        W38069  11.521  17.698   2.864 -0.0952  0.1402 -0.2094
17790W        W38070   7.891  13.818   4.930  0.2288  0.2042 -0.0802
17791W        W38071  13.375   4.549   2.744 -0.1220  0.0964  0.1041
17792W        W38072   6.854  18.087  13.340  0.1604  0.1019  0.0622
17793W        W38073  10.475  11.068  13.574 -0.0257 -0.0719 -0.1490
17794W        W38074   9.568  13.407  13.024  0.0353  0.3307  0.2150
17795W        W38075  10.104  17.698  14.591  0.0217 -0.2992 -0.0901
17796W        W38076  11.866  10.902   2.400 -0.3159 -0.3011  0.1774
17797W        W38077   9.329   6.397  14.353 -0.3129  0.1127 -0.0358
17798W        W38078  11.934  11.898   3.338 -0.1280 -0.0997 -0.1497
17799W        W38079   2.447   5.241  13.901 -0.1960 -0.1512  0.0532
17800W        W38080  12.328  17.746   3.943 -0.1339  0.2707  0.1484
17801W        W38081   3.150  13.706  15.249  0.0703  0.0633  0.0433
17802W        W38082  10.010  17.428  15.178 -0.0092 -0.0133  0.5955
17803W        W38083   8.884   5.841   3.416  0.0207 -0.0862  0.1840
17804W        W38084   5.141   5.586  11.037  0.1348 -0.4608 -0.5155
17805W        W38085   7.905  10.958   0.927  0.0156 -0.1984 -0.1600
17806W        W38086   3.733  12.044  14.880  0.1381  0.0954  0.2081
17807W        W38087  16.817  16.594  14.334 -0.2684  0.0947  0.4120
17808W        W38088   9.053  16.916  11.340 -0.1395  0.2124 -0.0740
17809W        W38089  15.214  10.456  11.844 -0.0768 -0.0078 -0.5550
17810W        W38090  15.554  18.059   3.765  0.1407  0.1864 -0.0876
17811W        W38091  17.394  12.426  13.038 -0.3338 -0.1283 -0.2518
17812W        W38092   4.029   3.446   3.804 -0.2244  0.1449  0.3500
17813W        W38093   7.499   9.052   2.867 -0.2275  0.2329  0.0519
17814W        W38094   7.429  17.226  12.946 -0.3476  0.0524  0.1252
17815W        W38095   1.679   7.456  14.911  0.1432  0.2385  0.0367
17816W        W38096  16.642   5.601  11.563 -0.4203  0.0309  0.2186
17817W        W38097  11.381  11.445  13.617 -0.1766 -0.1893  0.2821
17818W        W38098  17.029  10.276  12.529 -0.0581  0.0783  0.1958
17819W        W38099   3.784   2.015  12.885  0.0349 -0.0015 -0.0087
17820W        W38100   5.592   1.032  14.502 -0.1037  0.0672  0.0111
17821W        W38101  16.407   2.386  13.175  0.1711 -0.0673 -0.1579
17822W        W38102  13.785   1.208   0.691  0.2219 -0.0420  0.1234
17823W        W38103  13.238   0.115   0.785 -0.0523  0.3514  0.1846
17824W        W38104  14.349   5.386   3.758 -0.2619  0.0120  0.3726
17825W        W38105  17.848  13.123  11.949  0.1471  0.0245  0.0898
17826W        W38106   1.877  13.078   3.545  0.1296 -0.1298 -0.1672
17827W        W38107  17.549   4.157   1.612 -0.0121 -0.0862 -0.0781
17828W        W38108   7.087   4.504   1.574 -0.1192  0.2766  0.0098
17829W        W38109  16.296  13.909   3.342 -0.2729  0.1271 -0.2320
17830W        W38110  12.919   5.571   3.355 -0.2773  0.1552  0.1341
17831W        W38111   9.992   5.746   1.178 -0.0330 -0.3124 -0.0097
17832W        W38112   9.296   5.550  11.913 -0.1652 -0.2063  0.0545
17833W        W38113   4.272   4.122   3.277 -0.2255 -0.2167 -0.2306
17834W        W38114   7.953   7.096   0.701 -0.0745  0.2179  0.0130
17835W        W38115   6.104  16.731  12.554  0.0415 -0.0597 -0.1743
17836W        W38116  16.950   4.328  11.333  0.0012 -0.0159  0.4808
17837W        W38117  13.072   8.027   2.751 -0.0260 -0.2262 -0.2332
17838W        W38118   5.780  13.724   1.995 -0.0628 -0.4547  0.1162
17839W        W38119   4.902  15.405  14.931 -0.3669 -0.0104  0.1207
17840W        W38120   8.048  10.231  13.604  0.2770  0.3443  0.1514
17841W        W38121  16.810  14.949   4.920 -0.0655 -0.1959 -0.1466
17842W        W38122   9.170   1.416   0.394  0.0409  0.1188 -0.0478
17843W        W38123   9.905   0.646  13.268 -0.0674 -0.1657  0.1915
17844W        W38124   2.527  17.859   3.775 -0.0815 -0.1852  0.3353
17845W        W38125  16.484   8.369   4.114 -0.1826 -0.0628  0.3970
17846W        W38126   5.374   6.661   4.047  0.2053  0.0816 -0.2158
17847W        W38127  14.349   5.134   3.352  0.0338  0.0579  0.2059
17848W        W38128   4.917   6.827   1.715 -0.0693 -0.2103 -0.0593
17849W        W38129   2.714   6.436  12.482 -0.0936 -0.1077 -0.0758
17850W        W38130   2.954  12.266   3.885 -0.1709  0.0491 -0.3302
17851W        W38131   9.857  17.693  12.420  0.0319  0.1812  0.1447
17852W        W38132  10.135  13.438  12.812  0.1715  0.0695  0.1313
17853W        W38133  10.542  12.964   2.492 -0.3206 -0.1607 -0.0121
17854W        W38134   6.446   9.211  12.734  0.1346  0.3576  0.0202
17855W        W38135  10.748  16.387   3.594 -0.1267  0.1953 -0.2389
17856W        W38136   4.461  17.948  13.704 -0.3622 -0.2649 -0.1514
17857W        W38137  14.482  14.289   3.756  0.0692 -0.2934  0.0863
17858W        W38138   2.987  14.422  14.013  0.3404  0.1312  0.0963
17859W        W38139  12.401   5.222   3.283  0.3856  0.2040  0.1021
17860W        W38140   9.033  13.111  12.734 -0.0946 -0.1250 -0.0303
17861W        W38141   1.559  13.216   2.277  0.0794 -0.3179 -0.1240
17862W        W38142   9.048   7.839  14.564 -0.1187  0.0411 -0.1015
17863W        W38143  14.600   3.135   0.792 -0.0482  0.0012 -0.2605
17864W        W38144   1.031   8.707  12.840  0.0431 -0.2536  0.2357
17865W        W38145   5.521   3.572  13.400 -0.0523  0.0022 -0.0766
17866W        W38146   6.361  15.804  13.324  0.0186 -0.3090 -0.3601
17867W        W38147   0.561  13.438  13.612  0.1285 -0.1482 -0.1115
17868W        W38148  17.195  15.012   4.576  0.0390 -0.1652 -0.1029
17869W        W38149  18.370   4.044  14.236  0.0117  0.0802 -0.2358
17870W        W38150   2.523   6.056  14.229  0.2094  0.2612  0.2608
17871W        W38151   7.331   8.793  11.682  0.1441 -0.0005  0.1093
17872W        W38152   3.358  14.614   0.959  0.1990  0.1143  0.1024
17873W        W38153  11.327  12.931   3.227  0.0363 -0.2117 -0.0235
17874W        W38154  18.275   9.708  12.440  0.2391 -0.0658  0.0970
17875W        W38155  12.816   3.298   0.020 -0.0260 -0.1850  0.0502
17876W        W38156  13.585   9.932   0.313  0.0201  0.0892  0.2567
17877W        W38157  17.579  18.171   4.679 -0.3832 -0.2259  0.2879
17878W        W38158   8.944   1.947   2.578 -0.0407  0.1612 -0.1039
17879W        W38159  16.833   6.947   4.231  0.0527 -0.0226 -0.0007
17880W        W38160  17.873   5.902   3.441  0.0688  0.4926 -0.0604
17881W        W38161   9.596  15.020   0.258  0.0989  0.1564  0.0695
17882W        W38162  12.136   2.011  10.043  0.2058 -0.3273 -0.0703
17883W        W38163  11.329   8.044   3.952  0.3852 -0.0825 -0.0174
17884W        W38164  10.111  18.544  14.424  0.0080 -0.1519 -0.0643
17885W        W38165   6.110  10.673   4.916 -0.1353  0.4436 -0.0855
17886W        W38166  10.484   4.924   2.105  0.0464  0.1381  0.1498
17887W        W38167  11.788  11.294  13.296 -0.2753  0.1144 -0.1266
17888W        W38168  17.112  10.770  11.681 -0.0926  0.1543  0.0772
17889W        W38169   3.379  11.043   2.555 -0.2526 -0.1059 -0.2955
17890W        W38170  11.146  18.679   1.674 -0.1625 -0.1943  0.0804
17891W        W38171  16.939  11.210  12.340 -0.1578 -0.3309 -0.1870
17892W        W38172   0.030   3.788   3.678  0.1381 -0.1742 -0.0994
17893W        W38173  17.719   1.100   0.126 -0.1240 -0.1614  0.4190
17894W        W38174   4.334  15.408   3.812 -0.3324  0.0156 -0.3082
17895W        W38175   7.774  16.775  11.510  0.1186 -0.0372  0.4455
17896W        W38176   5.281   7.158   3.632  0.1471  0.0695 -0.1480
17897W        W38177   4.876  10.511   0.127 -0.1193 -0.1294  0.1196
17898W        W38178  15.513   8.841  13.793 -0.0364 -0.0370 -0.2133
17899W        W38179   7.845   8.294   4.469  0.0040 -0.1814 -0.3391
17900W        W38180   7.363  17.604  10.922  0.0706 -0.0297  0.0139
17901W        W38181   6.974  13.545  14.024  0.0832  0.0368 -0.0748
17902W        W38182  16.969   0.992   4.405 -0.1695 -0.0192 -0.0716
17903W        W38183   2.588   8.093  11.311 -0.0327  0.0387 -0.0028
17904W        W38184  11.028   7.724  13.253 -0.2796  0.0900  0.0408
17905W        W38185  16.862  14.202   1.412 -0.2642  0.5856  0.0366
17906W        W38186   5.525   0.346   3.737 -0.0625 -0.0943 -0.2995
17907W        W38187  17.522   9.348  15.075  0.0352  0.0029  0.1321
17908W        W38188  10.688  18.187   4.000 -0.1315  0.0864  0.0723
17909W        W38189   1.885  10.364   0.865 -0.1657 -0.0973 -0.1974
17910W        W38190  10.696   5.497   4.220 -0.0908  0.2052 -0.0773
17911W        W38191   3.424  18.246   0.796  0.0022 -0.0068  0.2778
17912W        W38192  16.309  10.454  13.082 -0.0874  0.0549 -0.0774
17913W        W38193   9.859   0.146  10.098 -0.0296 -0.1406 -0.1432
17914W        W38194   6.049   9.960  11.117 -0.2958  0.1177  0.1524
17915W        W38195   6.694   8.091   1.175 -0.1593  0.0527 -0.1612
17916W        W38196  12.270  13.813  15.286  0.0443  0.1840  0.2108
17917W        W38197  18.340  12.547  11.081  0.0231 -0.2800  0.1519
17918W        W38198  11.373   4.379   4.417 -0.0695  0.0962  0.1587
17919W        W38199  18.035  10.794  14.421  0.2031 -0.2735  0.1487
17920W        W38200   6.358  15.446   1.651  0.2005  0.3757  0.0848
17921W        W38201   3.387  15.207  15.009  0.0404  0.0003 -0.1167
17922W        W38202  10.746  10.560  11.817 -0.0611 -0.0675  0.3166
17923W        W38203   8.476   9.978  12.653 -0.1049  0.4357  0.1414
17924W        W38204   6.783   1.604  12.104  0.4310  0.0812 -0.3349
17925W        W38205   0.050  14.565  15.053  0.1756 -0.1379  0.1646
17926W        W38206  12.155  16.719  12.981  0.0080  0.0009 -0.2507
17927W        W38207   2.119   5.714  13.158  0.0894 -0.1148 -0.0141
17928W        W38208   1.045  12.634   5.266 -0.0730  0.0977  0.1277
17929W        W38209  12.175  18.644  13.129  0.1837  0.3017 -0.1196
17930W        W38210  15.768   1.526  14.863  0.3299  0.0696  0.1516
17931W        W38211   6.762  15.487  11.741 -0.1251  0.0642 -0.1703
17932W        W38212  11.070   6.767   3.145  0.1426 -0.0849  0.1313
17933W        W38213   1.968  10.202   3.545 -0.0609  0.0270  0.2112
17934W        W38214   7.810   6.836  15.012 -0.2018  0.0658 -0.3717
17935W        W38215  11.735  11.939   0.806  0.3205  0.3637  0.1306
17936W        W38216   7.217   8.367  13.113 -0.1117 -0.1698  0.1364
17937W        W38217   7.983   5.544   3.091 -0.0084  0.2967 -0.2681
17938W        W38218   5.665   8.389   2.180 -0.2229 -0.0395  0.3227
17939W        W38219   1.698   8.871  12.440 -0.2282  0.0147  0.0120
17940W        W38220   9.230   2.022  10.804  0.1076 -0.3603 -0.2089
17941W        W38221  14.316  12.869  14.784  0.1313  0.1188  0.3260
17942W        W38222   5.261   0.517   0.391 -0.0325  0.1105 -0.1764
17943W        W38223  15.382   9.647   2.721 -0.2159 -0.0826 -0.0449
17944W        W38224  14.977   1.758  15.315 -0.1913 -0.0009  0.0515
17945W        W38225   8.875  18.188  14.951 -0.0745 -0.0825 -0.2068
17946W        W38226   0.789  15.693  14.339 -0.0532  0.6403 -0.0184
17947W        W38227   3.138  16.961  14.381 -0.1930 -0.2295 -0.1684
17948W        W38228   9.819  17.332   3.234 -0.0516 -0.0514  0.1222
17949W        W38229   6.605   4.139   3.701  0.1137 -0.0926 -0.0061
17950W        W38230  17.211   7.431   3.528  0.0377  0.0192  0.1068
17951W        W38231   1.900   2.678   1.335 -0.3376  0.3730  0.0426
17952W        W38232  13.636  13.544  12.254 -0.2590  0.0802  0.2901
17953W        W38233   3.789   4.649  15.025 -0.1848 -0.1121  0.1753
17954W        W38234  10.960   9.611  13.180  0.2708 -0.1934  0.0172
17955W        W38235   3.216   8.466   0.642 -0.0778 -0.1382  0.1208
17956W        W38236  16.556   4.375  12.997 -0.1611  0.1358  0.1384
17957W        W38237  18.189  12.449   0.162 -0.1412  0.1198 -0.0810
17958W        W38238   8.366  10.838  15.384  0.0439 -0.3847  0.0114
17959W        W38239  12.314   8.931   3.298  0.1372 -0.0457  0.0112
17960W        W38240  11.363  17.373  14.977 -0.0687 -0.1566  0.0667
17961W        W38241   4.676   7.487   1.886  0.0875  0.3128 -0.1532
17962W        W38242   4.108  17.267  11.475 -0.0132  0.1982 -0.1692
17963W        W38243   9.305   0.172  15.030 -0.0852 -0.1524 -0.2802
17964W        W38244  13.044  10.652   3.852  0.0062 -0.3266 -0.0566
17965W        W38245  12.100  10.868  11.605  0.0092 -0.0330 -0.1045
17966W        W38246   1.490   4.056  12.176 -0.2178  0.2127 -0.2406
17967W        W38247  17.646  17.126  14.899  0.3305  0.1749  0.2966
17968W        W38248  11.777  16.013   0.105  0.0496  0.0866 -0.2524
17969W        W38249   7.841   5.244  13.346 -0.2482  0.1249  0.2098
17970W        W38250  17.761   0.783   0.511 -0.1524 -0.1099 -0.0460
17971W        W38251  12.129  17.914   2.140  0.2301 -0.1095  0.1026
17972W        W38252   9.888   2.019   3.589 -0.1017  0.0562 -0.1535
17973W        W38253   6.959  15.132   3.236  0.1155 -0.3253  0.0978
17974W        W38254  11.186   5.093  11.176  0.3476  0.1506 -0.0250
17975W        W38255   7.872  15.475   1.303  0.3387 -0.1383 -0.0945
17976W        W38256   8.012   4.752   0.027  0.0356 -0.0484 -0.1652
17977W        W38257  16.031  17.222   4.932 -0.0175  0.0652 -0.0574
17978W        W38258   0.380   5.438   3.717  0.0703 -0.2914  0.3993
17979W        W38259  13.881  15.640   1.253 -0.0820 -0.0475  0.2460
17980W        W38260   1.549   8.304  13.171  0.0816  0.2684  0.2617
17981W        W38261  14.075   7.549   0.694  0.1027  0.0451 -0.2317
17982W        W38262  14.505  12.629   2.173  0.0874 -0.0532  0.4971
17983W        W38263   0.229   0.148  14.486 -0.0017  0.1873  0.3761
17984W        W38264   5.089  15.763  15.202  0.2187 -0.1040 -0.2034
17985W        W38265   5.986   1.542  12.621 -0.3216 -0.1819 -0.1673
17986W        W38266  10.912   7.672   2.285 -0.1209 -0.2801  0.0804
17987W        W38267   7.118   9.744  11.753 -0.0725 -0.1860  0.1300
17988W        W38268   9.852   4.925  15.317  0.1343 -0.1885 -0.1453
17989W        W38269   0.083   4.387   0.723  0.0414  0.1762  0.2213
17990W        W38270   0.750  16.333   0.664  0.1845 -0.0315  0.0339
17991W        W38271   0.419  18.455   2.428 -0.2390  0.1454 -0.1004
17992W        W38272  12.183  17.865  15.053 -0.1473  0.0055 -0.0796
17993W        W38273  12.479  15.146  13.437  0.1027  0.2728  0.1520
17994W        W38274  15.865   9.233  15.169 -0.4351  0.1653 -0.3719
17995W        W38275  17.024  10.407   2.677 -0.2380 -0.0984 -0.0945
17996W        W38276   0.290   2.516   0.600  0.0788  0.0347 -0.0199
17997W        W38277  16.371   2.850  14.027  0.2026  0.2191 -0.3622
17998W        W38278  16.015  17.401   4.471  0.0322  0.2069 -0.4034
17999W        W38279   4.800  15.491  12.809 -0.0323 -0.1146  0.0514
18000W        W38280   8.658   6.829  14.137  0.1556  0.0327  0.3360
18001W        W38281   0.630  12.379  14.335  0.1178  0.0578 -0.0153
18002W        W38282  13.451  13.167   4.571 -0.2051 -0.0202  0.3744
18003W        W38283  14.542   8.954   0.798 -0.1525 -0.1568  0.0984
18004W        W38284  12.556   6.144  13.614  0.0417 -0.0450 -0.1118
18005W        W38285   4.646  12.003  12.083 -0.3571  0.2770  0.1309
18006W        W38286   9.797   5.461  13.229 -0.2458 -0.2118  0.0249
18007W        W38287   5.265   8.382   1.055 -0.0652 -0.3324 -0.2402
18008W        W38288   2.814  14.806   2.202 -0.0836  0.1209 -0.0652
18009W        W38289  16.897  13.517   0.546 -0.0606  0.1321  0.1587
18010W        W38290   7.850   0.542  10.795 -0.4187  0.1323 -0.0063
18011W        W38291   0.564  13.909  14.659  0.0996 -0.1820 -0.2872
18012W        W38292   9.013   8.964   2.724  0.0688  0.1858 -0.2770
18013W        W38293  11.436   6.800   2.417  0.1631 -0.5239 -0.1576
18014W        W38294  15.463   1.606   4.502 -0.1013 -0.1788  0.0873
18015W        W38295   8.984   1.094  15.062 -0.0492  0.2653  0.1488
18016W        W38296   7.867   7.738   2.401 -0.1098 -0.0712  0.3323
18017W        W38297   5.429   5.618   2.022 -0.0053 -0.0428  0.0671
18018W        W38298  17.841   7.875  14.495 -0.1054 -0.1395 -0.3074
18019W        W38299  12.584   7.781  13.364  0.2047  0.0564  0.0037
18020W        W38300  15.346   3.803  13.857 -0.0509 -0.1399  0.0614
18021W        W38301  15.813   7.872   0.971 -0.2374  0.2041  0.0806
18022W        W38302  12.908   6.393   1.603 -0.3126 -0.1476 -0.1187
18023W        W38303  11.983  11.386   2.429  0.1487 -0.3050  0.0483
18024W        W38304  11.143   7.945  11.885 -0.1304 -0.0557 -0.4837
18025W        W38305  15.622   5.484   2.986 -0.1781 -0.0337 -0.1180
18026W        W38306   2.269   2.970   0.611 -0.1817 -0.1455 -0.2175
18027W        W38307  10.720   0.543  13.725 -0.0985  0.0428 -0.0460
18028W        W38308  14.870  13.648   0.979 -0.4918  0.0050 -0.2155
18029W        W38309   6.170   2.457  13.941 -0.2059  0.0630 -0.0929
18030W        W38310   9.936  15.430  14.317  0.3898  0.1168  0.0459
18031W        W38311   8.627   3.101   3.927 -0.1755 -0.2856 -0.2090
18032W        W38312   1.050   4.900   0.002 -0.3227 -0.0581 -0.0588
18033W        W38313   2.212  16.018  14.034 -0.0858  0.2163 -0.0778
18034W        W38314   4.187  12.546   2.056 -0.1913 -0.0147  0.0990
18035W        W38315   0.723   2.020   1.351  0.2642  0.0002  0.1771
18036W        W38316  12.401   6.465   1.629 -0.1954  0.0001  0.1406
18037W        W38317  15.780  10.671   4.320  0.0254 -0.2301  0.0756
18038W        W38318   3.757  16.086  10.309 -0.0662 -0.1656 -0.0193
18039W        W38319  18.479   1.208  13.324  0.0687  0.1768  0.0623
18040W        W38320   5.027   7.297  10.035  0.0788  0.2629  0.0329
18041W        W38321  12.885  16.187  15.255  0.1585 -0.0536  0.1783
18042W        W38322   9.756   0.826   0.709 -0.1999  0.1489  0.0343
18043W        W38323   0.568   0.952   2.710 -0.2580 -0.2567  0.0427
18044W        W38324  15.584   4.742  12.870  0.2198 -0.0999  0.0992
18045W        W38325  18.657  16.798  14.409 -0.0380  0.0529 -0.1417
18046W        W38326   8.836  10.988   2.016  0.0805 -0.0373 -0.1368
18047W        W38327   1.987   8.529   2.384  0.3348 -0.0761 -0.0237
18048W        W38328   1.127   5.735   4.303  0.0349  0.0598 -0.0476
18049W        W38329   6.387   0.190   4.700  0.2551  0.3490  0.1473
18050W        W38330   0.867   2.200  13.461 -0.4770 -0.0060  0.2350
18051W        W38331  15.452  15.632  12.439 -0.1150  0.1244  0.0654
18052W        W38332  12.432   0.099   0.152  0.0634  0.3903 -0.1545
18053W        W38333  14.774  14.236  14.098  0.1465  0.1808  0.1557
18054W        W38334   8.863   0.672  12.646 -0.1314  0.1377  0.1148
18055W        W38335   3.725   5.070  12.029  0.1332 -0.3009 -0.0528
18056W        W38336   7.632   2.865   0.462  0.0028 -0.0648 -0.1289
18057W        W38337  16.826  10.710  12.622  0.1079  0.0043 -0.1832
18058W        W38338   1.264  11.507   0.112 -0.2345  0.4246 -0.0667
18059W        W38339   8.451  13.624  14.286  0.0354  0.1207  0.0783
18060W        W38340  16.317   7.789   4.255  0.0856  0.4890 -0.0764
18061W        W38341   4.784   6.410   1.376 -0.0452  0.2683  0.0483
18062W        W38342   2.595  11.163  12.855 -0.2045 -0.2687  0.0838
18063W        W38343   1.520   4.853  11.315 -0.0069  0.1199 -0.0168
18064W        W38344   2.903   8.844   1.559 -0.2349  0.0128  0.1463
18065W        W38345   7.173  13.946  11.178  0.0599 -0.1333 -0.1131
18066W        W38346   3.040   4.950   0.016  0.1769  0.2054  0.1546
18067W        W38347  12.667   2.701   4.597  0.2687  0.1664 -0.2895
18068W        W38348   6.211  13.289  10.959  0.0144 -0.0346  0.1782
18069W        W38349   5.688   4.610   3.871 -0.2333 -0.1656  0.0579
18070W        W38350  12.306  10.765   4.679  0.0915  0.1580 -0.0324
18071W        W38351  11.741   8.892   4.413  0.0955 -0.0171  0.0680
18072W        W38352   1.349  17.347  11.399  0.2030  0.0131 -0.4146
18073W        W38353  12.718  17.892  13.770 -0.2087  0.1785  0.1724
18074W        W38354   9.929  13.143   1.311 -0.2480 -0.4114  0.2346
18075W        W38355  14.955  10.256   1.401  0.1400 -0.1545  0.1260
18076W        W38356   3.307   0.905  15.027  0.1642  0.2484 -0.3991
18077W        W38357   4.041  13.324   2.052  0.0271 -0.0451  0.4794
18078W        W38358   8.195   2.695   0.848  0.2502 -0.0270  0.1006
18079W        W38359  11.407  15.301  13.867 -0.0720 -0.3818  0.1721
18080W        W38360   9.647   9.729  13.869 -0.0399 -0.1043 -0.2438
18081W        W38361   2.452   6.256  12.872  0.0516  0.0479  0.1738
18082W        W38362   5.343  17.388   3.330 -0.3728  0.0800 -0.0278
18083W        W38363   2.406  17.203  12.460 -0.0177  0.3691  0.1049
18084W        W38364  12.413  17.801  13.384 -0.0328  0.2476  0.1778
18085W        W38365  10.330  14.918  12.926 -0.0453  0.0531  0.0013
18086W        W38366   7.912   6.769  11.742  0.1329  0.2373 -0.0952
18087W        W38367   2.912  16.314   3.591  0.0827  0.1121  0.1285
18088W        W38368   4.391  17.565  14.941  0.3229 -0.2211 -0.3566
18089W        W38369   3.733   8.294  11.002  0.1108 -0.2650  0.3478
18090W        W38370  13.512  16.490   0.389 -0.1444 -0.1513  0.0519
18091W        W38371   8.479  11.917  12.003  0.1159  0.2101 -0.0861
18092W        W38372   8.088   7.554  13.173 -0.3672 -0.0937  0.2514
18093W        W38373  15.375   4.157   3.063  0.0090  0.0210 -0.3020
18094W        W38374   4.649   3.395   2.151  0.0217  0.1120  0.1020
18095W        W38375   2.462   2.722   4.459 -0.1151 -0.1005 -0.1221
18096W        W38376   9.893   7.549  12.527  0.1882 -0.0773 -0.1155
18097W        W38377  15.030  11.330  15.344  0.3385 -0.1068 -0.1151
18098W        W38378  18.517  11.050   4.010  0.3039  0.0560 -0.0303
18099W        W38379  12.650   0.387  12.437  0.3826 -0.1222  0.1172
18100W        W38380   1.797   7.251   3.682  0.1645  0.0026 -0.2567
18101W        W38381  13.315  12.961  11.674  0.1988  0.1301  0.2083
18102W        W38382   1.622   5.082  14.752 -0.0019 -0.2410  0.2217
18103W        W38383   3.742   6.313  13.517 -0.2197  0.2043  0.0025
18104W        W38384   6.064   0.680   0.141  0.0967 -0.1444 -0.0123
18105W        W38385   3.322   6.549  12.613 -0.0143 -0.0848 -0.3068
18106W        W38386  15.121  15.597   2.031  0.1315  0.1335 -0.0614
18107W        W38387  11.488  13.746  12.139  0.0769  0.0090 -0.0999
18108W        W38388  18.401  15.852  11.083  0.0794  0.0595 -0.0415
18109W        W38389  14.421   3.786  14.780  0.0756 -0.0336 -0.3043
18110W        W38390  18.704  14.787   1.285  0.0652 -0.2411  0.0383
18111W        W38391   5.026   8.620  11.727 -0.1518 -0.1968  0.2196
18112W        W38392   3.490   6.579   3.483  0.1899  0.0160 -0.0647
18113W        W38393  12.342   7.448  11.601  0.0149  0.0940 -0.1657
18114W        W38394   0.934   8.418   3.402 -0.2024  0.0190 -0.0327
18115W        W38395  11.568   3.449   3.526 -0.1133 -0.0439 -0.0241
18116W        W38396  18.325   3.395   4.325  0.2137 -0.1569  0.3977
18117W        W38397   9.707   3.322  15.336 -0.0737 -0.3393 -0.0071
18118W        W38398   3.006  18.654  10.882 -0.0581 -0.0226 -0.1907
18119W        W38399  18.272   9.938   2.119  0.0399 -0.0905  0.2422
18120W        W38400   6.982   1.346  15.146 -0.1397 -0.1954 -0.1086
18121W        W38401   2.253  17.862  14.161 -0.0544  0.2040 -0.0611
18122W        W38402  10.980  15.979   2.387 -0.2770  0.1019  0.1532
18123W        W38403  16.796  10.404  13.791 -0.2385 -0.1505 -0.2935
18124W        W38404   5.113   9.860   3.500 -0.0288  0.3491 -0.1292
18125W        W38405   2.044  18.148  11.620 -0.3672 -0.0089  0.1427
18126W        W38406  13.954   4.208   1.868 -0.0819 -0.2236 -0.0736
18127W        W38407   5.627   9.249  13.495 -0.2590  0.2174 -0.0280
18128W        W38408   2.707   8.440   0.578 -0.2448  0.0486 -0.3590
18129W        W38409  18.588   4.578  12.171 -0.2795 -0.0266 -0.0308
18130W        W38410  18.319  13.661   4.140  0.3183  0.0510  0.1067
18131W        W38411   9.790   3.042  14.413  0.0439  0.0094  0.3360
18132W        W38412   4.848   3.990  11.056  0.1286  0.1581  0.2544
18133W        W38413  12.863   4.086   4.163  0.1767  0.0711  0.0410
18134W        W38414   4.994  14.456   4.013 -0.0250  0.0994  0.2730
18135W        W38415  17.192   1.439  11.929 -0.1071  0.1461  0.3531
18136W        W38416   4.342  16.861  11.218 -0.0734 -0.0352 -0.0581
18137W        W38417   4.370   9.023   4.111  0.0631 -0.1111  0.2714
18138W        W38418   5.969  10.353   2.235  0.3972  0.1626 -0.0494
18139W        W38419  13.990   9.040   2.396 -0.0173 -0.1171 -0.3311
18140W        W38420   3.779   4.927  10.854  0.2258  0.0362 -0.0603
18141W        W38421  13.435  18.077  14.398 -0.1215  0.2245 -0.0507
18142W        W38422  18.023   3.718   4.599  0.2487 -0.0032 -0.0232
18143W        W38423   8.775  17.495   2.881  0.0714  0.0266  0.1429
18144W        W38424   6.024   3.874  14.884  0.2213 -0.3184  0.0666
18145W        W38425  12.126   3.651  11.737 -0.0700 -0.0421  0.0904
18146W        W38426   5.892   7.955   0.223 -0.1954  0.1810  0.1492
18147W        W38427  11.496  12.885   1.477 -0.1098 -0.2576  0.1882
18148W        W38428   7.422  17.958   2.883 -0.1677 -0.0772  0.4954
18149W        W38429  15.872  17.201   3.548 -0.1140 -0.0144  0.0626
18150W        W38430   5.103  13.095  14.482  0.2204 -0.0756  0.3449
18151W        W38431   0.570  11.732   0.882  0.3174  0.1146  0.0634
18152W        W38432   2.370   6.696   1.900 -0.0149 -0.0347 -0.1103
18153W        W38433  11.196   8.833   2.977  0.2930  0.1661  0.0947
18154W        W38434  13.008  10.195  15.041  0.2121  0.0246  0.0316
18155W        W38435  17.981   7.093  14.868  0.3116 -0.0708  0.0391
18156W        W38436  12.835  14.716   2.240 -0.2020  0.2979  0.0095
18157W        W38437  10.340   6.038   0.807  0.0897 -0.0184 -0.2711
18158W        W38438  14.644   9.255   5.112 -0.1336  0.1038 -0.1465
18159W        W38439  11.233   4.357  13.450  0.2487  0.2038  0.0580
18160W        W38440  17.636  15.251   0.680 -0.0637 -0.2533  0.4445
18161W        W38441   2.409   1.846   0.429 -0.1532 -0.0725 -0.1023
18162W        W38442   1.565  17.308   1.544  0.1652  0.3371 -0.1296
18163W        W38443  15.227   0.766  12.835 -0.0994 -0.3255  0.0767
18164W        W38444   4.040  12.939  11.450 -0.0151 -0.0584 -0.4866
18165W        W38445  14.301   0.435  11.887  0.1521 -0.1899 -0.1770
18166W        W38446   9.475   2.293  11.232 -0.1907 -0.2169  0.0193
18167W        W38447  11.166  14.340   2.348 -0.0810  0.0754 -0.0086
18168W        W38448  11.509  15.441   3.348  0.1986  0.4065 -0.0608
18169W        W38449  12.367   9.989   2.743  0.1386  0.1196 -0.2358
18170W        W38450  12.710  12.989  15.272 -0.1162  0.2043  0.0647
18171W        W38451   5.566  11.762   2.190  0.1720 -0.1956 -0.3760
18172W        W38452   4.931   6.608  12.460 -0.1212 -0.0800 -0.2727
18173W        W38453  18.319   4.210  15.205  0.0200  0.2868  0.1055
18174W        W38454   6.408   1.039  11.442  0.2611  0.0799 -0.3084
18175W        W38455   4.582  10.680  11.380  0.2856 -0.1010 -0.0876
18176W        W38456  11.824  11.013   0.065 -0.0582  0.5699 -0.2307
18177W        W38457  10.232  14.252  12.695 -0.0564 -0.3148 -0.0589
18178W        W38458  13.867  13.424   2.103 -0.1973 -0.0761  0.2129
18179W        W38459  16.755   0.896  13.400  0.1556 -0.1596  0.0433
18180W        W38460  10.948   0.997   4.122  0.0761  0.0228  0.0692
18181W        W38461  16.828   3.683   1.897 -0.0030 -0.1272 -0.4689
18182W        W38462  18.094  14.255  15.120  0.1660  0.1149 -0.2299
18183W        W38463   8.197  14.462  14.213  0.2480 -0.0781  0.1504
18184W        W38464  11.007   9.890   1.397 -0.1818  0.0603  0.0899
18185W        W38465   2.030  15.316  11.613  0.1559 -0.0550 -0.0087
18186W        W38466   2.903   8.529  15.284  0.1148 -0.1204  0.3415
18187W        W38467   4.612   5.509  12.247 -0.1521 -0.2884  0.0977
18188W        W38468  13.193  13.505  11.946  0.2778 -0.1104  0.1302
18189W        W38469   1.557   4.753  15.375  0.2584  0.1544 -0.0242
18190W        W38470  11.539   9.486   1.649 -0.0070  0.2523  0.4231
18191W        W38471   7.153  12.850   0.417  0.1977  0.0675  0.2640
18192W        W38472  18.305  12.076   3.896 -0.0918 -0.1810 -0.0819
18193W        W38473  18.110   6.173   0.813  0.2636 -0.2054 -0.1566
18194W        W38474  10.001  16.746  14.668 -0.1692 -0.1845 -0.0713
18195W        W38475  18.265   0.078   3.316 -0.1221  0.0963  0.0995
18196W        W38476   8.023   5.664   4.697 -0.2297 -0.2657  0.0021
18197W        W38477   5.509  12.496  13.847 -0.0022  0.0434 -0.1891
18198W        W38478  15.575   1.352  13.272 -0.1475  0.2596 -0.1867
18199W        W38479  11.246  12.342  11.706  0.0414  0.3841  0.2348
18200W        W38480  10.014  14.083   0.955  0.1735  0.0569 -0.1455
18201W        W38481   0.068   2.188   4.331  0.1046  0.2255  0.1600
18202W        W38482   0.770  14.412   3.060  0.0105 -0.1667 -0.0064
18203W        W38483  10.426  12.672   0.393 -0.0408 -0.0678 -0.1284
18204W        W38484   6.959  12.021  12.840 -0.1267 -0.0677  0.0394
18205W        W38485   2.576  13.380  15.060  0.1348  0.0389 -0.2411
18206W        W38486   9.291  12.515  11.485 -0.0099 -0.0021  0.2363
18207W        W38487   2.689   9.665  12.126  0.2078  0.1221  0.2118
18208W        W38488   2.845  16.410   2.384 -0.2778  0.2483  0.3837
18209W        W38489  17.095   6.621   2.946  0.2212  0.4320 -0.0912
18210W        W38490   6.133  11.196  13.913  0.0089  0.0369 -0.0155
18211W        W38491   7.538   6.298  10.641 -0.3502 -0.2656 -0.2267
18212W        W38492  14.870   2.769   4.366 -0.0117  0.1850  0.1120
18213W        W38493   9.109   9.070   2.069  0.1347  0.0888  0.2219
18214W        W38494   8.886   8.764   4.449  0.1461 -0.0125 -0.2044
18215W        W38495   3.410   3.250  14.333 -0.2070  0.1305  0.2142
18216W        W38496  16.543  10.245  10.506  0.3393 -0.0128  0.3365
18217W        W38497  13.679   1.632  11.799  0.0685  0.0870  0.3103
18218W        W38498   6.612   7.294   4.665 -0.2719 -0.1196 -0.1081
18219W        W38499  18.093  16.744  11.271  0.3164 -0.3652  0.3108
18220W        W38500   6.935   9.641   0.299 -0.0057 -0.2318  0.0840
18221W        W38501   3.742  17.010  15.138 -0.1937 -0.1778 -0.2163
18222W        W38502  11.253   5.435   2.892 -0.0937 -0.0227 -0.0033
18223W        W38503   6.807   3.357  14.566  0.0138 -0.0795  0.1835
18224W        W38504   8.255  16.356   2.692  0.4469  0.5095 -0.5134
18225W        W38505  18.219  14.970   2.142 -0.0362 -0.1254 -0.0765
18226W        W38506   0.079  16.961  15.341 -0.2209 -0.1268  0.3288
18227W        W38507  18.331   1.440   0.982  0.0684  0.5497 -0.4813
18228W        W38508   9.631  18.103   0.482 -0.1089 -0.2908 -0.2197
18229W        W38509   6.175  15.057   2.579  0.0179  0.2734  0.0119
18230W        W38510   8.645  13.223   0.620 -0.2027  0.2114  0.1772
18231W        W38511   3.187   6.111  13.387  0.2905 -0.1590 -0.1036
18232W        W38512  18.447   1.354   0.500 -0.0174 -0.2543 -0.1077
18233W        W38513  16.923  14.812   0.836  0.0011 -0.2022 -0.0222
18234W        W38514  18.543   0.464  11.299 -0.2268 -0.0324 -0.0608
18235W        W38515  16.305   3.193  12.483 -0.0766 -0.0640 -0.1582
18236W        W38516   6.728   5.049  15.165 -0.2154  0.1811  0.1905
18237W        W38517   7.363   6.225  15.240 -0.1911 -0.0225  0.0521
18238W        W38518  17.831  14.141  11.478  0.3400  0.2348  0.0352
18239W        W38519   8.628   0.964  12.292  0.0385 -0.2375 -0.2134
18240W        W38520  17.519   5.568  12.224 -0.1467 -0.0242 -0.1755
18241W        W38521  12.195   4.484   2.056  0.1971  0.1108 -0.0194
18242W        W38522   4.470  12.294   1.027  0.1950 -0.1781 -0.1055
18243W        W38523   8.522   5.910   2.271  0.0200  0.2230  0.4165
18244W        W38524  16.867   9.506   5.509  0.1041  0.0115  0.2155
18245W        W38525  14.628  12.138  14.960  0.0713 -0.2068 -0.1798
18246W        W38526  12.513  17.869  12.060  0.2983 -0.0239 -0.2528
18247W        W38527  12.006  11.039  14.641 -0.5127 -0.0293  0.1829
18248W        W38528   9.616   3.427  12.763 -0.1366  0.0804  0.2231
18249W        W38529   5.438   4.098  14.161 -0.0471 -0.2408  0.1828
18250W        W38530   2.110  11.954  11.438 -0.1260 -0.2325 -0.0643
18251W        W38531   4.351   4.973  14.244 -0.0136  0.0460  0.0812
18252W        W38532   0.363   6.645  13.700  0.0822 -0.2849  0.1813
18253W        W38533  12.647  11.372   3.118 -0.0647 -0.1418  0.0354
18254W        W38534  14.198   8.551   2.358 -0.1322 -0.0332 -0.0117
18255W        W38535  16.425   4.087  10.945  0.3024 -0.2219 -0.2317
18256W        W38536  13.803  14.621  15.347  0.2583  0.1079 -0.1439
18257W        W38537  15.359   9.515  15.328 -0.2807 -0.1414 -0.0279
18258W        W38538  18.107   6.219  11.259  0.0148 -0.2366  0.1720
18259W        W38539   0.272   9.583  13.359  0.0400 -0.0428 -0.2964
18260W        W38540   0.310   6.466  14.772  0.0242 -0.3830 -0.3185
18261W        W38541   1.692   3.624   2.311  0.0425 -0.0785 -0.3233
18262W        W38542   2.415   8.036  12.919  0.1171 -0.0339  0.0999
18263W        W38543   2.168   9.003   3.185  0.3030  0.0222 -0.2607
18264W        W38544  18.159   5.447   1.282 -0.0234  0.0216 -0.1214
18265W        W38545  18.715   7.681   5.686 -0.1209  0.1012  0.3070
18266W        W38546  11.877  15.740   3.296 -0.0713 -0.0871  0.1183
18267W        W38547  18.568   6.652  12.886  0.1097 -0.0906  0.0593
18268W        W38548  10.458   0.199  14.458  0.2283  0.2368 -0.0057
18269W        W38549   1.244  13.157   0.943  0.0146 -0.0363  0.0956
18270W        W38550  12.028  16.948  13.427  0.2692  0.2042  0.2663
18271W        W38551  12.006   0.265  15.375  0.0660 -0.0406 -0.0212
18272W        W38552  16.767  12.497   2.187  0.0854 -0.0098 -0.0993
18273W        W38553  12.866   5.065  14.161  0.0710 -0.0233 -0.0404
18274W        W38554   7.772   2.887   1.089  0.0639  0.2484 -0.3214
18275W        W38555  10.628  13.846   1.225  0.1528  0.0327  0.2333
18276W        W38556   6.298  12.880   2.155 -0.1872  0.0243 -0.2834
18277W        W38557   9.621   6.244   2.876 -0.1850 -0.1303  0.0048
18278W        W38558   8.872   2.194  14.374 -0.0570 -0.2216  0.1802
18279W        W38559   1.886  18.440   3.522  0.0461  0.0353  0.2657
18280W        W38560   9.450   6.914  12.188 -0.2232 -0.0841  0.0345
18281W        W38561  13.257  15.418  12.375  0.1608 -0.1597 -0.3178
18282W        W38562  14.689   5.484   3.404 -0.1129 -0.0554  0.0777
18283W        W38563  10.063   9.018   4.638  0.1652  0.1734  0.0906
18284W        W38564   2.997  15.543   1.831  0.1085 -0.0213 -0.0482
18285W        W38565   2.881   4.987  14.037 -0.3279 -0.0799 -0.1300
18286W        W38566   5.858  18.594  13.235 -0.1713  0.0907 -0.2441
18287W        W38567   1.248  12.930   1.432 -0.0298  0.3479  0.0323
18288W        W38568  14.292   5.890   1.692  0.0486 -0.3967 -0.1048
18289W        W38569   4.463   1.853  14.478  0.0533  0.0811 -0.3101
18290W        W38570   5.019   9.797  13.471  0.0449  0.1893 -0.1892
18291W        W38571   9.593   9.831   3.303 -0.0744 -0.1074  0.1053
18292W        W38572  10.336  12.440  15.050 -0.1483 -0.2933  0.0431
18293W        W38573   4.618   7.776  14.886 -0.1594 -0.2444  0.0999
18294W        W38574   9.683  11.146  15.144  0.1813  0.0421  0.2036
18295W        W38575  14.483   3.434  12.636 -0.1230 -0.0508 -0.2123
18296W        W38576   4.582   8.877   1.762 -0.0008  0.0912 -0.0638
18297W        W38577   6.994   8.140   3.161 -0.0786 -0.0147 -0.1710
18298W        W38578   9.910   7.523   1.136 -0.1523  0.0787  0.0310
18299W        W38579  14.449  18.715  12.703 -0.2657  0.1234  0.0148
18300W        W38580   4.707  11.319  14.991  0.1456  0.4931 -0.1188
18301W        W38581   0.171  14.639  11.178  0.0323  0.0893  0.1116
18302W        W38582   1.074  13.593  13.325 -0.1478  0.0661 -0.0141
18303W        W38583  15.235   9.684  14.870  0.1044  0.0608 -0.0947
18304W        W38584  10.332  17.556   4.653  0.1481  0.3557  0.3486
18305W        W38585  13.296   4.322  14.427 -0.2168  0.1989  0.0310
18306W        W38586  17.848   3.249  12.288  0.1536  0.4539  0.2485
18307W        W38587  12.530  12.247   3.257 -0.1676 -0.0581 -0.2035
18308W        W38588  11.772   2.386   2.768 -0.2098  0.1661 -0.0486
18309W        W38589   9.756   3.144  13.549 -0.2081  0.0398 -0.0930
18310W        W38590   3.981  10.052   4.589 -0.1996  0.1110 -0.1092
18311W        W38591  14.125  17.897   0.270 -0.0867  0.0841 -0.3320
18312W        W38592  17.408  14.656  14.205  0.2536 -0.0940  0.1680
18313W        W38593   6.120   2.872  14.784 -0.2749 -0.2251  0.0086
18314W        W38594  14.454   7.626  14.412 -0.2813  0.1202 -0.3336
18315W        W38595   4.763   8.859   2.798  0.0292  0.1274  0.2149
18316W        W38596  18.105  14.119  14.326 -0.2415 -0.2505 -0.1356
18317W        W38597   1.556  11.451  14.333 -0.1873 -0.0573  0.0128
18318W        W38598  12.545   1.729   2.307  0.1126  0.0133  0.2611
18319W        W38599  13.572   2.138   1.019 -0.1962  0.1467  0.2606
18320W        W38600   3.294  18.466  13.700 -0.0235 -0.1327 -0.0731
18321W        W38601   1.486   2.680   1.062 -0.1511 -0.1672  0.0668
18322W        W38602   7.858   2.995  13.486  0.0218 -0.1313  0.0987
18323W        W38603  10.952   5.333   3.764 -0.1108 -0.0002  0.2536
18324W        W38604   4.879  17.717   2.591  0.0930  0.2062 -0.1602
18325W        W38605   6.987  12.551   3.475 -0.1562 -0.1024  0.1102
18326W        W38606   8.407   2.978  12.346  0.0371  0.0447  0.0180
18327W        W38607  11.099  11.870  13.379 -0.3014 -0.1628  0.1509
18328W        W38608  17.125  11.263   3.169  0.0593  0.0432  0.0505
18329W        W38609   5.884   4.945   0.134  0.0160 -0.0227  0.0559
18330W        W38610  15.311  14.855  14.610 -0.1497  0.0877  0.2328
18331W        W38611  11.580   4.716   0.249 -0.5316 -0.2704  0.1062
18332W        W38612  16.824   0.156  12.714  0.0605  0.0662  0.0199
18333W        W38613  12.864  13.262   4.916 -0.0321 -0.0615  0.2267
18334W        W38614  15.499  10.972   5.477  0.0831 -0.1443  0.0591
18335W        W38615  10.584   8.991  13.295 -0.0863 -0.0428  0.0552
18336W        W38616   1.143   4.026  14.121  0.1521 -0.0761  0.3321
18337W        W38617   9.069   4.547   2.476 -0.0478  0.1648  0.0554
18338W        W38618  17.310   3.903   4.336  0.0394 -0.1556 -0.1989
18339W        W38619   2.446   5.778  14.653 -0.1046 -0.3657 -0.0661
18340W        W38620  11.907  10.570   3.315 -0.1634 -0.3144  0.1710
18341W        W38621   6.731   2.487  12.079 -0.0299 -0.0564  0.2209
18342W        W38622  12.919   2.821  12.218  0.1439  0.4456 -0.0999
18343W        W38623  13.080  12.137  13.721 -0.1173  0.2769  0.0969
18344W        W38624  18.585   1.512  12.563 -0.1236  0.0340 -0.5037
18345W        W38625  11.144   7.937  12.424 -0.1550 -0.0209  0.3409
18346W        W38626   6.280  11.291   1.757  0.1191  0.2226 -0.0180
18347W        W38627   4.350   7.117   0.656  0.0842 -0.0692  0.0369
18348W        W38628   8.676   7.409   0.294 -0.3042  0.0975 -0.3794
18349W        W38629   6.028  12.166   0.942 -0.1211 -0.1337  0.1529
18350W        W38630  16.006   0.050   1.137 -0.2177  0.0789 -0.2025
18351W        W38631   6.780  17.998  11.773 -0.0283 -0.0004  0.2363
18352W        W38632   9.184   5.332   2.357  0.1119  0.0984  0.2001
18353W        W38633   8.520   2.608   0.406  0.0284 -0.1930  0.0235
18354W        W38634  12.524   2.925  15.316 -0.2001 -0.0088  0.2379
18355W        W38635   2.736  11.519  15.083  0.0306  0.1561  0.1753
18356W        W38636   7.370   1.872  12.466 -0.1662 -0.0344 -0.0380
18357W        W38637   8.859  11.226   4.531  0.1175 -0.1593 -0.0495
18358W        W38638   6.480   1.886  12.712  0.0278 -0.0518  0.0417
18359W        W38639  14.136  11.898  11.421 -0.1969  0.1357  0.1073
18360W        W38640  13.555   2.015  12.106 -0.5497 -0.0622  0.2324
18361W        W38641   8.951  14.153   3.849 -0.2242  0.0728 -0.1193
18362W        W38642  13.411   0.970   3.640  0.2371  0.0294  0.0084
18363W        W38643  10.243   1.467   0.934  0.3446  0.3741 -0.2809
18364W        W38644   4.899  11.007  11.139  0.0444  0.0902  0.4472
18365W        W38645   6.073   7.480  11.117 -0.1283 -0.0909 -0.0058
18366W        W38646   6.856   5.345   3.641  0.1330 -0.1394 -0.2678
18367W        W38647   2.562   8.188   2.452  0.2336 -0.0565 -0.2119
18368W        W38648  18.715   2.981   0.790 -0.0444  0.1208  0.2868
18369W        W38649   6.849  10.456   0.030 -0.2066 -0.0298 -0.0449
18370W        W38650   0.863  14.105  11.798 -0.0758 -0.2043  0.3382
18371W        W38651   4.677   3.286   3.103  0.1434 -0.0651  0.1298
18372W        W38652   7.198   7.373   3.517 -0.2610  0.3243  0.0116
18373W        W38653   2.727  12.484   2.204  0.2110 -0.0258 -0.3543
18374W        W38654   4.462  14.509   4.100  0.0384 -0.1675  0.1129
18375W        W38655  11.381   5.727   0.870  0.1974 -0.1183  0.4278
18376W        W38656   1.633   5.028  10.847  0.1196  0.0212  0.1715
18377W        W38657   8.894  13.782  14.417 -0.3616 -0.0278 -0.0037
18378W        W38658   0.195   8.352  13.239  0.2975  0.2041 -0.0680
18379W        W38659   4.929   3.806   3.020 -0.0157 -0.0118 -0.2579
18380W        W38660   6.098  18.105  11.075 -0.0766  0.1496  0.0786
18381W        W38661   0.840   2.519  13.851  0.0224  0.4041 -0.2558
18382W        W38662   5.325   2.036   1.273 -0.1605 -0.1953 -0.2275
18383W        W38663   7.503   0.960   4.563  0.1760  0.1350  0.0489
18384W        W38664   3.410  14.988   3.427 -0.0441 -0.2947 -0.2742
18385W        W38665  15.096   8.895   2.783  0.0094  0.1711  0.4355
18386W        W38666   3.695  15.712  14.939  0.0445 -0.1747  0.2210
18387W        W38667  14.723   2.259  13.619  0.0714  0.1155 -0.0643
18388W        W38668   1.171   7.740  13.751  0.2450 -0.0497 -0.0083
18389W        W38669   3.849  14.731   1.158  0.1568  0.1031  0.1337
18390W        W38670   5.419  12.886   0.297  0.2779 -0.0127  0.0090
18391W        W38671   2.887   7.615   3.847 -0.0119 -0.0229  0.2711
18392W        W38672   1.194   3.456  11.941 -0.0225  0.3210  0.0467
18393W        W38673   2.699   7.441   1.252  0.1820  0.1002 -0.2282
18394W        W38674  16.671  17.079   3.237  0.1120  0.2400  0.1299
18395W        W38675   3.209   1.142   0.739  0.0401 -0.0926 -0.1605
18396W        W38676  17.223   2.838  15.357  0.2999 -0.1226  0.1818
18397W        W38677  18.742   6.684   3.317 -0.2266 -0.0057  0.2401
18398W        W38678   5.895   2.606  15.340  0.1665 -0.0809 -0.0897
18399W        W38679   5.495  12.143   3.078 -0.0354 -0.1578  0.1485
18400W        W38680   8.592  16.893  11.685 -0.2929  0.0452  0.1512
18401W        W38681   8.714   3.366  14.420 -0.1345 -0.1445 -0.0438
18402W        W38682  14.173   2.251  11.284 -0.1077  0.0490  0.2525
18403W        W38683  10.767  16.581   1.751 -0.1651 -0.1778  0.1650
18404W        W38684   5.444   0.730   1.157 -0.2891  0.0678  0.0152
18405W        W38685   3.999   1.745   0.538 -0.0442  0.0754 -0.1865
18406W        W38686  17.255  15.100  14.018  0.0214 -0.0038 -0.0737
18407W        W38687   4.739  10.047  14.367 -0.0332  0.1015  0.3320
18408W        W38688   7.423   3.931  11.488  0.1250 -0.0378  0.0533
18409W        W38689   4.457  11.517   3.265  0.0505  0.1910 -0.2878
18410W        W38690   9.312  17.659  13.391 -0.0283  0.0187 -0.0612
18411W        W38691  14.002  17.591   1.836 -0.0447  0.1423 -0.0331
18412W        W38692   9.361  10.201  12.278 -0.2327  0.1529 -0.1278
18413W        W38693  12.531   8.963   1.757 -0.0748 -0.2522 -0.1655
18414W        W38694  16.595  13.385   1.592  0.0300  0.3742  0.0995
18415W        W38695  10.439  11.595  13.719  0.1716 -0.1376  0.1571
18416W        W38696   9.421   1.090  10.812  0.1946 -0.0113 -0.0540
18417W        W38697   5.395   2.919  11.737 -0.3558  0.2853 -0.1627
18418W        W38698   1.441   2.333  15.157 -0.2254  0.1515 -0.1504
18419W        W38699   5.675  12.532   0.571 -0.0451 -0.0256 -0.2955
18420W        W38700   0.522   6.646   1.540  0.0123  0.1647 -0.0344
18421W        W38701  17.579  14.211  11.888 -0.3860  0.2904 -0.1617
18422W        W38702   0.406  10.285  14.242  0.1043 -0.3382  0.1856
18423W        W38703  15.195   8.144   0.507  0.0520 -0.4022  0.2044
18424W        W38704  16.863  12.721   0.780 -0.0215 -0.2973 -0.2341
18425W        W38705  15.343   4.160   3.567  0.1415  0.3608 -0.0531
18426W        W38706  17.975  11.049  11.579  0.0758  0.2026  0.3313
18427W        W38707   9.311   9.036  15.040  0.0356  0.1551 -0.1346
18428W        W38708   6.009   3.502   1.956  0.0239  0.0713  0.1584
18429W        W38709  12.633  10.825  12.240 -0.2397  0.1984  0.1900
18430W        W38710   1.746   3.229  14.488  0.0041  0.3329  0.1818
18431W        W38711  17.511  11.851   4.338 -0.1866 -0.0858  0.0092
18432W        W38712   8.829   5.403   4.096  0.1748 -0.0958 -0.1808
18433W        W38713   2.251   4.508   2.233  0.0403 -0.1135 -0.1167
18434W        W38714   3.548  11.099   3.094 -0.1924  0.1381  0.1159
18435W        W38715  12.986   9.614  14.314 -0.1503 -0.1110  0.1793
18436W        W38716  10.017   3.246   3.891 -0.3004 -0.3741 -0.0975
18437W        W38717  15.615  12.901  11.553 -0.1494 -0.0052  0.0237
18438W        W38718   7.004   1.953  13.935  0.0898  0.0596 -0.0128
18439W        W38719  12.576   5.920   1.755  0.4571 -0.3988  0.2735
18440W        W38720  11.381  13.095   2.785 -0.2708  0.1931 -0.2045
18441W        W38721  16.793  17.245  13.149 -0.0098 -0.1153  0.0135
18442W        W38722   4.883   1.950   0.596 -0.0414  0.0183 -0.2361
18443W        W38723  17.147   5.333  12.563  0.2234 -0.2269  0.2165
18444W        W38724   6.943   2.581   3.485  0.1746  0.1017 -0.1962
18445W        W38725   9.613   7.239   2.680 -0.4575 -0.1676  0.1226
18446W        W38726   6.888  18.669   5.202 -0.4072 -0.0534 -0.4158
18447W        W38727  18.523  16.129   0.886 -0.1251 -0.1306 -0.0915
18448W        W38728   7.857  17.738   2.777 -0.1865  0.0071  0.0381
18449W        W38729  16.915  13.637   4.148 -0.0465  0.1021 -0.0746
18450W        W38730  16.043  15.186   2.868 -0.6027  0.1130 -0.2764
18451W        W38731  18.546   3.907   2.053 -0.1816 -0.4169 -0.0974
18452W        W38732   5.964   6.812   1.633  0.2409  0.0477  0.2026
18453W        W38733   2.364  10.344   2.989  0.0871  0.0368  0.0715
18454W        W38734  12.920  13.922  12.938  0.0783 -0.1385  0.1384
18455W        W38735   6.247   0.468  14.540 -0.1062 -0.1354  0.0542
18456W        W38736  12.545   6.330  15.347  0.1666  0.1054  0.4741
18457W        W38737  10.943   4.127   4.533  0.1482  0.0240  0.0139
18458W        W38738   0.257  12.590   1.407 -0.3394  0.3436  0.4745
18459W        W38739   6.168  18.740   4.281 -0.0864  0.1472  0.2510
18460W        W38740   6.812   3.110   1.801 -0.0477  0.1370 -0.0288
18461W        W38741  10.863   9.675   3.284  0.0428 -0.1144 -0.0671
18462W        W38742   2.630  12.653  12.907 -0.1216 -0.0683 -0.0176
18463W        W38743  11.370   3.636  13.108 -0.2749  0.1631  0.1107
18464W        W38744  16.520   2.818  11.990 -0.0936 -0.0707 -0.1342
18465W        W38745  13.262   8.903   2.856 -0.0293 -0.0136 -0.0610
18466W        W38746   8.838   7.820  12.670  0.0717 -0.0175  0.3543
18467W        W38747   2.519  11.043  12.333 -0.1376  0.2850  0.2598
18468W        W38748   8.143   3.630   0.390 -0.1482 -0.1695 -0.2358
18469W        W38749  14.164  14.409   5.143 -0.1080 -0.3116  0.0994
18470W        W38750  14.649  12.334   2.622 -0.1619 -0.0512 -0.2051
18471W        W38751  16.311  12.448   2.483  0.0744 -0.1422 -0.0928
18472W        W38752  10.003   6.603  13.724 -0.0219 -0.1163  0.2463
18473W        W38753  10.099  13.778   2.003 -0.0701 -0.0277 -0.1730
18474W        W38754  16.574  13.825  12.353  0.3609 -0.3307 -0.0695
18475W        W38755   4.245   0.519  13.377  0.1832 -0.1102 -0.0852
18476W        W38756  17.533  14.019   2.542 -0.0165  0.4935 -0.0940
18477W        W38757   2.872  12.722   3.071 -0.2661 -0.2176  0.4220
18478W        W38758  18.572   3.374   2.229 -0.0169  0.1916 -0.0061
18479W        W38759  16.554   4.008  15.190  0.2061 -0.2634 -0.0384
18480W        W38760   3.690   0.616  12.649 -0.0655 -0.0200  0.1125
18481W        W38761   0.792   3.821   1.239  0.1255 -0.2886 -0.3600
18482W        W38762   9.529   2.623   4.233 -0.2105 -0.0260 -0.1406
18483W        W38763  11.113   8.417  12.627 -0.3072  0.3229 -0.0809
18484W        W38764   0.262   9.284   4.520  0.0786 -0.0410 -0.1812
18485W        W38765  13.098  13.020   0.353  0.1951 -0.0380 -0.2289
18486W        W38766   4.370   4.307   1.522  0.0618 -0.1810 -0.0200
18487W        W38767   7.123  17.906   0.024  0.2633 -0.0335  0.2302
18488W        W38768   7.874   7.974   1.940 -0.1649 -0.0751  0.1820
18489W        W38769  13.714  17.355   4.390  0.1613  0.3223 -0.3082
18490W        W38770  16.288   6.843  12.041  0.2252  0.2274  0.0091
18491W        W38771   1.059  11.442   4.580  0.1854 -0.2275 -0.3107
18492W        W38772   7.882   4.381  15.030  0.3776 -0.0792 -0.0889
18493W        W38773   2.260  18.423   0.891 -0.1897 -0.4298 -0.1485
18494W        W38774  12.912   6.580  14.552  0.0006 -0.2575  0.2429
18495W        W38775   4.812   2.876   0.611  0.1830  0.2351 -0.0562
18496W        W38776  15.909  18.269  10.203 -0.0841 -0.0447  0.0106
18497W        W38777   3.105  14.755  12.317 -0.1657  0.1729 -0.1084
18498W        W38778   4.975   9.688  10.873  0.2715  0.0917 -0.0259
18499W        W38779   9.751  13.590  10.721  0.1245 -0.2260  0.1541
18500W        W38780  11.242  10.801  14.922 -0.0139  0.0462  0.0853
18501W        W38781   9.058   6.285  13.426  0.2027  0.0930  0.3440
18502W        W38782  18.535   3.303   3.728  0.0427  0.0531  0.0182
18503W        W38783  15.857  10.936  12.902 -0.1755 -0.0031  0.0326
18504W        W38784   3.169  10.724   4.066 -0.1900 -0.1004 -0.1933
18505W        W38785  11.923  13.751  12.822 -0.0125  0.2718 -0.2148
18506W        W38786  11.483   5.728  12.659 -0.1904 -0.1448  0.1000
18507W        W38787  13.283   9.745   4.566  0.1549  0.3532  0.2872
18508W        W38788   9.219   4.794   1.985  0.2024 -0.2468 -0.4384
18509W        W38789   4.676   2.172   3.818 -0.0033  0.0023 -0.1888
18510W        W38790   8.836  13.953  12.786  0.0471  0.1813  0.1026
18511W        W38791  13.428  17.740   3.020  0.0025  0.1705  0.0221
18512W        W38792   9.488  15.507   3.215  0.0950  0.0134  0.1264
18513W        W38793  13.586   3.184   2.858  0.0121  0.1075  0.2864
18514W        W38794  10.221  18.488   2.796 -0.0230 -0.2613  0.5304
18515W        W38795   5.348  12.361  14.794 -0.3422 -0.0463  0.1744
18516W        W38796   9.751   0.929   3.210  0.0016  0.2905  0.2368
18517W        W38797  15.587   0.404  13.074 -0.0061 -0.0390  0.3601
18518W        W38798   4.538  17.518  12.739 -0.1645 -0.0534 -0.2296
18519W        W38799   6.093  17.610  13.817 -0.3983  0.2857  0.1827
18520W        W38800   5.290   4.684   2.902 -0.1260  0.3218  0.0144
18521W        W38801   0.279   8.436  15.081 -0.2238 -0.0450  0.2983
18522W        W38802  11.281   5.522   1.864 -0.2682  0.1069 -0.1135
18523W        W38803   6.438  16.030  14.848 -0.1838  0.2285  0.0828
18524W        W38804   6.065  10.538  13.597 -0.0360  0.0376 -0.0078
18525W        W38805   5.316   7.755   5.295  0.1023  0.0059 -0.0127
18526W        W38806  13.078   7.067   3.951 -0.0311  0.0956  0.0074
18527W        W38807   8.053   2.184  13.924  0.0315  0.1315 -0.1854
18528W        W38808   5.743   3.633  12.312  0.0696  0.2655  0.2394
18529W        W38809   0.910  15.459   1.807  0.0390 -0.1449  0.0505
18530W        W38810   4.752  16.012   4.138 -0.3414 -0.0681 -0.1190
18531W        W38811   3.612  14.595   5.160  0.1844 -0.1468 -0.1439
18532W        W38812   5.298  16.306  12.578  0.0219  0.0954  0.3217
18533W        W38813   4.666   5.329  13.516  0.0908 -0.1786  0.0087
18534W        W38814  14.214  15.512  14.583  0.0208  0.0008  0.3400
18535W        W38815  14.786  15.471   0.343  0.1468 -0.0859 -0.0131
18536W        W38816  12.714  13.595  13.249  0.2375 -0.0629 -0.0716
18537W        W38817   9.543  16.766  12.717  0.2317  0.2574  0.0370
18538W        W38818   7.276  18.306   0.372  0.1487 -0.0452  0.0110
18539W        W38819   0.170   2.940  14.954  0.0019 -0.0202  0.0785
18540W        W38820  14.610  17.587   3.486 -0.0632  0.0663  0.1296
18541W        W38821   5.683   2.408  12.833 -0.0348 -0.2300 -0.4009
18542W        W38822  13.147   7.746  14.739  0.0855 -0.0750  0.1666
18543W        W38823  10.085  13.085  14.502 -0.0473 -0.2335 -0.1685
18544W        W38824   7.559   2.062  13.288 -0.1895  0.2050 -0.0574
18545W        W38825   1.203   2.749  12.068  0.2533  0.1986 -0.0905
18546W        W38826   6.669  16.938   2.282  0.0370 -0.0065 -0.0561
18547W        W38827   2.517   5.720   0.350 -0.2499  0.0206  0.1310
18548W        W38828   0.872   8.758   2.534 -0.0047 -0.0418  0.2224
18549W        W38829  17.953   7.549   4.924 -0.3789  0.2119  0.2006
18550W        W38830   5.431   4.749  14.116 -0.2678 -0.0437 -0.1369
18551W        W38831   1.812  15.046   1.396 -0.0633  0.2463 -0.0067
18552W        W38832  12.804  12.723   3.082  0.2027 -0.0727  0.0919
18553W        W38833  13.441  13.057  13.475 -0.2595 -0.0214  0.0821
18554W        W38834   9.735   9.815  12.446 -0.1520 -0.0757 -0.2037
18555W        W38835  17.898  16.038  11.057 -0.0058 -0.1889 -0.2443
18556W        W38836  12.572   6.040   1.215 -0.4545  0.0930  0.0392
18557W        W38837   5.988  17.725   3.889 -0.0658 -0.0040 -0.1543
18558W        W38838  10.006   9.260  13.691 -0.2735 -0.3403 -0.1906
18559W        W38839  10.014  17.942   1.501  0.0953 -0.4665  0.2120
18560W        W38840  13.113  14.737  14.014 -0.1427 -0.1117 -0.2328
18561W        W38841  13.746   9.266  13.861  0.1357 -0.0663 -0.3289
18562W        W38842   3.102  10.431  12.976  0.1995  0.2890 -0.4388
18563W        W38843   0.322  14.033  11.763  0.0163  0.1951 -0.0887
18564W        W38844  12.772   4.492   1.462  0.0004 -0.1165  0.0043
18565W        W38845  14.925   7.343   4.171  0.0125  0.1174 -0.0346
18566W        W38846   4.310  18.174  15.025  0.0077  0.0384  0.0462
18567W        W38847   5.963  10.221  14.918 -0.1104 -0.2093  0.3721
18568W        W38848   8.627   1.787   4.375  0.0616  0.2117  0.2161
18569W        W38849   0.503   8.321  11.612  0.3012  0.3101 -0.1645
18570W        W38850   9.800  14.602   2.207  0.1431 -0.3104  0.0146
18571W        W38851  15.006   5.007   3.192  0.1043  0.1771 -0.0981
18572W        W38852  11.272  18.711  15.109 -0.1028  0.1242  0.0477
18573W        W38853   9.640   6.865  15.342  0.1349  0.1101 -0.0909
18574W        W38854  17.953  17.901  15.353  0.1147 -0.2998 -0.0658
18575W        W38855   3.910  14.538   3.686 -0.1928 -0.1153  0.2349
18576W        W38856  14.931  16.808   2.136  0.1552  0.1793 -0.0487
18577W        W38857  17.939   5.501  14.803  0.2208  0.2392  0.0331
18578W        W38858  14.807   3.466   2.718  0.1033 -0.0941  0.3467
18579W        W38859  15.412   7.946  12.726  0.0155  0.0486  0.0404
18580W        W38860  11.323   8.974  14.878 -0.0329  0.0823  0.2808
18581W        W38861  14.775   0.697  14.581 -0.1421  0.0801 -0.2324
18582W        W38862  14.950   9.365   2.606  0.0130  0.0203 -0.2893
18583W        W38863  16.270   6.385   2.482 -0.2518 -0.3032  0.0835
18584W        W38864   7.181   2.683  13.666 -0.0512  0.1954  0.0361
18585W        W38865   5.428   8.490  13.733 -0.0776  0.1966  0.3549
18586W        W38866   4.320   0.732  10.486  0.0161 -0.0442  0.0046
18587W        W38867   4.924   5.465   3.226 -0.1739  0.1220  0.0288
18588W        W38868   8.254  17.668  10.751 -0.0739  0.2164  0.1831
18589W        W38869  14.697   6.171  13.756  0.1048 -0.1314  0.2654
18590W        W38870   1.308  10.145  12.335 -0.1286 -0.2035 -0.0296
18591W        W38871   7.102   3.820   3.192  0.1734  0.2979  0.5014
18592W        W38872   1.453   4.576  14.062  0.0434 -0.0749 -0.2917
18593W        W38873   5.836  18.318   1.613  0.1492  0.0220 -0.1803
18594W        W38874  13.400  10.176   3.632  0.0391 -0.0349  0.0268
18595W        W38875   2.063   7.079  12.772  0.1610 -0.1252 -0.3607
18596W        W38876  15.301  15.733  14.776 -0.2953 -0.1943 -0.1127
18597W        W38877  11.342   4.636   3.997  0.2047  0.2680 -0.0590
18598W        W38878  10.767  18.681  15.208 -0.0037  0.0353 -0.1160
18599W        W38879   2.333   2.017  12.493  0.1630  0.2657  0.2967
18600W        W38880   0.526   4.425  14.691  0.1047 -0.1207 -0.1825
18601W        W38881   4.064   4.793  11.761 -0.1317 -0.1283  0.0620
18602W        W38882   4.304  16.400   0.451  0.0699  0.4282 -0.0110
18603W        W38883  12.333   0.831   1.582  0.1299 -0.3136  0.0175
18604W        W38884  10.137  18.580   3.882 -0.0642  0.0140 -0.0129
18605W        W38885  10.683   6.164   1.706 -0.0286 -0.0648 -0.0155
18606W        W38886   7.206  16.580  13.604  0.0406  0.2192  0.2333
18607W        W38887  17.360   4.592  14.907  0.0922  0.0205  0.0912
18608W        W38888  12.947   0.631  13.411  0.1611  0.0955 -0.0860
18609W        W38889  13.530   8.018  12.334 -0.2133  0.0680 -0.2147
18610W        W38890   5.412   7.919  10.730 -0.1872 -0.0562 -0.0398
18611W        W38891   8.165  14.664   1.252 -0.4242 -0.1204 -0.1199
18612W        W38892  11.875   9.925   1.594  0.0376  0.0229  0.0844
18613W        W38893   2.990  11.732  11.704 -0.1655 -0.2333  0.1595
18614W        W38894  15.351  15.174  12.549  0.2090 -0.2150 -0.1086
18615W        W38895   3.562  13.957  10.747  0.0980  0.2612  0.0469
18616W        W38896   4.147  13.599   2.609 -0.1156  0.2759  0.2735
18617W        W38897   6.455   7.948   3.176 -0.0732 -0.0444  0.3892
18618W        W38898   0.629   3.772  12.456 -0.1367  0.0496  0.1767
18619W        W38899  17.018   0.184   2.467 -0.0026  0.0835  0.2657
18620W        W38900  14.741   6.597   3.725  0.1087 -0.2585  0.0650
18621W        W38901   9.408  15.922  14.907 -0.0573 -0.2030  0.1323
18622W        W38902   6.517  13.574  10.171  0.1489 -0.1579  0.2233
18623W        W38903  10.078  17.321  13.153  0.2014  0.2214 -0.0567
18624W        W38904  12.054  17.984  10.547 -0.0535  0.1513  0.1322
18625W        W38905   6.246  12.712   2.994  0.0645 -0.2852 -0.2795
18626W        W38906   3.385  15.070   0.271 -0.2326 -0.1660 -0.2554
18627W        W38907  11.794  14.212   2.261 -0.0439 -0.2913 -0.2976
18628W        W38908  15.028   7.367  15.049  0.3868  0.0254  0.1954
18629W        W38909  12.024   1.110  14.241 -0.3133 -0.0009 -0.0353
18630W        W38910  15.356   3.531   0.663 -0.0915 -0.3075  0.0612
18631W        W38911  17.505  13.106  15.271 -0.0072 -0.0387 -0.0778
18632W        W38912   7.265   0.444  12.291 -0.0237  0.1879 -0.3637
18633W        W38913   7.593  11.849   0.730 -0.0491  0.0401  0.1605
18634W        W38914   5.241  16.277  12.047 -0.1777 -0.1443 -0.1534
18635W        W38915   7.865   9.303   2.051  0.1718 -0.1082  0.0119
18636W        W38916  14.843  12.509  13.246  0.2649  0.2809  0.1697
18637W        W38917   5.408   0.122   1.939  0.1398  0.2035  0.2373
18638W        W38918   7.317  14.082  13.383 -0.0798  0.0715 -0.0640
18639W        W38919  16.716  11.582   3.245 -0.1728 -0.1702 -0.1035
18640W        W38920  15.193   1.210  10.875 -0.0724  0.0846 -0.0204
18641W        W38921   3.149   5.768  12.991 -0.2529  0.1016  0.2342
18642W        W38922   7.365   4.838  13.157 -0.1596  0.2257  0.0465
18643W        W38923  15.317  15.520  13.453  0.2817  0.0387 -0.0218
18644W        W38924  14.224   0.966  13.135 -0.0893 -0.4381  0.2063
18645W        W38925  14.687   7.793   4.372 -0.3770  0.1764  0.0296
18646W        W38926   0.642  17.127   1.676 -0.2097 -0.0487  0.2676
18647W        W38927   4.862   4.814   3.276 -0.3687  0.0656 -0.1872
18648W        W38928   0.847  18.562   1.247  0.1561  0.0782 -0.0941
18649W        W38929   6.389  18.428   1.816  0.1174 -0.1132  0.2527
18650W        W38930  11.692   5.247   1.823  0.1899  0.2032  0.2096
18651W        W38931  14.045  18.700  11.106  0.0602  0.1309  0.0898
18652W        W38932  12.772  17.917  11.135 -0.0692 -0.1610 -0.0011
18653W        W38933  11.883   3.097   3.896 -0.2160  0.3102 -0.3444
18654W        W38934  11.834   0.988  14.714 -0.1694  0.1518  0.2303
18655W        W38935   7.271   3.731   0.997 -0.0205  0.0712  0.2128
18656W        W38936  10.128   1.121   3.871  0.1840 -0.0478 -0.0691
18657W        W38937   5.197   1.144  13.904  0.0556 -0.4256  0.4394
18658W        W38938  16.538  18.319   3.082 -0.1658 -0.2796 -0.1372
18659W        W38939   3.021   4.216   0.935  0.1588  0.1477  0.0999
18660W        W38940  18.219   0.834   0.709 -0.0653  0.0639 -0.0812
18661W        W38941   5.734  16.278  11.809 -0.0642 -0.0459  0.2218
18662W        W38942   4.456  16.890   0.327  0.2647 -0.2113  0.0426
18663W        W38943   4.041  15.089  12.243  0.5085  0.0250 -0.2961
18664W        W38944   8.375   5.405   0.431 -0.1877 -0.0292 -0.1452
18665W        W38945  16.800   0.131   4.784  0.2420 -0.0962  0.1269
18666W        W38946  16.696  17.152   3.878 -0.0728 -0.0287 -0.0217
18667W        W38947  15.801   6.330   4.210  0.3297 -0.2940  0.1360
18668W        W38948  13.044   2.022   1.068 -0.1299  0.0118 -0.2084
18669W        W38949  16.598  12.780   4.179 -0.0797 -0.2488  0.2198
18670W        W38950   1.004   2.756  14.381  0.1347 -0.0971 -0.1127
18671W        W38951  11.274   8.001   4.557 -0.0593  0.0077 -0.1019
18672W        W38952   9.577  11.420   4.062  0.0461  0.1628  0.0365
18673W        W38953   5.650  13.890   2.927  0.0544 -0.2209 -0.0015
18674W        W38954   0.513  14.268  11.349 -0.1171 -0.0897  0.1715
18675W        W38955  13.501  10.979   2.509  0.0477 -0.0410 -0.0878
18676W        W38956   8.564   9.054   2.653  0.3792 -0.2642 -0.4540
18677W        W38957  14.786   0.619  12.033 -0.1172  0.1201  0.0101
18678W        W38958   4.377  15.154   1.002  0.0517  0.0069  0.0910
18679W        W38959   9.429   2.973  15.084 -0.1429  0.1191  0.2662
18680W        W38960  12.434  15.252  14.917 -0.3368  0.1694  0.0796
18681W        W38961  11.367   5.248  15.124 -0.3069  0.0644  0.2031
18682W        W38962   9.219  12.660  12.027  0.0155  0.0570 -0.1316
18683W        W38963  15.867   4.370   1.214  0.0418  0.2205 -0.1775
18684W        W38964  18.074   3.359  13.649 -0.2836  0.3268  0.0703
18685W        W38965   5.398   0.900   2.689  0.1004 -0.1418 -0.0264
18686W        W38966   2.648  15.886  12.357  0.0788  0.1143 -0.0031
18687W        W38967   1.498   2.232   4.425  0.1214 -0.2834 -0.1252
18688W        W38968   3.489   0.784   2.469 -0.1074  0.2381  0.1328
18689W        W38969   5.846   8.080   1.646  0.1212 -0.2318 -0.0693
18690W        W38970   9.740  11.633  13.076  0.1298 -0.2473 -0.1493
18691W        W38971   6.295   0.220  13.501  0.3394 -0.3676 -0.0545
18692W        W38972  16.280  18.538   2.503  0.2122  0.1978  0.4623
18693W        W38973   4.328   0.958   2.441 -0.0440 -0.0740 -0.1244
18694W        W38974  17.113  17.890   1.004 -0.2638  0.0739  0.1675
18695W        W38975  10.061   9.975  14.673  0.1015 -0.2482  0.0320
18696W        W38976  11.874   4.133   3.012 -0.1203 -0.0741  0.0816
18697W        W38977   3.780   2.174   1.399  0.1750 -0.3197 -0.0822
18698W        W38978   1.183  18.064  11.022  0.2476 -0.1935  0.0259
18699W        W38979  15.822  12.956   0.290 -0.0540 -0.1238 -0.1474
18700W        W38980   2.898   6.110   0.297  0.2248  0.0624  0.2470
18701W        W38981  16.503   5.876   3.339 -0.2877 -0.0826  0.4345
18702W        W38982   6.617   4.604  12.672 -0.0967 -0.0839  0.1539
18703W        W38983   3.667   2.136   3.645 -0.1337 -0.0834 -0.1746
18704W        W38984   5.613  16.705  12.103  0.3754  0.0295 -0.0872
18705W        W38985   1.488  18.295   0.476 -0.1732 -0.3896  0.0547
18706W        W38986  13.109   0.486   2.899  0.1849 -0.1679  0.3451
18707W        W38987  17.649  18.410   1.757  0.1486  0.1798  0.0732
18708W        W38988   0.620   2.710   1.598  0.0816 -0.2347  0.0319
18709W        W38989   1.289   0.791   2.245  0.1778  0.2469 -0.0557
18710W        W38990   4.054   5.851   3.367  0.0780  0.0403 -0.1283
18711W        W38991  15.991   0.766  10.698  0.1431 -0.2202  0.0063
18712W        W38992   8.938   0.456   3.150 -0.1294  0.1181 -0.1289
18713W        W38993   7.875  14.868  13.040 -0.2278 -0.2015 -0.1223
18714W        W38994  13.338   9.115  14.648 -0.0034  0.4458  0.1503
18715W        W38995  10.389   7.024  13.696  0.2396  0.2315  0.1259
18716W        W38996   0.751  12.824   1.188  0.0364 -0.2893 -0.2342
18717W        W38997   6.724   8.623  11.231  0.1179 -0.0127  0.0326
18718W        W38998  14.224   0.220   2.065 -0.0932  0.1126  0.2008
18719W        W38999  10.552   3.680   3.169  0.1580 -0.2846 -0.0797
18720W        W39000  14.911   9.112   1.635  0.1540  0.2481 -0.0764
18721W        W39001   4.319   0.736   1.933  0.1424  0.0822  0.1662
18722W        W39002   4.419   3.544  13.351  0.3081  0.0792 -0.0153
18723W        W39003   1.396   2.684   2.258  0.1994 -0.0853  0.0954
18724W        W39004   2.573   7.390  14.297  0.1693 -0.2394  0.1061
18725W        W39005   7.195   2.104  12.877  0.0336 -0.1775 -0.1377
18726W        W39006  10.304   8.060  11.634  0.0580 -0.0661 -0.0759
18727W        W39007  15.677  14.160  12.144  0.1466  0.1245 -0.0065
18728W        W39008  16.116   3.273   1.765 -0.1110 -0.1255  0.1168
18729W        W39009   4.274  14.681  11.906  0.2568 -0.2019 -0.0052
18730W        W39010  13.027   4.236   5.182  0.3426  0.2422 -0.1521
18731W        W39011  17.107   3.233  13.629  0.0776  0.1205 -0.2914
18732W        W39012   6.249   9.436   2.553  0.1025  0.0178 -0.1656
18733W        W39013  17.860  11.580   0.265  0.3221  0.0325  0.0809
18734W        W39014  18.447   5.609  14.800  0.2081  0.0705 -0.1424
18735W        W39015  11.884   2.184  15.219 -0.0738 -0.2855 -0.1914
18736W        W39016  15.462  11.831   1.877 -0.1536 -0.0781 -0.1059
18737W        W39017   0.326  17.521   3.243  0.1056 -0.0052  0.0427
18738W        W39018   3.307   1.240  11.018  0.0670  0.1883  0.0676
18739W        W39019  14.953   7.836  12.540 -0.1609  0.3219 -0.0374
18740W        W39020  11.923   5.377   2.340 -0.0566  0.4089  0.2940
18741W        W39021   5.166   6.267   2.586 -0.0458 -0.1294 -0.0650
18742W        W39022   4.934  18.141   1.594 -0.0168 -0.2360 -0.1245
18743W        W39023   1.868  18.649   0.500  0.1326 -0.1368 -0.1598
18744W        W39024  18.674  10.936   2.408 -0.1317  0.0069  0.0242
18745W        W39025   7.676   4.905   2.345 -0.0046  0.2388 -0.2991
18746W        W39026  12.873  15.639   2.702 -0.3133  0.1434  0.1067
18747W        W39027   9.137   4.237   4.647 -0.0699 -0.0167 -0.0053
18748W        W39028   0.649  17.921   3.063 -0.0926 -0.0857  0.1215
18749W        W39029   4.571   3.834  12.977  0.3282 -0.0742  0.0964
18750W        W39030  17.205  13.212  12.649  0.1916 -0.0021  0.1823
18751W        W39031  13.316   1.661  10.129 -0.1748 -0.0438  0.2350
18752W        W39032  12.746  13.433   4.384  0.1894 -0.2148 -0.2310
18753W        W39033  17.464  17.779  15.100  0.3242  0.1519 -0.0668
18754W        W39034  12.363  17.511  11.188 -0.2592  0.3008 -0.2603
18755W        W39035   6.012  17.137   1.265 -0.0838  0.0705 -0.1500
18756W        W39036  10.094  10.613   4.128  0.1849 -0.2602 -0.0068
18757W        W39037  12.514   8.211  12.134 -0.1263  0.0288  0.2379
18758W        W39038  12.196  18.527   1.504  0.2211 -0.1650  0.1580
18759W        W39039   1.609   7.124  11.868 -0.1017 -0.1429  0.0914
18760W        W39040   4.555   7.106   1.547  0.0338  0.4101  0.0014
18761W        W39041  16.500   1.588   3.212 -0.0618 -0.2008  0.2404
18762W        W39042  11.578   6.859   3.323  0.0049  0.0647 -0.2733
18763W        W39043   4.616  11.424   0.061  0.2529  0.0244 -0.1184
18764W        W39044   4.084   3.251  13.697  0.0766  0.1229 -0.1903
18765W        W39045   0.833   0.163  11.874  0.0461  0.0991  0.0679
18766W        W39046   4.392  17.348   0.474 -0.1361  0.3380 -0.1528
18767W        W39047  18.490   9.993  15.395  0.0194 -0.0556  0.2812
18768W        W39048  11.042  16.582  14.510  0.0285 -0.4745 -0.0099
18769W        W39049  18.706   0.713  13.173  0.1869 -0.1211  0.0174
18770W        W39050  10.580  11.011  14.573  0.2193 -0.1327  0.0594
18771W        W39051   8.043   4.216  14.258  0.1240  0.0413 -0.2840
18772W        W39052   7.176  13.702  13.064 -0.0584  0.0143  0.0515
18773W        W39053   9.203  18.112   0.081  0.0121  0.1783 -0.2337
18774W        W39054   1.977  10.495   2.712  0.4299 -0.6181  0.0241
18775W        W39055   5.290  12.611   3.057  0.1700 -0.1069  0.1030
18776W        W39056   6.219   0.142   1.998  0.0236  0.1310 -0.0971
18777W        W39057  11.412  17.869   1.018 -0.2955 -0.0006  0.1797
18778W        W39058  16.397   2.211  12.713  0.0227 -0.1539 -0.0483
18779W        W39059   7.219  14.695   1.050  0.2103  0.4766  0.1019
18780W        W39060  13.319  13.439   1.879 -0.4606  0.0705 -0.0034
18781W        W39061   5.189  13.033   4.173 -0.2801  0.1549  0.0161
18782W        W39062   8.151   2.337  12.437  0.1325  0.3497 -0.1535
18783W        W39063   5.065   9.979  11.284  0.0074 -0.2445 -0.0053
18784W        W39064   7.983  13.902   2.868  0.1556  0.0242 -0.1997
18785W        W39065  10.980  16.178  13.150 -0.2032  0.1799 -0.4539
18786W        W39066  10.371   0.225  10.831  0.0451 -0.0336 -0.0443
18787W        W39067  17.265  15.016   0.487  0.0379  0.2603  0.2158
18788W        W39068  10.308   5.078   3.954 -0.1930  0.0119  0.1642
18789W        W39069  13.340  17.394   2.638  0.1247  0.0310  0.0475
18790W        W39070   6.902   1.138  12.872  0.0760 -0.3494  0.1692
18791W        W39071  18.512  12.778   4.004 -0.0965  0.1266  0.1091
18792W        W39072   7.595   8.911   0.637  0.0243  0.0624 -0.2215
18793W        W39073   9.462  11.466  14.844 -0.1648 -0.1250  0.0079
18794W        W39074   3.572  16.378  11.443 -0.2049  0.2936  0.2418
18795W        W39075  17.439   6.117   3.551  0.0357 -0.0507 -0.1144
18796W        W39076  14.954   6.115   4.044  0.1413  0.2320  0.0364
18797W        W39077  13.094  15.856   1.596 -0.0030  0.0792  0.2464
18798W        W39078  18.144  13.631   1.491 -0.1790 -0.0547 -0.0561
18799W        W39079   6.843  16.621   0.500  0.0603 -0.2516 -0.2153
18800W        W39080  13.916   0.955   1.536  0.3963 -0.3573 -0.0943
18801W        W39081   6.812   2.418  14.306 -0.0964  0.0620  0.1487
18802W        W39082   3.560   5.899   3.336 -0.3061 -0.2735  0.1903
18803W        W39083  17.121  17.871  14.719 -0.2358 -0.1744 -0.1384
18804W        W39084  18.387  18.003   1.271  0.3740  0.0497  0.0407
18805W        W39085   5.521   8.995   0.127  0.0878  0.1809 -0.1752
18806W        W39086   4.904   7.879   4.950 -0.0141 -0.0355 -0.0457
18807W        W39087   0.375  18.675  10.790 -0.4290 -0.1072 -0.0144
18808W        W39088  17.747   3.535  14.371 -0.0502  0.1413  0.1627
18809W        W39089   5.432  16.510  11.037  0.0344  0.1194  0.0432
18810W        W39090   3.548   0.788   0.426  0.0726 -0.1498 -0.1763
18811W        W39091   2.239  17.008  13.802  0.0653 -0.0632 -0.1199
18812W        W39092  15.811  17.595   3.218 -0.1207 -0.1757 -0.0726
18813W        W39093  11.814  14.619  12.799  0.0231 -0.1248 -0.0072
18814W        W39094   8.876  18.678   1.442  0.2528 -0.3275  0.0895
18815W        W39095  14.311   5.442   2.521 -0.0086 -0.0282 -0.1200
18816W        W39096  12.509  16.347  13.083 -0.1772  0.0239 -0.0650
18817W        W39097   0.305   8.804  11.605  0.1743  0.0159 -0.2634
18818W        W39098  12.206  16.719  11.410  0.0968  0.0537 -0.0473
18819W        W39099  15.547   2.946  13.600  0.0474  0.0273  0.0400
18820W        W39100  18.123   4.051   4.243 -0.1236 -0.1880 -0.1598
18821W        W39101   0.499   2.537   3.515  0.0193  0.1314  0.1944
18822W        W39102  15.982   7.103   0.826  0.2323  0.0412  0.3849
18823W        W39103   5.457  16.628   1.844 -0.1343  0.0428  0.1052
18824W        W39104   3.102   7.349  11.770  0.3972 -0.1542 -0.1623
18825W        W39105   7.329  10.840  13.366  0.0302 -0.1323 -0.0144
18826W        W39106   7.265  10.635  11.569 -0.1586 -0.1517  0.0906
18827W        W39107  13.403  15.017  11.429  0.1577  0.1215  0.0014
18828W        W39108   7.900  11.879  14.495 -0.2598 -0.1384  0.0656
18829W        W39109   0.473  15.089  13.124  0.2733 -0.3640 -0.0212
18830W        W39110  11.625   8.231  12.586 -0.0018  0.2348 -0.1176
18831W        W39111   0.767   2.693   3.951  0.0902 -0.2361 -0.2008
18832W        W39112  14.227   6.897  11.841 -0.0385  0.2105  0.1055
18833W        W39113   5.775  10.505  12.617 -0.0539 -0.0761  0.0178
18834W        W39114   1.433  10.606  14.078  0.0001 -0.0622  0.0703
18835W        W39115  15.375   0.996  14.818  0.2823  0.0118 -0.0629
18836W        W39116  12.018   4.274   2.507  0.2768  0.3603 -0.0494
18837W        W39117  10.146   0.718   2.399  0.1584 -0.1855  0.0806
18838W        W39118   8.998  12.346  15.003 -0.0055  0.2493  0.0872
18839W        W39119  11.971   0.692  15.128 -0.2410  0.0683  0.2701
18840W        W39120   7.756   6.326   2.068 -0.0925 -0.3034  0.1662
18841W        W39121   2.996   8.020  15.158  0.2215 -0.1876 -0.1724
18842W        W39122   1.539  12.704   0.067  0.0483 -0.1373 -0.0425
18843W        W39123  16.094  12.753   4.262  0.2711  0.3717  0.4353
18844W        W39124   4.467   3.266  11.466  0.1308 -0.0075 -0.1269
18845W        W39125  13.193  14.667  13.039 -0.1012 -0.1581 -0.2301
18846W        W39126   8.051   2.818  11.390  0.4111 -0.1518  0.0304
18847W        W39127  15.938   3.688   4.651  0.1739 -0.4517  0.1591
18848W        W39128   7.825  15.045   3.289  0.1297  0.3833 -0.1062
18849W        W39129   1.854   6.028   1.189 -0.0194  0.1002  0.1247
18850W        W39130   8.779   4.927  14.452  0.0127  0.0007 -0.0696
18851W        W39131   3.905  15.382   2.789  0.0848  0.2272 -0.1537
18852W        W39132  13.809   9.217  11.845 -0.0745  0.2344  0.1131
18853W        W39133  16.195  10.881   2.985 -0.0897  0.1220 -0.2695
18854W        W39134  17.262   0.897  14.088  0.2131 -0.1070 -0.1501
18855W        W39135   2.867   9.866  13.165 -0.0677  0.0378 -0.0991
18856W        W39136  18.463   7.387  13.038  0.2327 -0.0361 -0.0389
18857W        W39137   0.474  16.043  13.084  0.2162 -0.0115  0.2831
18858W        W39138  15.113   9.196  14.969  0.1008  0.1155  0.2963
18859W        W39139   1.723  11.148  12.003 -0.2906  0.0424 -0.0752
18860W        W39140   5.644  15.673   2.172 -0.2705 -0.0194 -0.0902
18861W        W39141  15.075  12.495  14.648  0.1025 -0.1923 -0.1984
18862W        W39142   1.022   2.824   1.268 -0.0318  0.1673 -0.0239
18863W        W39143  13.811  17.009  13.508 -0.0399 -0.2361 -0.0397
18864W        W39144   0.881   9.775   0.995  0.1520  0.2965  0.1782
18865W        W39145  17.575  14.513  11.143 -0.1156 -0.0637  0.0698
18866W        W39146   9.589  11.936   2.280  0.2148  0.1985  0.0794
18867W        W39147   1.654   4.102   0.381 -0.0793  0.0858 -0.2827
18868W        W39148  17.379  10.257   3.531 -0.0772  0.1047  0.1294
18869W        W39149   3.150  16.031  12.985  0.2394 -0.0491  0.1407
18870W        W39150   9.932  14.624  12.735 -0.1112  0.3228 -0.2026
18871W        W39151   3.803  10.420  12.643 -0.0400 -0.0322  0.0461
18872W        W39152   7.065  14.620   2.838  0.1032 -0.1424  0.1694
18873W        W39153  15.960   0.073   2.709  0.0721 -0.2502  0.0471
18874W        W39154   4.429   8.264  14.980  0.0937 -0.3437  0.0439
18875W        W39155   4.014  13.459  15.269 -0.2374  0.3231  0.0213
18876W        W39156  17.167  10.979   0.813  0.0616  0.0651 -0.2835
18877W        W39157  11.874  15.799  14.996  0.1343 -0.1518  0.1570
18878W        W39158   5.280  12.607  14.338 -0.0573  0.0454 -0.1589
18879W        W39159   1.719   5.496  13.319  0.0175  0.1002 -0.3031
18880W        W39160   1.942  17.434   0.017  0.0948 -0.3890 -0.1879
18881W        W39161  11.395  10.510   0.396  0.2836  0.0222 -0.0054
18882W        W39162  15.564  10.914   2.274 -0.0113  0.2624 -0.0833
18883W        W39163   5.125   1.193  10.173  0.3321  0.2356  0.1068
18884W        W39164  16.181  17.931   5.279  0.0344  0.2792  0.1663
18885W        W39165  11.610   5.943  14.587  0.0201  0.2627 -0.3436
18886W        W39166  12.112   8.592  13.242  0.0225  0.0251 -0.1298
18887W        W39167  18.138  11.961  13.389  0.1878 -0.1727  0.0266
18888W        W39168  17.791  13.835  13.121  0.1706  0.4246  0.4198
18889W        W39169  17.955  10.155   1.369 -0.0600  0.6453 -0.4720
18890W        W39170   0.961   7.147   4.246  0.1753 -0.0411 -0.2085
18891W        W39171  16.926  12.365   3.935  0.0383 -0.3020  0.0671
18892W        W39172  12.703  17.792   5.590 -0.1124  0.1694 -0.0061
18893W        W39173   6.671   3.471   3.092  0.0243  0.0987 -0.2003
18894W        W39174   8.129  17.475  12.041 -0.1960  0.0558 -0.0858
18895W        W39175  18.313   9.840  14.137  0.2195 -0.1448  0.1427
18896W        W39176   4.861   0.316  11.111 -0.1931  0.0125  0.2335
18897W        W39177   8.214  13.513   0.348  0.3480 -0.0201  0.1135
18898W        W39178   8.116   7.300   1.626  0.1296 -0.2117  0.1106
18899W        W39179  12.245  15.892  12.976 -0.0192 -0.2068 -0.0969
18900W        W39180   5.404   2.022  12.277 -0.0141  0.1014 -0.2426
18901W        W39181   3.994  14.455  13.806  0.2776 -0.0214  0.2983
18902W        W39182   8.892   6.357   3.390 -0.3048 -0.1226  0.0122
18903W        W39183  13.980  12.045  15.024 -0.3446  0.2478 -0.2697
18904W        W39184   3.776  18.008   3.771 -0.0201 -0.0938  0.1654
18905W        W39185   7.406  18.180  14.058 -0.2367 -0.4427 -0.1175
18906W        W39186   2.550   9.745   0.171  0.2132  0.1390 -0.2662
18907W        W39187  15.735  11.735  11.733 -0.3309 -0.1028 -0.2101
18908W        W39188   7.566  15.100  12.099 -0.1672 -0.0379  0.2558
18909W        W39189  13.591   3.476  14.550 -0.0919  0.1107 -0.4819
18910W        W39190   2.148  14.242  14.591 -0.1781 -0.3177  0.0779
18911W        W39191   5.560   0.824  13.589 -0.0942 -0.2647 -0.2123
18912W        W39192   1.160  18.209   1.475  0.1625  0.1401 -0.0912
18913W        W39193   1.182   5.275   0.378 -0.1705 -0.1909  0.2149
18914W        W39194  18.535  16.233   2.086  0.3631  0.4084 -0.2679
18915W        W39195  16.619  14.492  13.736  0.0550  0.1761 -0.0183
18916W        W39196   6.834  12.106   3.113 -0.2905 -0.3535  0.2990
18917W        W39197  16.959  15.374  11.676  0.0810 -0.0800  0.0043
18918W        W39198  13.466   9.393   1.027  0.2361  0.3960 -0.1361
18919W        W39199   0.360   4.083   3.989  0.1295 -0.2618 -0.1621
18920W        W39200  11.824   3.402  12.666  0.2301  0.3942  0.3559
18921W        W39201   2.370  15.256   5.093 -0.1529  0.1855  0.4735
18922W        W39202  17.701   5.374  10.996  0.0221 -0.0793 -0.1227
18923W        W39203  10.740   4.178   2.476  0.0667  0.2240  0.0159
18924W        W39204   8.481  14.101  11.313 -0.0615  0.2051  0.3055
18925W        W39205   8.216   7.048   1.187  0.1868  0.1398 -0.0271
18926W        W39206   2.155  12.966  14.937 -0.0850 -0.2068 -0.2247
18927W        W39207   9.671  12.740  11.059  0.1190  0.2693  0.2577
18928W        W39208  16.208  16.430   0.238  0.1279 -0.2477 -0.0297
18929W        W39209  10.208   2.027   2.369  0.2314 -0.3032  0.3200
18930W        W39210   2.932  14.003  14.473  0.2760 -0.2516  0.1491
18931W        W39211   3.637  15.826   3.700  0.1343  0.1322 -0.0204
18932W        W39212   3.335  10.325   2.353 -0.0185  0.0738  0.1354
18933W        W39213  17.806   5.361  11.495  0.1259  0.2611  0.1788
18934W        W39214  16.358   6.803   4.303  0.1109 -0.0026 -0.1456
18935W        W39215  18.282   1.775   3.915 -0.4004  0.0606 -0.1197
18936W        W39216   6.171   0.422   2.947 -0.3972 -0.0340 -0.0735
18937W        W39217   5.321  11.303  12.446 -0.0192  0.0272  0.1838
18938W        W39218  10.605  17.781   3.025  0.1116 -0.0930  0.0638
18939W        W39219  17.216  11.947   1.058  0.0546 -0.0546  0.3184
18940W        W39220  16.774  14.040  13.816  0.0607 -0.0472  0.1159
18941W        W39221  12.018  10.346  13.829 -0.1668 -0.2251  0.0209
18942W        W39222  16.107  13.674   2.927 -0.2227  0.3631  0.0326
18943W        W39223  10.516  15.257   0.494  0.3356 -0.0833 -0.0025
18944W        W39224   4.135  10.601   2.043  0.1299 -0.0468  0.1739
18945W        W39225   6.598   4.658  13.825  0.1536 -0.1302 -0.2576
18946W        W39226  12.227   3.937  14.690  0.1455 -0.0072  0.1020
18947W        W39227  18.721   5.383  13.968 -0.2696  0.0552  0.0285
18948W        W39228  14.054  16.477  14.080  0.5294 -0.0149 -0.1938
18949W        W39229  13.835   9.746   1.824  0.0026  0.1067  0.6951
18950W        W39230   6.834   5.647   4.008 -0.1516 -0.0370  0.0782
18951W        W39231   7.429  16.379  11.446  0.0786 -0.4553  0.1931
18952W        W39232  11.796  14.057  11.903  0.0787  0.3532 -0.4071
18953W        W39233  12.866   8.908   2.471  0.3536 -0.0715 -0.0577
18954W        W39234   9.567   2.504  15.090  0.4238  0.1012  0.3722
18955W        W39235   1.200   9.512  15.055  0.2673 -0.0390 -0.3465
18956W        W39236  12.212  12.886   4.419 -0.1881  0.2900  0.1521
18957W        W39237   1.484   3.203   1.948  0.0064  0.1576  0.0945
18958W        W39238   2.784  16.882  15.032  0.0478 -0.0288  0.2560
18959W        W39239  17.946   2.292  11.223 -0.2540 -0.0423  0.0138
18960W        W39240   6.839   9.449   3.384  0.0151 -0.1621  0.0250
18961W        W39241  14.728  11.754  15.306 -0.0448 -0.2031 -0.1882
18962W        W39242  16.729  11.221   4.637 -0.1575 -0.0513  0.2448
18963W        W39243  11.026   1.616  13.038 -0.0465  0.0734  0.2720
18964W        W39244  11.799   9.016   1.827 -0.1209  0.3187 -0.1247
18965W        W39245  12.762   3.057   2.762 -0.2560 -0.0523  0.0402
18966W        W39246   2.829  10.583   3.186  0.0731  0.3072  0.2717
18967W        W39247   9.153   4.656  14.312 -0.1133  0.1952 -0.0552
18968W        W39248  10.675  11.466  14.840  0.0650 -0.2117  0.0038
18969W        W39249   2.367  13.073  13.600 -0.3217  0.0473  0.2816
18970W        W39250  12.445   1.863   3.941  0.0673 -0.0098  0.2539
18971W        W39251  15.240  10.060   1.752 -0.2885 -0.0647 -0.1767
18972W        W39252  17.429   8.383   1.383 -0.0514  0.0576  0.1106
18973W        W39253  10.548   0.122   3.935 -0.2832  0.1126 -0.2274
18974W        W39254   4.127   0.804  11.426 -0.1272  0.3642  0.3900
18975W        W39255   3.860   3.040   0.352  0.0781 -0.3815  0.5116
18976W        W39256   5.867   3.423   1.460  0.1588 -0.1201  0.0989
18977W        W39257  11.089   7.557   0.790  0.1404 -0.1449  0.2140
18978W        W39258   8.344  17.339   0.051 -0.0622  0.2816  0.0103
18979W        W39259   8.191   9.438   4.187  0.1848  0.0170 -0.2433
18980W        W39260  14.407  17.497   1.578  0.0336  0.0399 -0.0026
18981W        W39261  12.178  11.795  10.591 -0.0903  0.2376  0.2803
18982W        W39262   1.255  12.236  11.501  0.0063 -0.3915 -0.1935
18983W        W39263  11.595   9.468   4.547 -0.2275  0.1572 -0.1213
18984W        W39264   0.112  14.414   0.387  0.1714 -0.0651  0.2444
18985W        W39265   6.608  15.428   3.566  0.0366  0.0686  0.0570
18986W        W39266  18.006   9.432  13.354  0.1613  0.1989 -0.1352
18987W        W39267   6.345  15.895   3.065  0.1598 -0.0350 -0.1063
18988W        W39268  14.677  13.560   1.574 -0.1773  0.0509  0.2467
18989W        W39269  11.492  16.200  12.003 -0.1416  0.0082  0.4333
18990W        W39270  10.878   4.669   1.889 -0.1216 -0.1334 -0.2868
18991W        W39271  13.046   8.526  12.023  0.1860  0.0628  0.1528
18992W        W39272   0.403   2.800  13.995 -0.1402 -0.0551  0.3178
18993W        W39273  11.807   8.643  11.995 -0.2044 -0.0452  0.0318
18994W        W39274   0.406  14.845   0.572  0.0573 -0.3601 -0.0271
18995W        W39275   2.962   9.193  13.843 -0.2615 -0.0897 -0.0556
18996W        W39276   3.745   5.855   3.807 -0.1253  0.1724 -0.2404
18997W        W39277  11.996  13.231   0.821 -0.1499  0.0133  0.2481
18998W        W39278   4.594  11.903   2.960 -0.2095  0.0062  0.1987
18999W        W39279   5.234  18.365   1.996  0.1584 -0.3241 -0.0362
19000W        W39280   2.668   1.698   1.012 -0.0171 -0.0154  0.1756
19001W        W39281   6.850   1.549  13.675  0.2117 -0.0657 -0.0585
19002W        W39282   1.795   1.337   1.437 -0.2713 -0.2826 -0.0088
19003W        W39283   1.459  10.921  12.868 -0.0882  0.1848  0.4031
19004W        W39284   2.943  13.907   1.353 -0.1963  0.0301 -0.1104
19005W        W39285   4.435   5.751   4.310 -0.1605 -0.1156 -0.3606
19006W        W39286  14.105   8.219   4.098  0.2677  0.1817  0.0293
19007W        W39287   6.833   0.271   3.802 -0.0556  0.0277 -0.1116
19008W        W39288  15.041   9.986  13.287  0.1690  0.0195  0.0529
19009W        W39289  16.622   0.412   1.072  0.0953  0.0789 -0.0337
19010W        W39290   1.859   2.684   0.678 -0.1828  0.1431  0.1108
19011W        W39291   6.904   5.605  11.041 -0.2719 -0.0283  0.1647
19012W        W39292   5.410  10.141  13.599 -0.1461 -0.1310 -0.3472
19013W        W39293  17.829  17.448   0.627 -0.2181  0.0291 -0.1083
19014W        W39294   3.487   8.030   2.399  0.1431  0.2625  0.2872
19015W        W39295  18.638  14.142  12.049  0.0992  0.0280 -0.1235
19016W        W39296  16.950  18.390   0.139  0.0208  0.3345 -0.0708
19017W        W39297   8.002  11.640  12.264  0.1277  0.3138  0.0420
19018W        W39298  13.310  18.167   1.685  0.1009 -0.0548  0.1058
19019W        W39299  18.141   9.378  11.883 -0.0159 -0.2678  0.1658
19020W        W39300  18.206   1.351  12.843 -0.3468 -0.2215 -0.2579
19021W        W39301   0.802  10.009  12.630 -0.0337  0.0002 -0.1216
19022W        W39302   2.630   5.735  12.927  0.2073 -0.0006  0.1653
19023W        W39303   2.725  11.336  11.500 -0.0771  0.0604  0.1971
19024W        W39304   6.732   9.832   3.659 -0.0482 -0.0090 -0.2287
19025W        W39305   1.961  18.137  13.917  0.1451 -0.0881  0.2555
19026W        W39306   6.166   9.544  11.446  0.0362  0.0476  0.0831
19027W        W39307   0.583   5.101  15.174 -0.2796 -0.1825  0.4158
19028W        W39308   8.360   2.578   1.401 -0.2281 -0.3320 -0.0346
19029W        W39309  13.563  18.606  11.436  0.0135  0.2281  0.0063
19030W        W39310   5.871  17.868   2.572 -0.0911  0.2648 -0.3154
19031W        W39311  11.508  18.718   1.288 -0.0464 -0.0047 -0.2500
19032W        W39312   3.349  12.047  11.931  0.2321  0.1878 -0.1384
19033W        W39313  16.895   0.505   2.113  0.1281  0.3374 -0.0149
19034W        W39314   9.532  16.776  15.015 -0.2137 -0.0758 -0.1641
19035W        W39315   7.977  10.327   3.054 -0.3178 -0.1667  0.1552
19036W        W39316   0.027   4.394   4.238  0.0023  0.1806 -0.0631
19037W        W39317  10.818   2.593   0.135 -0.1057 -0.4041  0.5344
19038W        W39318   4.807  15.947  13.180  0.1191 -0.3328  0.0848
19039W        W39319  17.463  12.363   1.364 -0.0373  0.1128  0.0443
19040W        W39320  17.237  16.134   1.578 -0.1535  0.0538 -0.1433
19041W        W39321   3.227  16.144  14.893  0.0753 -0.0507 -0.1763
19042W        W39322   9.775   0.433   3.059  0.0728 -0.3541  0.2369
19043W        W39323   4.525  11.253   4.392 -0.0999 -0.0382  0.2036
19044W        W39324   6.361  12.255   3.407 -0.2070  0.1000  0.0140
19045W        W39325   2.080  12.411  13.029 -0.0076  0.2273 -0.2286
19046W        W39326   9.733  17.296  13.505 -0.0255 -0.0223  0.2486
19047W        W39327  13.420   2.513   4.243 -0.1531 -0.0555 -0.1286
19048W        W39328  11.208   5.883  11.546 -0.0181  0.0372 -0.1106
19049W        W39329  18.277  13.932   0.996  0.3189  0.1881 -0.2757
19050W        W39330  13.942  16.164  12.233 -0.1200  0.0989  0.1293
19051W        W39331  13.739   1.540   1.824  0.4130 -0.0133  0.0401
19052W        W39332   4.100  12.317   3.765 -0.1373  0.0525  0.1844
19053W        W39333   7.505   5.819   2.041  0.3214  0.2084  0.0712
19054W        W39334   6.416  12.956  12.392 -0.0855  0.0392  0.1544
19055W        W39335   4.811  18.568   2.794  0.1289  0.3469 -0.1321
19056W        W39336  16.545  12.768  12.688  0.2065 -0.0639 -0.1145
19057W        W39337   6.667   2.520   0.206  0.1937 -0.2605 -0.0758
19058W        W39338  15.433  13.328   4.533  0.3387 -0.0480 -0.2312
19059W        W39339   3.030   8.022   0.761  0.0899 -0.3307  0.3610
19060W        W39340   4.261   4.505  11.365  0.1122 -0.1184  0.1799
19061W        W39341   6.040   9.242  12.983  0.0907  0.2531  0.0376
19062W        W39342  15.335  13.176   2.179  0.2008  0.0500 -0.1157
19063W        W39343  17.850  17.757   3.515 -0.0385 -0.2192 -0.0146
19064W        W39344   7.281  13.232  15.275  0.2050 -0.1504  0.1582
19065W        W39345  16.256   2.897   0.314  0.0109 -0.3363  0.1344
19066W        W39346   7.990   6.090  12.976 -0.0584  0.3330  0.1384
19067W        W39347  15.900   7.259   4.804 -0.0229  0.2988 -0.0522
19068W        W39348   1.661   6.173  11.573 -0.0187 -0.1304  0.1597
19069W        W39349   8.064  16.097  15.205  0.2915 -0.1048 -0.0457
19070W        W39350  18.155   1.923  12.763 -0.0876  0.0101 -0.0658
19071W        W39351  11.990   9.029  12.350 -0.0566 -0.0955  0.0408
19072W        W39352   4.671  13.292  14.085 -0.1946 -0.2493  0.0308
19073W        W39353  11.194   1.298   2.680  0.0016  0.1608  0.0109
19074W        W39354   1.576   3.608   1.657  0.1910 -0.0284 -0.0813
19075W        W39355   6.422   0.216  15.006 -0.0566  0.2054  0.2406
19076W        W39356   5.433   9.530   4.745 -0.2838  0.0092 -0.1379
19077W        W39357  12.106   3.202  13.212  0.2244 -0.3020  0.0111
19078W        W39358   3.303  14.668  15.298 -0.0542 -0.1856  0.0063
19079W        W39359   8.823   1.453   0.920 -0.3367  0.1583 -0.0120
19080W        W39360   6.983  15.081  12.937 -0.0413  0.0156  0.1214
19081W        W39361   9.237   8.782   4.807  0.4174  0.2046  0.0033
19082W        W39362   9.309  10.417  14.843 -0.1161 -0.2724  0.2279
19083W        W39363  18.582   4.789   0.949 -0.3314  0.2301  0.0092
19084W        W39364   5.091   6.885  15.050 -0.5410  0.0413 -0.1835
19085W        W39365  15.494   1.711   1.628 -0.3419 -0.1787 -0.0168
19086W        W39366   8.594  12.727   0.791 -0.1153  0.0882  0.0618
19087W        W39367   0.672  12.242   2.388 -0.1348  0.4413 -0.1314
19088W        W39368  15.038   5.555  12.743 -0.0607 -0.0432 -0.2725
19089W        W39369   2.667  17.761  13.627  0.0393  0.1640 -0.1830
19090W        W39370   3.383   6.109   2.872  0.2651  0.0593  0.0645
19091W        W39371  13.904   5.344   0.391 -0.0784  0.0436  0.0496
19092W        W39372   3.855  11.853  13.967  0.1170  0.0916 -0.2376
19093W        W39373  14.794   5.426   1.259  0.1272 -0.1142 -0.3462
19094W        W39374  12.858  13.166  10.451  0.4553 -0.3591 -0.4778
19095W        W39375  15.400   5.704  12.232  0.0676  0.0327 -0.0509
19096W        W39376  13.339  14.376   1.778 -0.0754  0.1766  0.1683
19097W        W39377   3.636  18.460   1.805  0.0387 -0.0851  0.0042
19098W        W39378   5.359  16.914  11.293  0.0074  0.0392 -0.1422
19099W        W39379  17.157   7.357   5.416  0.1903 -0.1605  0.1495
19100W        W39380  13.277  16.241  14.413  0.1781 -0.1154  0.0514
19101W        W39381  18.035  12.080  12.429  0.1837  0.1758 -0.2082
19102W        W39382   7.301  15.633   2.195  0.0275 -0.2167 -0.1164
19103W        W39383   5.392   8.410  11.470 -0.1361  0.2367  0.3074
19104W        W39384   2.632   7.701   3.432  0.3703 -0.2441  0.0807
19105W        W39385   9.785  11.781   1.597 -0.1728  0.1121 -0.1101
19106W        W39386   3.984   7.944   0.847  0.1029  0.6112  0.1193
19107W        W39387   9.659   8.440   3.464 -0.1742  0.0462  0.1319
19108W        W39388   4.090   1.315   5.060 -0.1826 -0.1205  0.3789
19109W        W39389   5.515   1.821  11.673  0.2651 -0.3558  0.0058
19110W        W39390  13.012   4.041  13.506  0.3478 -0.0444  0.2490
19111W        W39391   8.146  18.325   3.928 -0.1230 -0.2157  0.2132
19112W        W39392   4.116   8.605   0.262 -0.0015 -0.1743 -0.2200
19113W        W39393  11.202   1.147  13.223 -0.2220 -0.0358 -0.5217
19114W        W39394  15.323  16.174   0.233  0.3669  0.1183  0.1221
19115W        W39395   0.478  10.188  10.961 -0.2621  0.0866  0.0677
19116W        W39396   9.063  14.770  11.296 -0.0816  0.0920 -0.0326
19117W        W39397   0.273   7.736   5.267  0.0096 -0.2780  0.1832
19118W        W39398  12.307   9.143   4.216 -0.1064  0.0520  0.2151
19119W        W39399  15.223  14.314  13.326 -0.3126  0.2584 -0.1162
19120W        W39400  11.941   5.889  12.709  0.1134 -0.0278 -0.1785
19121W        W39401   5.861  18.724   3.821  0.0756  0.1250  0.0770
19122W        W39402   6.668   0.560  11.708 -0.0083  0.1282  0.1051
19123W        W39403  14.731   7.987   0.330  0.1858  0.0292  0.1445
19124W        W39404   8.521  12.154   1.495  0.0531  0.1946  0.0382
19125W        W39405  14.216  13.354   1.739  0.0422 -0.3783  0.1703
19126W        W39406   8.761  16.294  14.528  0.1569 -0.2305  0.0995
19127W        W39407   4.837   6.909   0.689  0.0942  0.0335  0.0440
19128W        W39408   8.094   0.054   3.707  0.1625 -0.0169  0.1701
19129W        W39409   1.510   5.581  13.738  0.0541  0.0490 -0.2343
19130W        W39410  13.165   1.813   2.860  0.0074 -0.1131 -0.2782
19131W        W39411  17.922  14.495   1.797 -0.0448 -0.1902 -0.1952
19132W        W39412  18.342   9.580   3.870 -0.0426 -0.2118  0.0134
19133W        W39413   8.330  13.049  11.506  0.6407 -0.3885 -0.1085
19134W        W39414  18.396  14.465   1.660 -0.0407 -0.1259 -0.0064
19135W        W39415  16.259  16.455  11.502 -0.1261 -0.1449  0.0270
19136W        W39416  12.651   7.350   1.934 -0.1769  0.2820  0.1504
19137W        W39417  15.736   6.910   3.096 -0.0643 -0.0610 -0.0977
19138W        W39418  10.332  17.336   1.498 -0.2762 -0.2186  0.0463
19139W        W39419  16.327   7.429   2.944  0.1607 -0.0949 -0.0217
19140W        W39420  14.289   7.761  15.241  0.1966 -0.0591 -0.1453
19141W        W39421  14.134  17.804   2.315 -0.0545 -0.1133  0.1398
19142W        W39422  11.768  11.070  13.816 -0.2957  0.1026 -0.2457
19143W        W39423   4.747   7.789  11.422 -0.0392  0.0301 -0.1196
19144W        W39424   2.317   8.155  13.648 -0.1736 -0.0095 -0.1904
19145W        W39425  18.453   3.038   1.363 -0.0756  0.2486 -0.3078
19146W        W39426   1.669   4.118   1.378 -0.0926 -0.2026  0.0182
19147W        W39427   8.260   8.396  12.034  0.0445 -0.0181  0.0570
19148W        W39428   4.785   1.389   3.257 -0.1235  0.2400 -0.0897
19149W        W39429  11.674   9.664  12.647 -0.1817  0.0678 -0.2396
19150W        W39430  14.976  13.111  12.133 -0.0682  0.0433 -0.3497
19151W        W39431   7.969   0.248  11.271 -0.0245 -0.1598  0.0024
19152W        W39432  15.460   7.907  12.222 -0.1966  0.2360 -0.0594
19153W        W39433   4.518   5.749  15.237 -0.4182 -0.2079  0.2621
19154W        W39434   9.367  12.554  13.006  0.0847  0.1766 -0.3324
19155W        W39435  11.053  17.887  11.794  0.0542 -0.3112  0.1653
19156W        W39436  14.078  14.501  13.824 -0.1719  0.0444 -0.1788
19157W        W39437   5.406   3.364   3.972  0.0851 -0.0942 -0.0761
19158W        W39438   0.350   0.644   3.580 -0.2440 -0.2233  0.1159
19159W        W39439  16.022  15.191  11.846 -0.0469 -0.2070 -0.3910
19160W        W39440  12.795   5.341   0.711  0.2451  0.1366  0.1203
19161W        W39441  14.134  12.337  13.876  0.2050 -0.2612 -0.1143
19162W        W39442   0.541  11.226   0.255 -0.0092  0.1633 -0.1025
19163W        W39443   1.570   2.131  12.826 -0.0456 -0.1501  0.1104
19164W        W39444   1.375   9.613  12.226  0.1411 -0.0566 -0.1616
19165W        W39445   8.194  10.373  12.999 -0.0195 -0.1640 -0.1663
19166W        W39446  13.222   5.999   0.593  0.1746 -0.1926  0.2887
19167W        W39447  17.303   4.981   5.917 -0.2926  0.1561  0.0889
19168W        W39448   9.391   8.225  14.497 -0.2540 -0.4380  0.2097
19169W        W39449   8.176   7.039  13.339  0.1870  0.1212  0.0259
19170W        W39450   7.379  11.788   3.129 -0.1796  0.0480 -0.0263
19171W        W39451   1.195  11.810  12.005 -0.1700  0.2694 -0.3236
19172W        W39452   8.633   9.701   4.376 -0.0355 -0.0410  0.1456
19173W        W39453  16.702  18.651   2.720 -0.2714 -0.2577  0.0175
19174W        W39454   9.518  13.899  12.354 -0.3329  0.0428  0.3158
19175W        W39455  15.588  14.971   3.116 -0.0343  0.1411  0.2160
19176W        W39456   5.723   1.785   1.052 -0.0619  0.0686 -0.0330
19177W        W39457  18.636   3.315  11.238 -0.0335 -0.1654  0.1960
19178W        W39458   2.725  17.192  14.644  0.1784  0.1636  0.0282
19179W        W39459  14.975   0.475   0.344 -0.1871 -0.1579  0.0210
19180W        W39460   8.431  17.113  12.178  0.2577  0.2935  0.0381
19181W        W39461   4.499   2.885  11.825 -0.0914 -0.0234 -0.0512
19182W        W39462  17.118   4.106  13.902 -0.3583 -0.1579 -0.3179
19183W        W39463   4.364  11.038  14.270  0.2883  0.1201  0.0025
19184W        W39464  15.989   0.195  13.356  0.3370  0.0966 -0.0058
19185W        W39465  13.603  14.645   4.307  0.0942 -0.2549  0.1409
19186W        W39466  15.447   4.678   3.922  0.2492  0.2028 -0.1270
19187W        W39467  18.654  16.335  13.490 -0.2181  0.1409  0.1218
19188W        W39468  10.036  12.781  15.282  0.0047 -0.2177  0.3456
19189W        W39469   5.830  11.935   4.327 -0.0297 -0.1531  0.0754
19190W        W39470   2.310   6.678  12.633 -0.0131 -0.1739 -0.0568
19191W        W39471   4.812   8.439   0.888 -0.0094 -0.0322 -0.0273
19192W        W39472   4.923   0.872   0.372  0.4453 -0.0785 -0.2624
19193W        W39473  14.477  17.580  12.341 -0.0541  0.0911  0.0976
19194W        W39474  10.442   9.416   3.395 -0.1289  0.0756 -0.1447
19195W        W39475   5.341   5.997   2.990  0.1860 -0.0620 -0.1495
19196W        W39476  12.868   5.098   3.195  0.2320  0.0526 -0.0391
19197W        W39477   6.695  13.144   2.174  0.2291 -0.1071  0.2317
19198W        W39478   6.205  18.242   1.117  0.1870  0.0853 -0.3211
19199W        W39479   3.500  11.667   0.783  0.1528  0.1633 -0.0353
19200W        W39480   1.473  13.343  13.009 -0.0224 -0.2792 -0.1509
19201W        W39481   5.208  14.123  12.956 -0.0835  0.0953 -0.0841
19202W        W39482  13.928   3.823  14.646  0.5452 -0.1744  0.1529
19203W        W39483  10.972  14.643  13.596  0.2062  0.0727 -0.2320
19204W        W39484   0.946   5.967  12.235  0.0613 -0.0049 -0.1293
19205W        W39485   3.928  10.853  10.857  0.0958  0.0453  0.2561
19206W        W39486   4.867  14.401  14.254  0.1085  0.1878 -0.1425
19207W        W39487  16.766   6.108  11.510 -0.0376 -0.2659  0.2379
19208W        W39488  14.485  17.740   1.968  0.2227 -0.2034 -0.2191
19209W        W39489  11.004   8.812  12.307  0.2402 -0.0160 -0.3647
19210W        W39490  16.863   0.205   0.204 -0.2425  0.0719  0.1455
19211W        W39491   2.272  11.568  14.597  0.1803 -0.0172  0.0277
19212W        W39492   6.335  17.020  11.808  0.2480 -0.1632  0.2293
19213W        W39493  13.034  12.880   2.264  0.0117 -0.0316 -0.1226
19214W        W39494   1.628   0.789  11.204  0.2767 -0.3719  0.1846
19215W        W39495  13.619   2.121  14.644 -0.0230  0.0659 -0.0586
19216W        W39496  16.702  17.820  12.923  0.1800 -0.1015  0.2396
19217W        W39497   3.000  10.122  14.424 -0.0588  0.0473  0.0026
19218W        W39498   7.186   5.110   0.547 -0.2175 -0.1083  0.0923
19219W        W39499  12.610   8.947   4.657 -0.1362 -0.1151  0.0316
19220W        W39500   3.574  16.057  13.314 -0.2334  0.1772 -0.1265
19221W        W39501   4.699   9.685  12.667  0.0033 -0.0204  0.0551
19222W        W39502   7.274   8.144   2.717  0.0766  0.2142  0.0248
19223W        W39503   9.917   6.485   0.138  0.0609  0.2899  0.1245
19224W        W39504   4.416   5.758  14.413 -0.0651  0.0851  0.2694
19225W        W39505  17.633   5.812  11.251  0.0862  0.2024  0.0788
19226W        W39506  16.563   5.391   0.487 -0.2038 -0.3616  0.2805
19227W        W39507  16.751   6.270  12.398  0.2261  0.1098  0.1410
19228W        W39508  15.505   2.063  13.941 -0.3225  0.1225 -0.1870
19229W        W39509   2.814   7.849   0.285  0.2729  0.2268 -0.0082
19230W        W39510  11.547   6.923  14.696 -0.1379  0.1772 -0.0052
19231W        W39511  16.354  15.910   0.379  0.1381 -0.0878  0.0257
19232W        W39512   6.993  14.116   3.461 -0.1621  0.1858  0.2708
19233W        W39513   7.582   4.809  15.077 -0.0242 -0.0745 -0.0360
19234W        W39514   9.283  15.623   4.458  0.2004 -0.0918  0.2316
19235W        W39515  10.525   4.546   4.061 -0.2414  0.1460  0.1042
19236W        W39516  18.519   6.193   0.531 -0.0364  0.0939  0.1053
19237W        W39517  13.278  15.274   1.933 -0.0426  0.0905 -0.0402
19238W        W39518   3.232   6.446  13.739  0.2055  0.0505  0.4339
19239W        W39519   7.288   5.484   3.780  0.0747 -0.1599  0.0215
19240W        W39520  15.096   5.102  14.219 -0.2859  0.0988  0.0135
19241W        W39521   2.698   0.438  13.815 -0.5466 -0.1845 -0.4327
19242W        W39522   2.084   2.267   0.513 -0.2306 -0.4868 -0.0889
19243W        W39523   9.259   4.595  12.537 -0.0552  0.5144  0.0557
19244W        W39524   5.371   5.755   0.646 -0.0600  0.0342 -0.1891
19245W        W39525   7.265   1.708  14.811 -0.1382 -0.2098  0.1130
19246W        W39526   8.775  11.358   2.580 -0.1010  0.1258  0.0790
19247W        W39527  13.225   0.347   2.105  0.0810 -0.0272  0.0393
19248W        W39528  12.971  16.561  10.902 -0.2026 -0.0310 -0.3186
19249W        W39529   5.521   4.329   1.839 -0.0180  0.0056 -0.0781
19250W        W39530  11.858   9.359  13.473  0.0774 -0.3594 -0.1870
19251W        W39531  11.049   4.867  10.545  0.1415 -0.0563  0.1854
19252W        W39532   0.023   9.946  14.072  0.0691 -0.1171  0.0321
19253W        W39533   0.021  12.537  14.904 -0.1054 -0.1079 -0.2046
19254W        W39534  10.654   1.772  15.072  0.2057 -0.1725  0.0759
19255W        W39535   6.059   6.991  12.587  0.0923  0.0344  0.1870
19256W        W39536   5.807  18.386  10.812 -0.1331 -0.1505 -0.0456
19257W        W39537  10.652  14.519   2.783 -0.2610 -0.1856  0.3180
19258W        W39538   2.560  17.413   1.828 -0.0122 -0.2131  0.0169
19259W        W39539  13.325  10.360  11.356  0.0168  0.2085  0.1675
19260W        W39540   8.530  10.362   0.173  0.0136 -0.1969  0.0643
19261W        W39541  12.419  12.308  11.349 -0.3743  0.1279 -0.1424
19262W        W39542   5.254   2.111   4.029  0.0931  0.1919  0.1269
19263W        W39543   0.311  13.058   3.130  0.0822  0.2100  0.1807
19264W        W39544   5.304   9.949   0.607  0.3174 -0.1363 -0.0433
19265W        W39545   9.576  18.163  13.793  0.0618 -0.1007 -0.0641
19266W        W39546   4.817  12.811  14.170  0.3449  0.0588  0.2756
19267W        W39547  18.608   0.891  10.928 -0.0035 -0.2513  0.0821
19268W        W39548   9.834   4.680  11.398  0.1792  0.0647 -0.1838
19269W        W39549  18.560   4.909  13.166 -0.1216  0.2057 -0.1764
19270W        W39550  15.036  16.632   2.619 -0.0209 -0.0337 -0.0327
19271W        W39551   0.238   4.411   2.256 -0.0930  0.1539  0.1743
19272W        W39552  10.097  17.589   1.863  0.4206  0.0517  0.1805
19273W        W39553  17.310   3.078   2.406 -0.4417  0.0753 -0.0432
19274W        W39554  14.277   2.687  13.592 -0.0972 -0.1425 -0.0574
19275W        W39555  18.571  10.022   4.328  0.0383 -0.1092 -0.0076
19276W        W39556  10.609  16.645  11.188 -0.0425 -0.0257 -0.0478
19277W        W39557  17.402  15.941   4.436 -0.2631 -0.0651  0.0563
19278W        W39558  17.261  16.679  13.670 -0.1118 -0.2048  0.0940
19279W        W39559   8.334   5.356   3.840  0.0178 -0.3178 -0.2654
19280W        W39560   7.109  13.134   4.523 -0.0858  0.0720 -0.1996
19281W        W39561   9.148  18.290  11.847  0.2363  0.0995  0.0179
19282W        W39562  16.768   3.176  12.816 -0.0271 -0.0943  0.0036
19283W        W39563  14.487  14.804   2.073  0.1931 -0.1458 -0.1016
19284W        W39564  17.472  12.039   3.815 -0.2663 -0.0723 -0.1263
19285W        W39565  18.369   9.393   1.650  0.0931 -0.3696  0.0804
19286W        W39566   3.263  18.211   3.595  0.2431  0.2149  0.1356
19287W        W39567  12.445   8.604  15.090 -0.0094  0.1441  0.0579
19288W        W39568   3.635   3.959  13.977  0.0940  0.1500 -0.0477
19289W        W39569   2.338  10.722  12.990 -0.0140 -0.3155  0.1572
19290W        W39570  12.167  17.606   2.571  0.1427 -0.1651 -0.1839
19291W        W39571   4.633  14.963  10.932 -0.1599  0.0270 -0.0770
19292W        W39572  15.138   6.838  12.558  0.0378 -0.1513 -0.2591
19293W        W39573  15.940  12.333  12.465 -0.0324 -0.1394 -0.1570
19294W        W39574  12.862  14.441   1.276 -0.3598  0.0584  0.1558
19295W        W39575   4.669   4.832  13.751  0.0173  0.1887 -0.1534
19296W        W39576  18.092   7.517   3.560  0.2378  0.1183 -0.1600
19297W        W39577  17.919   4.492   2.672  0.2108  0.2416  0.0927
19298W        W39578   0.555   5.276  12.060  0.0992 -0.2301  0.2499
19299W        W39579   1.043  12.837  14.999 -0.0558 -0.0426 -0.0401
19300W        W39580   3.627   1.147  13.413  0.0745 -0.1014 -0.3801
19301W        W39581   9.686  15.368   0.726  0.2694 -0.0870 -0.2268
19302W        W39582  10.801  15.631  14.411 -0.1557 -0.0339 -0.2643
19303W        W39583  17.854  13.716   0.532 -0.2383  0.0804 -0.0214
19304W        W39584  15.200   6.213   2.284  0.0267 -0.1224 -0.0376
19305W        W39585   9.430   6.589  14.811  0.2300  0.3462  0.0399
19306W        W39586  11.846  10.387   2.493  0.2280 -0.2960 -0.0272
19307W        W39587   8.024  14.622   0.699  0.0683 -0.1900  0.2222
19308W        W39588  14.656   1.288   3.418 -0.0082 -0.0890  0.0288
19309W        W39589  11.522   5.400   5.089  0.1405 -0.1076 -0.2095
19310W        W39590  15.707   6.166  10.620  0.1326 -0.0628  0.1253
19311W        W39591   5.134   4.652   1.640  0.1626  0.1329 -0.0115
19312W        W39592  13.440  18.441  15.232 -0.2895  0.0721 -0.2376
19313W        W39593  15.696   2.864  11.761 -0.2095  0.2642  0.0619
19314W        W39594  15.284   9.262  12.673  0.1684 -0.1672 -0.5476
19315W        W39595   5.197  16.725  13.009 -0.1883 -0.0784 -0.0152
19316W        W39596  16.143   9.593  12.246  0.1194 -0.3635 -0.2857
19317W        W39597   2.265   8.587   0.842  0.0563  0.4304 -0.0802
19318W        W39598   7.910   7.258  11.593  0.1289  0.1865 -0.0565
19319W        W39599   6.058   0.413   0.590 -0.2409 -0.0448 -0.0580
19320W        W39600   1.968  15.719   2.816 -0.1884  0.3305 -0.2235
19321W        W39601  15.623   3.297  14.543 -0.0612  0.0997 -0.0437
19322W        W39602   0.414  14.963  11.831  0.1008  0.2149 -0.3167
19323W        W39603   1.367   7.806  14.704  0.1948 -0.0856 -0.3849
19324W        W39604  14.174   9.273  13.556 -0.0491 -0.0093  0.1830
19325W        W39605  13.185  16.553   3.916  0.2105  0.0184 -0.0689
19326W        W39606   9.391   8.719   1.179  0.3141  0.0814  0.0170
19327W        W39607  12.159   6.434   0.305  0.0066 -0.4724  0.1472
19328W        W39608   4.938   8.732   1.282  0.0630 -0.0969  0.0827
19329W        W39609  15.442  12.050   0.094  0.0526  0.2891  0.0114
19330W        W39610   6.455  16.826   0.148 -0.2136  0.1557 -0.3031
19331W        W39611   7.531   5.922  14.143 -0.0856  0.3011 -0.2184
19332W        W39612   5.363  11.445   3.454 -0.1149 -0.2693  0.1742
19333W        W39613  10.006   5.458   5.037 -0.2152 -0.1887  0.0317
19334W        W39614  10.927   0.372   2.664  0.0351  0.0772 -0.1543
19335W        W39615  16.146  14.083  12.283 -0.1607  0.1070  0.1517
19336W        W39616   9.972  17.097   1.773 -0.3669  0.0743 -0.1769
19337W        W39617   8.066  18.531  11.110 -0.2028  0.1755  0.1303
19338W        W39618   5.455   8.303  12.885  0.2173 -0.0989 -0.2034
19339W        W39619   0.607   3.463   1.682  0.0186 -0.0927 -0.0954
19340W        W39620  17.196   8.908   0.073 -0.2556 -0.0941  0.0011
19341W        W39621  12.692   1.929  12.150  0.3343 -0.0429 -0.1441
19342W        W39622  13.542   1.548   0.399  0.3677  0.0920 -0.0375
19343W        W39623   1.421   7.432  11.002  0.0167  0.1824 -0.1786
19344W        W39624  14.350  16.535  13.086  0.0944  0.0838 -0.0987
19345W        W39625   7.569   6.785  12.592  0.1426  0.1478 -0.0082
19346W        W39626  14.270   4.147  11.784  0.0686 -0.0513 -0.1121
19347W        W39627   3.015  15.550   2.801 -0.3963  0.2847  0.2733
19348W        W39628   0.748   4.827  14.766  0.0163 -0.1529  0.1175
19349W        W39629   1.449  13.183  12.033  0.3783  0.0872  0.1956
19350W        W39630  14.352   9.837   1.919 -0.3636 -0.1648  0.0480
19351W        W39631   2.962  12.215   0.697 -0.1762 -0.0111 -0.0430
19352W        W39632  15.868  16.403   4.609  0.0321  0.0521 -0.3371
19353W        W39633  12.503   2.262  10.883 -0.1755  0.3402  0.0068
19354W        W39634   9.656  13.429   0.292 -0.2726  0.2176 -0.1748
19355W        W39635   4.717   9.066  14.981 -0.2043  0.1488 -0.2783
19356W        W39636   1.732   7.029   4.252 -0.2949  0.3839  0.2828
19357W        W39637   8.638  17.091   3.089  0.2635  0.0010  0.0219
19358W        W39638  14.484  12.573   1.321 -0.0061 -0.2082  0.1482
19359W        W39639  17.209  15.692   3.156 -0.2029 -0.0205 -0.1392
19360W        W39640   7.546   0.215  10.888 -0.0154 -0.0543  0.2109
19361W        W39641  16.866   1.949  12.049  0.1092  0.3098  0.3310
19362W        W39642   0.311   2.039   3.730 -0.0216 -0.2941 -0.0586
19363W        W39643  16.002   3.040   4.022 -0.0850 -0.1601  0.1225
19364W        W39644   7.730   9.812  11.516 -0.4460  0.1421  0.1831
19365W        W39645  12.751   9.175   3.423 -0.0133  0.1437 -0.2499
19366W        W39646  17.635   6.687  15.058  0.2680 -0.2984 -0.1091
19367W        W39647   0.825   2.011   2.688 -0.1322  0.0954 -0.5012
19368W        W39648  15.250   2.174  11.197 -0.1035  0.1827 -0.2396
19369W        W39649  14.340   2.470  15.279  0.0387  0.3299 -0.0914
19370W        W39650   8.691  18.224   0.123 -0.0839  0.0571 -0.1732
19371W        W39651  12.776  11.470  13.035  0.2268 -0.0965 -0.2626
19372W        W39652  11.674   0.659   0.121 -0.0433 -0.1815 -0.2251
19373W        W39653  13.529  12.815   2.115  0.1256  0.2266  0.0546
19374W        W39654  16.194  11.261  14.948  0.0820  0.0642 -0.0240
19375W        W39655   2.888  12.281  11.928 -0.0696 -0.3590 -0.2585
19376W        W39656  12.454  11.461   4.456  0.3514 -0.0212 -0.1126
19377W        W39657  17.986  10.312   2.936 -0.2139  0.1850 -0.1388
19378W        W39658   1.524   9.464  13.140  0.1708 -0.0226 -0.1535
19379W        W39659  17.691  13.580  15.343  0.0650 -0.2418  0.3215
19380W        W39660   9.596   6.096  14.672  0.0230  0.0585  0.0828
19381W        W39661  12.279  14.332  11.383  0.0343 -0.1024  0.0818
19382W        W39662   7.703  13.573  14.975  0.2690  0.4864  0.0306
19383W        W39663   2.644  17.113   0.436  0.4810 -0.0804  0.1232
19384W        W39664   1.953   6.952   3.253 -0.2632  0.0710 -0.4377
19385W        W39665  17.671   5.279   4.860 -0.2647 -0.2053 -0.0345
19386W        W39666   1.116  18.579   0.126 -0.1499 -0.0675 -0.1573
19387W        W39667   4.814  12.929   2.844 -0.2239 -0.1999 -0.1569
19388W        W39668   4.232  15.668   1.058 -0.1319 -0.2293  0.0670
19389W        W39669  17.105  11.481  13.563  0.0350 -0.0214 -0.3511
19390W        W39670  11.424  12.428  12.472  0.3640  0.1520  0.0784
19391W        W39671  10.023   4.312   0.134 -0.1009  0.2523  0.4508
19392W        W39672  13.439  13.245   2.352  0.3202  0.1252 -0.2656
19393W        W39673  10.227  10.575   1.795  0.1997  0.0335 -0.0116
19394W        W39674  16.454  15.546  14.202  0.3349 -0.2069 -0.2252
19395W        W39675  13.594   7.671  11.908  0.1384 -0.0065 -0.1925
19396W        W39676   4.983  11.080  15.319  0.0355  0.0094 -0.0165
19397W        W39677  10.321   7.511   4.475 -0.2521 -0.3348 -0.5017
19398W        W39678  13.559   3.634  12.816 -0.0797  0.1389  0.1818
19399W        W39679   1.308  16.398  14.038  0.3511 -0.0365 -0.0177
19400W        W39680  16.387   7.801   3.272  0.3303  0.1312  0.2754
19401W        W39681  15.887   6.999  13.240  0.2357  0.2243 -0.1013
19402W        W39682  17.602   4.418  12.918 -0.2357 -0.2170 -0.1721
19403W        W39683   7.342   0.671  14.980 -0.0949 -0.1948 -0.0193
19404W        W39684   8.145   4.263  11.973  0.2837  0.1187 -0.1956
19405W        W39685  17.821   3.132  14.057  0.1245 -0.0667 -0.1832
19406W        W39686   1.129   2.653  13.408  0.3208 -0.2439 -0.0288
19407W        W39687   4.337  11.029  13.349  0.0745 -0.1582  0.1633
19408W        W39688  16.512   2.391  11.231 -0.0924  0.0661 -0.0055
19409W        W39689  14.389   5.119  12.059 -0.1306 -0.0363 -0.1686
19410W        W39690   4.836  13.266  12.505 -0.0056 -0.0185  0.1993
19411W        W39691   9.928   8.229  11.895 -0.2434  0.0734  0.0874
19412W        W39692  12.390   9.156   0.679  0.0291 -0.0355  0.0388
19413W        W39693  18.435  17.301  14.405 -0.1801 -0.1915  0.1733
19414W        W39694   6.602  17.137  11.007  0.4343 -0.1597  0.1602
19415W        W39695   6.814  12.521   1.382  0.1105  0.5346 -0.1264
19416W        W39696   6.743  11.645  11.845 -0.2711 -0.0760 -0.0682
19417W        W39697   6.896  14.312  13.583 -0.1841  0.2527  0.0320
19418W        W39698  15.553   5.045  14.464 -0.3387  0.0624 -0.0381
19419W        W39699  12.878   2.276  15.122 -0.1503  0.0786  0.0999
19420W        W39700  12.956  17.647  12.401  0.0096  0.0467 -0.3471
19421W        W39701  13.383   3.512   1.089  0.1971 -0.3575  0.3232
19422W        W39702  12.957   9.624   1.963  0.1154 -0.0404  0.1465
19423W        W39703  13.766  13.961  14.303 -0.5991  0.3000 -0.1488
19424W        W39704   3.181   6.229   3.297  0.1880  0.2934 -0.1954
19425W        W39705   0.017   2.414   1.146  0.0897  0.1119 -0.0179
19426W        W39706   6.171   2.694   3.117  0.1334  0.0940  0.1179
19427W        W39707   4.017  17.069  13.618 -0.0149  0.3590  0.0563
19428W        W39708  14.034   8.532   3.246 -0.2873 -0.3730  0.0693
19429W        W39709  10.136  16.841   4.008  0.0816 -0.0446 -0.0145
19430W        W39710   2.575  18.729   1.311  0.1470  0.0189  0.0343
19431W        W39711   7.094  18.338   4.478  0.2410 -0.3007  0.1549
19432W        W39712   8.438   7.384   3.137 -0.0045  0.1153  0.2305
19433W        W39713   3.046   7.407  12.634 -0.2797  0.2816  0.1722
19434W        W39714  15.498   0.683  10.026  0.1339  0.1855  0.2726
19435W        W39715   3.737   7.506   4.337 -0.0955 -0.0944  0.0934
19436W        W39716   7.967   1.819  11.667 -0.0518 -0.2032  0.0881
19437W        W39717   1.875   3.115   0.965  0.1462 -0.2184 -0.2396
19438W        W39718  13.395   5.196  10.795  0.1423 -0.0429  0.1851
19439W        W39719   7.741   1.986   0.787  0.1915  0.1998 -0.0213
19440W        W39720   8.419   3.915  14.260 -0.2800  0.3289 -0.2605
19441W        W39721   3.817  12.399   5.184  0.1264  0.0011 -0.1063
19442W        W39722   4.924  12.975  11.673 -0.0281 -0.0910 -0.2399
19443W        W39723   5.259   0.015   0.261 -0.2093 -0.2120  0.1318
19444W        W39724  13.431   6.541  11.623  0.1073 -0.2395  0.0294
19445W        W39725   9.513  18.388  15.115 -0.0292 -0.2665  0.0716
19446W        W39726  16.698   4.265  14.722  0.1573 -0.0715 -0.0185
19447W        W39727   6.894   6.624   0.460 -0.0704  0.2400  0.2733
19448W        W39728   5.096  16.848  10.061 -0.0069  0.0849 -0.0275
19449W        W39729   7.460   6.322   4.152 -0.2962 -0.2909 -0.0826
19450W        W39730   3.935  10.213  13.183 -0.2940  0.0066 -0.3638
19451W        W39731   6.364  17.443  10.553 -0.2166 -0.0805 -0.3000
19452W        W39732   2.073  15.507   4.740 -0.4163  0.0762  0.0942
19453W        W39733  18.352   1.703  13.720  0.1133 -0.2784  0.1253
19454W        W39734   4.478   0.713   3.755  0.0702 -0.0830 -0.0724
19455W        W39735   7.115  13.446  11.124  0.0016  0.4005 -0.2695
19456W        W39736  16.911  11.469   0.057 -0.0208  0.1616 -0.1361
19457W        W39737   4.956  15.056  13.064 -0.2396  0.2008  0.0479
19458W        W39738   7.234   1.732   3.628  0.1634 -0.2058  0.1251
19459W        W39739   9.434   6.998  13.762 -0.0556 -0.0653  0.0454
19460W        W39740   8.336   0.012   2.184 -0.0013 -0.2572  0.1543
19461W        W39741  15.898  17.588   5.566  0.0913  0.1254 -0.0132
19462W        W39742   0.507  18.041   0.470 -0.3126 -0.1629  0.1444
19463W        W39743  17.932  12.735   1.539  0.3081 -0.0829 -0.2297
19464W        W39744  14.224  15.929   0.354 -0.0222 -0.0382  0.3250
19465W        W39745  13.949   6.487   3.194 -0.2399 -0.3088 -0.0897
19466W        W39746  16.476   6.974   0.774  0.0542  0.0199 -0.0033
19467W        W39747   1.391  17.749   0.600 -0.0235  0.0955 -0.0618
19468W        W39748   1.109   7.211  12.587  0.2249  0.2291  0.1789
19469W        W39749   4.480  11.203   2.401 -0.4364 -0.0949 -0.1298
19470W        W39750  13.846  12.575  14.787  0.1185 -0.2423  0.1567
19471W        W39751   1.375  13.773  14.253 -0.0724 -0.2984 -0.1099
19472W        W39752  17.975  14.598   3.800 -0.0814  0.2870  0.4151
19473W        W39753  17.667  13.731   3.463  0.3102 -0.1593  0.1334
19474W        W39754   5.524   7.435  14.314 -0.1333  0.0083  0.1079
19475W        W39755   3.010   3.854  13.274 -0.1152 -0.0198 -0.0331
19476W        W39756   4.509  13.156   3.818  0.2082  0.0171 -0.2766
19477W        W39757  16.209   5.125   0.809 -0.3486 -0.3373  0.0616
19478W        W39758   1.507   5.994  14.522  0.0276 -0.1952 -0.0797
19479W        W39759   0.945   9.331   3.833  0.3370 -0.0082  0.0016
19480W        W39760   8.862  13.997   2.414 -0.0818 -0.0838  0.0845
19481W        W39761  15.913  11.502  12.968  0.1612 -0.4472 -0.4296
19482W        W39762  18.613   8.143  12.241  0.3066 -0.0011 -0.1588
19483W        W39763  17.934  12.690  12.180 -0.0000 -0.1272  0.0265
19484W        W39764  12.066   7.614  13.323  0.2191  0.0575  0.1515
19485W        W39765  13.019   5.636   1.894  0.3028  0.0884  0.1928
19486W        W39766  14.723   8.917   4.146  0.1292  0.2118 -0.1833
19487W        W39767   0.808  18.134   0.839  0.0873  0.0972  0.3169
19488W        W39768   9.279  17.073   3.589  0.0944  0.1159 -0.0522
19489W        W39769  18.579  11.483  13.118 -0.3384  0.0848  0.0703
19490W        W39770   6.340   3.444  11.572 -0.2385  0.1348 -0.2445
19491W        W39771   0.949   5.448  15.253  0.0604 -0.1549  0.1254
19492W        W39772  17.156  10.830   2.462 -0.2024  0.1557  0.1648
19493W        W39773  13.005   3.289  12.337  0.2936 -0.2184 -0.2003
19494W        W39774  18.084  16.751   0.169 -0.0671 -0.0587 -0.2859
19495W        W39775  12.086   5.968   3.675 -0.1548 -0.0737  0.0469
19496W        W39776  10.168   6.095   1.457 -0.0486  0.1137 -0.2309
19497W        W39777  11.373   6.795  14.149 -0.1670 -0.3330  0.0921
19498W        W39778  17.647   2.265   3.338 -0.0826  0.3039  0.1650
19499W        W39779   4.781   1.908   2.048 -0.1990 -0.1489  0.2445
19500W        W39780   6.598  10.789  12.187  0.4005 -0.3607 -0.1312
19501W        W39781  17.123  13.276  13.422  0.1503 -0.1016 -0.1506
19502W        W39782   3.714   5.682   0.280  0.0977  0.0562 -0.3667
19503W        W39783   8.000   1.211   1.825 -0.0868  0.4746  0.0980
19504W        W39784  16.480  10.771  11.457  0.2938  0.0765  0.0128
19505W        W39785   4.079  11.062   1.461 -0.1419 -0.2283  0.1180
19506W        W39786  17.976   9.880  14.528  0.0634 -0.2126 -0.0271
19507W        W39787   9.776   2.430   1.480 -0.0914 -0.2193 -0.2782
19508W        W39788  13.752  10.100   2.686  0.0391  0.1202  0.0803
19509W        W39789   1.853   0.150  10.438  0.0625 -0.1558  0.1382
19510W        W39790   1.110  12.034   0.023 -0.0841  0.1193  0.2299
19511W        W39791  16.601  10.074   0.461  0.1156  0.3304 -0.2111
19512W        W39792  14.308   8.460  13.371 -0.0583  0.0168 -0.1121
19513W        W39793   8.310  11.072   2.815  0.1247  0.1639  0.1498
19514W        W39794   4.389  13.486  14.918 -0.1445  0.1868  0.0763
19515W        W39795   8.577   4.327   3.441  0.4324  0.0748 -0.1678
19516W        W39796   1.395  11.369  10.292 -0.1127  0.0467 -0.2840
19517W        W39797  16.767   1.007   1.660  0.0992  0.1877 -0.0547
19518W        W39798   3.759  17.824   0.901  0.0358 -0.0922 -0.0737
19519W        W39799  13.577   8.958   1.679 -0.0544  0.2512  0.1719
19520W        W39800   9.898  15.077   1.366 -0.0384  0.0581  0.1415
19521W        W39801  13.640   7.800  12.897  0.3704  0.0825 -0.1025
19522W        W39802   7.276   5.823   4.181 -0.1130  0.0112  0.1910
19523W        W39803   7.531   3.249   3.863 -0.0250  0.1988  0.0357
19524W        W39804  17.258  17.376  11.465  0.1613  0.1251 -0.1343
19525W        W39805   4.691  14.927  13.545  0.1947  0.3555  0.0047
19526W        W39806   5.759  18.322  11.970 -0.1520  0.3316 -0.1284
19527W        W39807  17.769   3.471   3.090 -0.1419 -0.0776 -0.2183
19528W        W39808   0.923   4.542   5.261 -0.2545 -0.1964  0.1076
19529W        W39809   0.583   5.240   3.179 -0.2105  0.3046  0.1176
19530W        W39810  15.457  13.689  13.925  0.2383 -0.3120 -0.0188
19531W        W39811   0.657  13.098   2.775 -0.1756 -0.1892 -0.2469
19532W        W39812   9.090   7.634  13.990 -0.0509 -0.4656  0.0573
19533W        W39813   7.401  15.106  13.928  0.2319 -0.1093 -0.0254
19534W        W39814  11.260   1.481   1.740 -0.3893  0.1368  0.2733
19535W        W39815  11.234  10.739  11.739  0.1893 -0.0750 -0.1839
19536W        W39816   2.267  15.243  11.117 -0.3192 -0.0667 -0.1831
19537W        W39817  17.213  11.665   2.563 -0.0184 -0.1072 -0.0293
19538W        W39818  15.442  16.252   2.679  0.1429  0.1391  0.0745
19539W        W39819   0.664  14.834   0.977  0.0405  0.1875 -0.0712
19540W        W39820   9.780   8.691  13.005  0.0168 -0.0034  0.0456
19541W        W39821   4.518  18.291   0.604 -0.2234  0.2806 -0.0616
19542W        W39822  13.806  11.056  11.449  0.0114 -0.1101  0.1858
19543W        W39823   4.382  14.204  12.628  0.1041 -0.0695  0.0582
19544W        W39824   6.459   4.783   4.393  0.3092 -0.2310 -0.0675
19545W        W39825   2.618  16.232   4.635 -0.2099 -0.0375  0.3002
19546W        W39826   8.595   6.198  11.575 -0.1226 -0.3791  0.0908
19547W        W39827  12.320   4.246   0.275  0.0207  0.3221  0.0528
19548W        W39828   3.590  14.682  14.717  0.2229 -0.0359 -0.2498
19549W        W39829   9.786   8.285  14.975 -0.0073 -0.0523  0.1305
19550W        W39830   3.273  12.394   2.942 -0.1917  0.1775  0.0233
19551W        W39831  15.441   7.229   3.407 -0.0853 -0.4274  0.0336
19552W        W39832   1.936   1.722  11.157 -0.0577 -0.2110 -0.1416
19553W        W39833  18.039   9.069   4.611 -0.1024 -0.0782 -0.0647
19554W        W39834   0.192  16.902   0.438  0.1402  0.0501  0.0424
19555W        W39835  13.416   7.208   4.322 -0.0756 -0.5078  0.1552
19556W        W39836  10.207   5.982  14.661  0.1639 -0.1231 -0.1294
19557W        W39837  17.928   3.883   0.580  0.2558 -0.0778  0.0103
19558W        W39838   2.864  17.525   1.329 -0.1239  0.2797  0.5704
19559W        W39839   4.442  10.993   3.484  0.2927 -0.1100 -0.1715
19560W        W39840  10.489   7.690   4.937  0.3396  0.0821  0.1473
19561W        W39841   6.387   2.863  11.809  0.0565 -0.2077 -0.0262
19562W        W39842  18.392   9.196   3.123  0.1426  0.3251 -0.1076
19563W        W39843   3.729   3.501  12.762 -0.0031 -0.0048  0.0653
19564W        W39844   1.438  15.645  15.136  0.0927 -0.0544 -0.0259
19565W        W39845   5.894   2.197  11.434 -0.2088 -0.2094  0.1032
19566W        W39846   5.911   0.539   3.950 -0.2905  0.1477  0.0897
19567W        W39847   7.902  10.796   2.566  0.4424 -0.1267 -0.3323
19568W        W39848   6.376  16.641   0.644  0.0149 -0.0392 -0.1674
19569W        W39849   4.782  10.975  14.054 -0.0612  0.1387 -0.1262
19570W        W39850  14.985   4.662   1.533 -0.1819  0.0282  0.0924
19571W        W39851   5.476   4.630  10.721 -0.0323  0.3181  0.2211
19572W        W39852   6.256   1.455   3.625  0.0790  0.0320 -0.2661
19573W        W39853   6.805  12.666  14.006  0.2132 -0.4055  0.1736
19574W        W39854  16.079  15.253   1.789  0.0437  0.0768  0.2498
19575W        W39855   1.683   1.380   1.922  0.0057 -0.1270 -0.0494
19576W        W39856   6.527  15.598  11.292  0.0218 -0.0318  0.1315
19577W        W39857   9.386  16.015  12.348 -0.0269  0.0314  0.1611
19578W        W39858  13.196   9.586   0.243 -0.2302 -0.0287 -0.0059
19579W        W39859  15.996  11.897   0.067  0.3788 -0.0559  0.0188
19580W        W39860  11.865   8.498   1.701 -0.0292 -0.0849  0.3066
19581W        W39861  13.243  16.519   5.329  0.3840  0.1347  0.0060
19582W        W39862   1.400   3.390  12.886  0.0560 -0.3633 -0.0969
19583W        W39863  12.537  18.391   4.182  0.1547 -0.1303 -0.1923
19584W        W39864  15.835  12.572   0.692 -0.2043 -0.0917  0.2391
19585W        W39865  12.543  17.564   1.554  0.0843 -0.4641 -0.0445
19586W        W39866  15.805   8.808  14.699 -0.1380 -0.0035 -0.1714
19587W        W39867  10.005  16.659  13.696 -0.2103  0.0707 -0.0028
19588W        W39868   7.970   6.694  14.003  0.0972 -0.1560  0.2097
19589W        W39869   5.654  10.662   4.045 -0.0106  0.1272  0.0644
19590W        W39870   8.270   3.573   3.719 -0.0091  0.1351 -0.0780
19591W        W39871   3.081  12.770   3.985  0.2761  0.0251  0.1567
19592W        W39872   0.467   3.596  12.855 -0.1423 -0.0030 -0.2285
19593W        W39873  17.748   4.878   4.351  0.1958  0.1061  0.1295
19594W        W39874   2.531   1.128  15.073 -0.1490  0.0302 -0.2306
19595W        W39875   2.311   4.815   3.968  0.2340  0.2643  0.2654
19596W        W39876  17.631   1.642   0.576 -0.0937  0.4822  0.1498
19597W        W39877  11.732   4.503   3.537  0.1692 -0.0789  0.2818
19598W        W39878  15.688   2.048  11.095 -0.1123  0.1044  0.1914
19599W        W39879   5.832   0.100   1.672 -0.2418 -0.2464  0.3462
19600W        W39880  15.724  11.128   0.520  0.0336 -0.3967  0.1141
19601W        W39881   8.017   8.706   4.201 -0.1099 -0.0548  0.1915
19602W        W39882  12.539  17.338   0.204  0.3201 -0.1716  0.1091
19603W        W39883  11.349  14.559   4.046  0.1840 -0.0332  0.0785
19604W        W39884  11.899   3.678  13.212  0.0273  0.1093  0.0839
19605W        W39885  12.606   1.184   3.169 -0.3286 -0.0133 -0.1503
19606W        W39886  12.598   5.828  15.212  0.2371 -0.0490  0.0782
19607W        W39887  11.406  13.964  11.614  0.0328  0.3454  0.2705
19608W        W39888   8.396  10.917   4.747  0.0452  0.2039 -0.1658
19609W        W39889   6.128   2.304  14.478  0.2439  0.0708  0.1304
19610W        W39890  17.021   8.156  14.792  0.0593 -0.1621  0.1706
19611W        W39891  12.547   3.484   0.787  0.0329 -0.1215  0.1172
19612W        W39892   5.706  14.191   2.120  0.0078 -0.1246  0.3094
19613W        W39893  15.393   9.122   5.331 -0.0359 -0.0354 -0.0684
19614W        W39894   0.924  13.928  12.295 -0.2417  0.1084  0.0082
19615W        W39895   3.307  15.999  15.383 -0.1065 -0.2676 -0.0537
19616W        W39896  13.133   4.023  11.097 -0.0569 -0.1826 -0.1670
19617W        W39897  10.957  17.075   0.702  0.0387  0.1761  0.2991
19618W        W39898   6.338  10.439  14.627  0.2721  0.0529  0.0937
19619W        W39899   1.005   3.478   2.552 -0.0593  0.2057 -0.2178
19620W        W39900  15.806  13.062   2.649  0.2118  0.1414 -0.3731
19621W        W39901  13.507   4.846  13.197 -0.1633 -0.4018 -0.1988
19622W        W39902   1.212  16.334   3.923 -0.2862 -0.0235  0.1043
19623W        W39903  15.715  16.459  12.157 -0.2070 -0.2225 -0.1880
19624W        W39904   3.938   5.412   0.706 -0.1649  0.1929  0.3003
19625W        W39905   3.910  11.438  13.581 -0.3609  0.0163  0.0305
19626W        W39906  17.028   7.862  13.915  0.1541 -0.0234 -0.1749
19627W        W39907  17.536  17.963  11.987  0.0151 -0.3145  0.0866
19628W        W39908  12.952  13.303  13.720 -0.0960  0.3526 -0.2825
19629W        W39909   9.102   2.602  15.357  0.6224 -0.1953 -0.0889
19630W        W39910   0.154  15.102  15.121 -0.2379 -0.4431 -0.2149
19631W        W39911   9.367   4.418  11.525  0.2189 -0.0141  0.0964
19632W        W39912  15.192  12.003   4.009 -0.0466 -0.1888  0.2625
19633W        W39913   0.139  14.474   2.356  0.0613 -0.0802 -0.1232
19634W        W39914   5.595  15.669  11.316  0.0556  0.0853  0.2478
19635W        W39915  13.277  13.969   1.481 -0.1787 -0.1786  0.2072
19636W        W39916   0.463   0.834   4.037 -0.1700  0.0086 -0.0237
19637W        W39917   0.903   5.350  13.784 -0.0115  0.0718 -0.0716
19638W        W39918  16.879   6.534  14.352 -0.5176 -0.0012  0.0691
19639W        W39919   1.806  16.529  14.087 -0.0384  0.2501 -0.1556
19640W        W39920   6.296  11.671   0.780 -0.0448  0.0727 -0.1905
19641W        W39921   5.948  15.006  12.741 -0.2558  0.1678  0.1008
19642W        W39922   0.831  13.540   2.623 -0.2416 -0.2422 -0.0061
19643W        W39923   7.223   7.619  12.652 -0.1646  0.0310  0.2407
19644W        W39924   9.304  17.750   0.498  0.1109  0.1054  0.1312
19645W        W39925   1.905   3.279   0.513  0.1238 -0.0638 -0.0620
19646W        W39926   9.541   6.513   3.392 -0.2467 -0.1595 -0.1121
19647W        W39927   9.236  11.446  11.803  0.0918 -0.1662 -0.0197
19648W        W39928  14.438  14.604  14.177 -0.2689 -0.4175 -0.0526
19649W        W39929  15.575  12.717   3.997 -0.0040  0.1295  0.1535
19650W        W39930   9.851  14.360  11.431  0.1187  0.0292 -0.0413
19651W        W39931  16.665   6.105   2.607  0.1558  0.1180  0.0541
19652W        W39932   0.230   7.128  11.573 -0.1286 -0.0424  0.1354
19653W        W39933   3.540  12.566   5.575 -0.1286 -0.1903 -0.0738
19654W        W39934  12.192   9.044  13.123 -0.2053 -0.0846  0.3780
19655W        W39935  11.726  15.942   2.753  0.4730  0.2547  0.0155
19656W        W39936  12.977  14.971  12.156 -0.0060  0.4492 -0.0392
19657W        W39937   3.240   4.890   4.775 -0.1064  0.0334 -0.2091
19658W        W39938  11.357   8.295  15.010 -0.0834 -0.0026  0.2091
19659W        W39939   4.649  11.688  14.650 -0.2227 -0.1142  0.1486
19660W        W39940   2.939  18.677  12.487 -0.1603  0.1943  0.0819
19661W        W39941  13.930  12.874   4.396 -0.0331  0.1385  0.1949
19662W        W39942  12.762   5.330   5.644  0.0207 -0.0658  0.1228
19663W        W39943   5.244   6.275   1.605  0.1399 -0.0031 -0.0846
19664W        W39944  18.670   9.688   1.877  0.3207  0.1091 -0.1210
19665W        W39945   1.275  12.230   3.516  0.1222 -0.1249 -0.2206
19666W        W39946  12.389   3.716  13.286  0.4087 -0.0369 -0.1488
19667W        W39947  11.610   8.262  14.098 -0.0885  0.0407  0.1236
19668W        W39948  12.635  18.177   3.749 -0.0980 -0.2068 -0.0342
19669W        W39949  15.824  12.537   2.364  0.0575 -0.0963 -0.1693
19670W        W39950   8.932   6.451   0.164  0.0624  0.1553 -0.0482
19671W        W39951  14.896   5.708  14.764  0.0423 -0.1068  0.1523
19672W        W39952  10.716  17.084  14.427  0.1795  0.3222  0.0389
19673W        W39953   4.918   0.020  13.459 -0.0503  0.1351 -0.2545
19674W        W39954   5.434   0.916  13.069 -0.1602 -0.1708 -0.0291
19675W        W39955   5.396   9.091  14.424  0.0986  0.0520  0.0142
19676W        W39956  18.356   7.044  11.416  0.3541  0.0682  0.2743
19677W        W39957   0.465   4.210   1.061  0.2917  0.0352  0.4370
19678W        W39958   0.531   6.249   1.258 -0.0315 -0.2296 -0.0132
19679W        W39959  10.370  17.966  10.892 -0.1281 -0.1945 -0.1311
19680W        W39960   7.673   7.496  12.071  0.0807 -0.1082 -0.0217
19681W        W39961   0.542   9.943   2.594 -0.2213 -0.3370 -0.2153
19682W        W39962  15.998   5.642   2.688 -0.1350 -0.1475 -0.1668
19683W        W39963   5.086   0.389   4.118 -0.0025 -0.0147 -0.0984
19684W        W39964   1.011  15.576  15.354 -0.0567  0.0472  0.2929
19685W        W39965   7.403   7.948  11.803  0.3232 -0.0573  0.2193
19686W        W39966  13.847  10.625  13.369 -0.1893 -0.2265 -0.0998
19687W        W39967   6.164   0.709  13.629  0.0060 -0.0182 -0.1355
19688W        W39968   9.972  13.596   1.107 -0.3293  0.0882 -0.1404
19689W        W39969   2.906   0.464   3.558  0.0060 -0.0739  0.0518
19690W        W39970   7.111   0.245   0.875 -0.3087  0.3519  0.2273
19691W        W39971   5.907  11.458   0.190  0.4418  0.0849  0.0459
19692W        W39972   3.492  10.024  12.614  0.1369  0.0206  0.1801
19693W        W39973  13.515   5.785  13.362  0.0371 -0.0816 -0.0317
19694W        W39974   4.107  10.176  14.083 -0.1503 -0.0877  0.1538
19695W        W39975  16.318  11.911   3.271 -0.2817  0.0225 -0.0542
19696W        W39976  15.686   7.812  14.370  0.1199 -0.2208 -0.0042
19697W        W39977  11.156   5.053  12.051 -0.2086 -0.2629 -0.1624
19698W        W39978   1.018   4.408  13.864  0.1073  0.2232  0.3550
19699W        W39979   0.970  15.536  12.433  0.1323 -0.1158 -0.1352
19700W        W39980   7.517  17.541   1.397 -0.4318 -0.1643 -0.1075
19701W        W39981  17.984  12.382   4.669 -0.1662  0.0700  0.2458
19702W        W39982   5.510  16.168   2.080  0.2105 -0.2982 -0.2361
19703W        W39983  12.013   2.837   2.698  0.3240  0.0874 -0.2339
19704W        W39984   6.763  14.986  14.758  0.2163  0.3488 -0.0179
19705W        W39985  14.898  10.661   3.033  0.2321  0.0390 -0.0785
19706W        W39986  15.932   3.939   1.078 -0.0015 -0.0008  0.3946
19707W        W39987  11.299   4.809  13.151  0.1451 -0.0350 -0.5620
19708W        W39988   3.083   8.341   4.037  0.1357  0.0053 -0.1026
19709W        W39989   1.283   5.924   1.093  0.0877 -0.2064 -0.3275
19710W        W39990   5.968  18.653  12.407  0.2122 -0.0695 -0.2604
19711W        W39991  17.280  10.108   1.924  0.0495 -0.1057  0.0321
19712W        W39992  15.380  13.313  14.662 -0.1904  0.3393  0.1404
19713W        W39993  16.543   3.597   4.620 -0.0014  0.0068 -0.1053
19714W        W39994   2.233   4.626   3.381  0.4225 -0.2113 -0.1248
19715W        W39995   3.469  12.837   5.125  0.0363 -0.2513 -0.1469
19716W        W39996  18.083   6.178  10.358 -0.1687  0.1733 -0.1281
19717W        W39997   5.727  13.950  14.688  0.1323 -0.1897 -0.2342
19718W        W39998  18.675   7.379  11.171  0.0803 -0.2227 -0.0577
19719W        W39999  14.123  13.384   3.026 -0.0485  0.0789 -0.0070
19720W        W40000  11.306   3.180  14.377 -0.1824 -0.0125 -0.2115
19721W        W40001   6.082   6.816   2.105 -0.1225  0.2394 -0.0643
19722W        W40002   6.437  11.886  13.561 -0.0043 -0.1383  0.1553
19723W        W40003  10.286  15.016  11.154  0.1558 -0.3057 -0.1558
19724W        W40004  14.516   5.402  11.567 -0.4192 -0.0665  0.1374
19725W        W40005  16.400   3.903   3.370  0.1192  0.0116  0.0218
19726W        W40006  18.556  13.464  12.948 -0.0141 -0.2770 -0.0498
19727W        W40007  14.031   3.579  13.020  0.2180  0.1058  0.2182
19728W        W40008  16.167  14.013  12.783 -0.1713  0.0625  0.1730
19729W        W40009  14.822   5.336   3.958 -0.0257 -0.0706 -0.0921
19730W        W40010   7.675  11.915  13.212 -0.1696 -0.0404  0.4538
19731W        W40011   4.717  15.855  11.331 -0.2117 -0.0337 -0.0281
19732W        W40012   4.844  13.288  14.979 -0.2413 -0.0717 -0.1836
19733W        W40013   1.901  14.313  12.514  0.3022 -0.1939  0.0092
19734W        W40014   2.505   9.195   2.160 -0.1709  0.1835 -0.1441
19735W        W40015  16.200  11.597  14.107 -0.0686 -0.1386  0.2640
19736W        W40016  17.694   5.684   3.863  0.1818 -0.1651 -0.0058
19737W        W40017   2.545  18.071   2.974  0.3654 -0.2384  0.1222
19738W        W40018   5.512  14.262   0.181  0.1764 -0.2736  0.2083
19739W        W40019  14.093   8.614  14.203  0.4545  0.0867 -0.2134
19740W        W40020   3.926  10.316  14.586 -0.0589  0.0479  0.1300
19741W        W40021   1.247   3.153  13.545 -0.0851  0.0442  0.0964
19742W        W40022  15.803   7.060   0.237 -0.1187  0.0769 -0.0592
19743W        W40023  16.502   8.727   0.729 -0.1570  0.1594 -0.0438
19744W        W40024   6.799  10.600  14.624  0.1449  0.0876  0.1771
19745W        W40025   7.463  18.527   0.819 -0.1384 -0.0210 -0.2073
19746W        W40026  13.125   2.205   1.533 -0.1756 -0.3528  0.1274
19747W        W40027   6.873   3.383  11.643  0.0802  0.1511  0.5463
19748W        W40028   1.196  15.152   4.360 -0.1461 -0.1394 -0.1724
19749W        W40029  12.372   9.165  12.637  0.0160 -0.0728  0.0921
19750W        W40030   6.892  17.071  10.477  0.0889 -0.1588 -0.1117
19751W        W40031  15.232   2.571  13.492 -0.4535 -0.1779  0.0985
19752W        W40032  13.933   2.542   0.782  0.2485  0.1410  0.1551
19753W        W40033  11.916   5.166   0.903  0.1322 -0.1004 -0.0045
19754W        W40034   4.847  14.963   0.089  0.0876  0.2842  0.0547
19755W        W40035   6.655   5.148  13.644  0.0288 -0.2391 -0.0417
19756W        W40036  10.839  10.674  10.512 -0.3586 -0.2624  0.1074
19757W        W40037   7.504   6.412   3.098 -0.3334  0.1714 -0.0969
19758W        W40038  15.071  11.191  13.382  0.0087 -0.2532  0.0532
19759W        W40039   5.568   2.228  13.280  0.0182 -0.2366  0.2238
19760W        W40040   1.225  11.283  11.935 -0.1752  0.3649 -0.2017
19761W        W40041   2.455  18.170  14.613  0.2109  0.0174 -0.2573
19762W        W40042  13.125  17.458   1.378  0.0694 -0.1770  0.0720
19763W        W40043   0.424   1.926  12.043 -0.1250  0.0953 -0.1622
19764W        W40044   8.733  10.137  14.096 -0.0619  0.6752 -0.1109
19765W        W40045   1.281  14.285  11.937  0.3243  0.0217  0.0999
19766W        W40046   3.302   8.785   1.288 -0.1058 -0.1530 -0.1182
19767W        W40047  13.126   2.166  12.338  0.0236 -0.1314  0.2557
19768W        W40048  14.235  10.597   3.790  0.4587  0.0222 -0.0750
19769W        W40049   6.313   6.190  14.649 -0.0003  0.1437 -0.1101
19770W        W40050   7.556   6.921   1.088  0.0373  0.1011 -0.3283
19771W        W40051  15.671  16.122  14.769 -0.3683  0.1850  0.0533
19772W        W40052   0.974   2.540   2.070  0.4920 -0.0359 -0.1828
19773W        W40053  18.140   5.830   2.356 -0.2050  0.2897 -0.1294
19774W        W40054  17.374  13.488   1.042  0.0252  0.0771 -0.0374
19775W        W40055  10.626   3.132   3.145 -0.0649  0.3016  0.3901
19776W        W40056  12.173   5.102  15.333  0.0339 -0.1318 -0.3552
19777W        W40057   0.728   9.116   4.257 -0.2651 -0.0484 -0.1756
19778W        W40058   6.470   4.930  12.209 -0.0143  0.2374 -0.1809
19779W        W40059   3.753  17.487  14.943  0.0375 -0.2580 -0.1909
19780W        W40060  16.774  10.049  14.781  0.0973 -0.1362  0.1024
19781W        W40061  12.720  13.521   1.655 -0.2534 -0.2682  0.0688
19782W        W40062  15.660   6.298   3.642 -0.1680 -0.3042  0.1798
19783W        W40063  17.458   7.332   2.403 -0.1273 -0.1046  0.0088
19784W        W40064  12.857   5.839   2.737  0.2506 -0.3043  0.0811
19785W        W40065  14.835   3.438   3.282 -0.0815 -0.1231  0.1270
19786W        W40066   8.517  15.180   1.928 -0.0777  0.2524  0.1797
19787W        W40067  17.339   9.127   3.335  0.2484 -0.0956  0.0386
19788W        W40068  11.150   8.288   2.078 -0.2727  0.2649  0.1195
19789W        W40069  11.379  11.389  15.385 -0.1448  0.1390  0.0481
19790W        W40070   5.628   4.689  12.616  0.2063 -0.3225 -0.3134
19791W        W40071  12.369   5.062   0.828  0.0547  0.2785 -0.1991
19792W        W40072  11.071   1.166  11.424  0.1450 -0.1350  0.1286
19793W        W40073   2.911  15.565   4.135  0.2026 -0.1299  0.0811
19794W        W40074   7.128  12.048  15.112 -0.1140 -0.1028  0.1665
19795W        W40075   7.844  13.864   0.179  0.0704  0.1938 -0.0226
19796W        W40076   2.112   5.104  10.638  0.0164 -0.1377  0.4721
19797W        W40077  10.217  10.086   3.874  0.0502  0.4453 -0.0664
19798W        W40078  10.045  15.147  13.904 -0.0378  0.0172  0.2255
19799W        W40079  13.664  16.932   2.723  0.2681 -0.0348  0.1377
19800W        W40080  15.135  13.290  13.321  0.0386  0.1557 -0.0595
19801W        W40081  12.352   1.496  11.385  0.2457 -0.0092  0.0164
19802W        W40082  15.935  12.039  12.878 -0.0646  0.0243  0.1392
19803W        W40083   4.028   4.794   0.709  0.0362 -0.3863  0.1329
19804W        W40084   6.764   4.406   1.103 -0.0990 -0.3470 -0.1355
19805W        W40085  12.991  11.425   2.482 -0.0151  0.1484  0.1504
19806W        W40086   1.606  16.585   3.709 -0.0675  0.1352  0.1039
19807W        W40087  16.465   9.072   1.498  0.4013  0.0552 -0.1140
19808W        W40088  18.699   2.053  13.529  0.0362  0.1699  0.1401
19809W        W40089   8.341   0.326  14.850 -0.1916 -0.2838  0.0567
19810W        W40090  12.129   7.723  15.170 -0.0089 -0.3014  0.0500
19811W        W40091   4.633  15.381   0.077 -0.0032 -0.0179  0.1263
19812W        W40092  14.485  13.109  12.372  0.3756  0.0877 -0.0378
19813W        W40093  16.071   5.210   0.222 -0.0372 -0.0424  0.5874
19814W        W40094  13.042   1.634   2.393 -0.0667 -0.1071  0.1908
19815W        W40095  14.686   5.274  13.976  0.4211  0.0489 -0.0618
19816W        W40096   4.854   4.026  13.375 -0.1354 -0.0336  0.0905
19817W        W40097   4.932  15.780   0.293 -0.1707  0.0201 -0.0533
19818W        W40098  13.141  11.835  12.914  0.1866  0.1208 -0.2918
19819W        W40099   8.505   4.894   2.649  0.0416 -0.2489 -0.2670
19820W        W40100   9.572  17.054   2.807  0.0135  0.0642  0.0654
19821W        W40101  16.208   2.106  13.517  0.1470  0.0030  0.1092
19822W        W40102  11.319  14.362  12.799  0.0435  0.1438 -0.0682
19823W        W40103  11.861   6.007  13.744 -0.0189  0.2659  0.0507
19824W        W40104  13.266   8.075   1.114 -0.2287 -0.0895 -0.0042
19825W        W40105   0.889  14.896   3.669  0.3692 -0.1183  0.1886
19826W        W40106   5.636   1.215   4.300  0.1842 -0.0936  0.0980
19827W        W40107   9.197   8.020  12.966 -0.0703  0.4470  0.0022
19828W        W40108  15.475   9.058   4.793 -0.1575 -0.1419  0.0274
19829W        W40109  14.880  17.051   0.001 -0.0728 -0.2866 -0.0333
19830W        W40110  13.058   8.542   1.023 -0.2049 -0.0702  0.1728
19831W        W40111  13.192  12.131   0.177  0.5191 -0.2345  0.0447
19832W        W40112  14.840  14.871  14.528 -0.2081  0.1161 -0.0060
19833W        W40113   2.921   2.452  13.796 -0.1476 -0.1212 -0.0318
19834W        W40114   1.660  18.444   0.028  0.0430 -0.0089  0.3640
19835W        W40115  18.514   5.874   2.821 -0.0713  0.0514  0.0589
19836W        W40116  12.041  11.784   4.300  0.3478  0.0094  0.0363
19837W        W40117   6.271   3.728   3.614  0.0661  0.0480 -0.0374
19838W        W40118  17.416   9.810  13.735  0.1484  0.1950 -0.0859
19839W        W40119  14.766   7.041   5.674  0.0090 -0.0242  0.0171
19840W        W40120  11.493   1.568   0.679 -0.3282 -0.2467  0.1146
19841W        W40121   5.139   6.114   0.289  0.2258 -0.1320  0.2193
19842W        W40122   1.782  15.073   3.505  0.1053  0.1658 -0.2783
19843W        W40123   1.878   8.432  13.740  0.0123 -0.0340  0.1237
19844W        W40124  17.472   0.397  14.928  0.2368 -0.1373  0.1181
19845W        W40125  16.294  14.918  12.714 -0.3061 -0.0233 -0.1889
19846W        W40126   6.797   3.620   3.557  0.0663 -0.0464  0.0320
19847W        W40127   3.579  14.530  10.997 -0.0323  0.0222 -0.0661
19848W        W40128   5.612  11.031   4.395 -0.0352  0.4749  0.1834
19849W        W40129   4.299   1.858  13.182  0.1215 -0.2046  0.2277
19850W        W40130   8.659  12.937   3.661  0.0545  0.1090  0.3536
19851W        W40131  12.726   3.821   0.119  0.0820 -0.2520 -0.0006
19852W        W40132   1.372   4.927   4.032  0.0668 -0.0309 -0.1908
19853W        W40133   6.588  12.859  13.207 -0.1912  0.0666  0.0421
19854W        W40134  13.514   4.209  13.832  0.0747 -0.1849  0.0097
19855W        W40135  16.524   3.508  14.330 -0.0366  0.1115  0.2048
19856W        W40136  18.736   9.056   2.767 -0.0136  0.2027 -0.0267
19857W        W40137  15.976  18.089   0.353  0.1167  0.0900  0.0968
19858W        W40138   2.070  15.805  13.392  0.1028  0.2059 -0.0910
19859W        W40139  13.292   1.757  11.474 -0.2271 -0.2868  0.0302
19860W        W40140  17.155   9.002  14.963  0.1081  0.0921 -0.3226
19861W        W40141  11.237   9.836   4.570  0.0604 -0.0246  0.0578
19862W        W40142   6.140   3.221   1.133 -0.0745  0.2412 -0.1140
19863W        W40143  17.635   7.683  13.075  0.0169 -0.3525  0.1458
19864W        W40144   7.914   0.430   1.340 -0.0085  0.1831  0.2928
19865W        W40145  14.490   2.603   2.171 -0.1516  0.1372  0.2020
19866W        W40146  12.693   9.327   0.358  0.0690  0.1057  0.1794
19867W        W40147   1.274  12.303   2.750 -0.0844  0.0308 -0.0331
19868W        W40148  13.288   7.264  13.562  0.0208  0.0755 -0.0136
19869W        W40149  10.903   0.573  14.630 -0.0371 -0.0353 -0.1756
19870W        W40150   0.742  12.564   4.165  0.0531  0.1237 -0.1874
19871W        W40151  18.415   0.661  12.743  0.1167  0.3298 -0.2690
19872W        W40152   9.898   6.079   3.270 -0.0428  0.1027 -0.1980
19873W        W40153   5.541  11.096  15.374  0.2847 -0.0407  0.1677
19874W        W40154   8.957  15.973   2.218  0.1713  0.2656  0.1145
19875W        W40155  12.976   0.113  13.796  0.2165 -0.0858  0.3733
19876W        W40156  13.976   0.556  12.272  0.0163 -0.1445  0.0827
19877W        W40157   2.653   3.044  12.391 -0.1674  0.1153 -0.0842
19878W        W40158  14.553  13.204  11.799 -0.1593  0.1418  0.1122
19879W        W40159  14.359  12.348  13.345  0.0116 -0.0201  0.0458
19880W        W40160  16.822   1.686  11.578  0.0684 -0.1236  0.1030
19881W        W40161   6.781  13.123   3.810  0.0085 -0.1609 -0.1270
19882W        W40162  15.844   0.909   3.894  0.0688 -0.1326  0.0329
19883W        W40163  14.706  12.786   4.054 -0.2673  0.0321  0.0565
19884W        W40164   0.615   5.055  12.528  0.2228  0.1164  0.1672
19885W        W40165   2.904  18.024  14.963 -0.1263 -0.0608 -0.1522
19886W        W40166   9.456  18.185  14.637  0.2811 -0.1531 -0.1731
19887W        W40167   1.134  11.789  14.159  0.2296 -0.1431  0.3941
19888W        W40168   0.655   3.181  14.334  0.0129  0.1362  0.0241
19889W        W40169  17.096   8.284   2.410 -0.2006 -0.1478  0.0311
19890W        W40170   6.994  16.525  14.191 -0.2341  0.2244  0.1692
19891W        W40171   7.957  16.830  14.188  0.0108  0.2608 -0.1300
19892W        W40172   7.632   1.653  14.421  0.0699  0.3601 -0.0875
19893W        W40173  14.504   6.683  13.825 -0.1884  0.0585  0.2143
19894W        W40174   2.979   8.910  11.120  0.2143 -0.0530  0.1913
19895W        W40175   1.716  17.516   1.956 -0.0390  0.2139 -0.0978
19896W        W40176   6.338   7.762   3.778 -0.1052  0.1920 -0.1089
19897W        W40177   3.753  15.213  14.638 -0.0700 -0.1505  0.1113
19898W        W40178  15.743  11.668  12.500 -0.2009 -0.0581 -0.0165
19899W        W40179  16.543  15.041  14.190 -0.2312  0.0461 -0.1415
19900W        W40180  11.366   0.145   2.508  0.1527  0.2080  0.1067
19901W        W40181  16.706   1.596   4.903  0.1484 -0.0952  0.1348
19902W        W40182  17.762   1.120  14.283 -0.1056 -0.0480  0.0510
19903W        W40183  14.234   7.231  12.253  0.0285 -0.0519 -0.0280
19904W        W40184  14.980   6.949   0.930  0.1997 -0.2908 -0.3142
19905W        W40185   6.538  14.363   1.834  0.2784 -0.1951 -0.0816
19906W        W40186  10.473   3.380   3.611  0.2700 -0.2999  0.0664
19907W        W40187   7.111  15.660   1.736  0.1128  0.0594  0.0706
19908W        W40188  16.755   0.822   3.640 -0.0610 -0.2384  0.2743
19909W        W40189  17.494  11.487   4.004  0.0063 -0.2158 -0.0037
19910W        W40190   5.336  13.310   1.950  0.0894 -0.1673 -0.0578
19911W        W40191   4.337  17.127  14.038  0.0402  0.1419 -0.1891
19912W        W40192   7.264   6.606   1.383  0.1162 -0.0795 -0.0988
19913W        W40193   2.621   7.657  15.134 -0.1920  0.1466  0.0607
19914W        W40194   8.159   4.073   1.528 -0.3798  0.0179  0.2087
19915W        W40195   8.986  17.254  10.055 -0.0530  0.1397 -0.1428
19916W        W40196  16.471  11.236  13.580 -0.2464 -0.0490  0.1369
19917W        W40197   8.368  17.107  14.113  0.2196 -0.3194 -0.2236
19918W        W40198   0.430   0.866   0.113  0.2156 -0.1214 -0.2345
19919W        W40199   2.135   9.865  15.251 -0.0241  0.3403  0.0448
19920W        W40200   6.955  17.420  11.691  0.2377 -0.0008 -0.3713
19921W        W40201  16.371   4.219  12.401 -0.1616 -0.2017  0.0462
19922W        W40202  11.322  17.933   0.123 -0.1123  0.0666 -0.1691
19923W        W40203   4.372   0.635  13.863  0.1103 -0.0508 -0.0631
19924W        W40204  16.313   8.120  12.288 -0.1814 -0.0870 -0.3097
19925W        W40205   6.024   6.614   2.779  0.1437 -0.1612 -0.1627
19926W        W40206   0.976  16.985  10.762  0.0457  0.0225 -0.1661
19927W        W40207  14.962  15.017  10.221  0.0583  0.1916  0.1321
19928W        W40208   9.786  16.844  13.122  0.1406  0.0351 -0.0467
19929W        W40209   4.692   1.417  13.892  0.0328 -0.0721  0.1089
19930W        W40210   5.070  11.818  10.676  0.1218  0.1374 -0.2597
19931W        W40211   2.431   7.683   2.337  0.1129  0.1798 -0.0698
19932W        W40212   7.801   1.183   0.155 -0.0585  0.0346 -0.1397
19933W        W40213  14.140   7.390   1.195  0.0380 -0.2781 -0.0386
19934W        W40214  10.885   6.367  11.664 -0.1132 -0.2001 -0.1944
19935W        W40215  18.673   7.857  13.211 -0.1403 -0.0551  0.1744
19936W        W40216   1.571   0.160   0.187  0.1337  0.1656  0.0832
19937W        W40217  15.907   4.579  12.240  0.2029  0.0229 -0.1981
19938W        W40218   3.872   9.603   2.007 -0.1423  0.3133  0.2655
19939W        W40219   9.632   1.071  12.454 -0.0134  0.1596 -0.1638
19940W        W40220  16.845  10.730  14.189  0.0145  0.1378 -0.0231
19941W        W40221  11.311  12.638  13.123  0.2531 -0.0786 -0.1780
19942W        W40222  15.820   5.270   5.614 -0.0613  0.1121 -0.0352
19943W        W40223  18.287  12.587   4.961 -0.1406  0.0986  0.0754
19944W        W40224  14.250   7.309   3.017  0.1518  0.1178 -0.1649
19945W        W40225   7.455   5.627   2.948 -0.1034 -0.1237  0.2208
19946W        W40226   3.148  12.869   0.516  0.0178  0.1066  0.0310
19947W        W40227  11.990  10.056   0.240  0.1766  0.0165 -0.0317
19948W        W40228   4.422  10.365   2.419  0.2134  0.0860  0.3793
19949W        W40229  13.968  17.496  13.865 -0.1896 -0.1286 -0.2872
19950W        W40230  11.114   1.127  14.677  0.3475  0.0926 -0.2390
19951W        W40231   1.603  11.990  11.788  0.2143 -0.3080  0.1634
19952W        W40232  17.851   5.154   1.492 -0.2284 -0.3375 -0.1077
19953W        W40233   5.321  10.277   1.426 -0.0620 -0.1225  0.0023
19954W        W40234  17.240   8.846  11.971  0.3252 -0.1407 -0.2334
19955W        W40235  10.978  17.339   1.730 -0.4389 -0.1873 -0.0607
19956W        W40236  18.167  14.043   3.409  0.2703  0.0311 -0.0659
19957W        W40237   8.999  13.577  13.114 -0.2586  0.0436 -0.1494
19958W        W40238  13.668  15.437  11.968  0.2040  0.3328  0.0406
19959W        W40239   6.785  14.393   3.819  0.1775  0.1639 -0.1077
19960W        W40240  10.870   0.318   0.566 -0.0741  0.3285 -0.0067
19961W        W40241   7.509   0.206   0.505  0.0897  0.2855  0.2174
19962W        W40242  12.148   9.985   3.186  0.1853  0.0805  0.1408
19963W        W40243   1.643   5.954  13.018  0.0592  0.1721  0.0122
19964W        W40244   2.226   6.190  12.414 -0.0969 -0.0652 -0.2364
19965W        W40245   1.178   8.932   4.009 -0.0599 -0.0327 -0.2713
19966W        W40246  13.702  11.350   5.557  0.0211  0.0188 -0.0220
19967W        W40247  10.799  15.015  11.072  0.5246 -0.3470 -0.1381
19968W        W40248  18.031   0.397   1.526  0.1270 -0.0019  0.1894
19969W        W40249   1.130  13.971   1.777 -0.0260 -0.2192  0.0680
19970W        W40250  17.756   9.882   2.789 -0.0037 -0.2406  0.2568
19971W        W40251   2.892  15.050   0.032 -0.2795  0.2842 -0.0186
19972W        W40252   3.447   0.945   1.739  0.1298 -0.0246 -0.0727
19973W        W40253   5.280  15.140  15.274 -0.2732 -0.0851 -0.1623
19974W        W40254   9.599   7.813  12.029  0.1307  0.0695 -0.2308
19975W        W40255   5.831  12.200   0.022  0.0827 -0.4186 -0.3441
19976W        W40256   2.155   8.147   2.720  0.0794 -0.1917  0.1247
19977W        W40257  14.983   9.358   0.163 -0.0197 -0.0115  0.0407
19978W        W40258   4.048   2.822   2.550  0.0357  0.0950  0.1636
19979W        W40259   1.119  17.448  13.844  0.0258  0.0688 -0.6593
19980W        W40260  15.252  10.221  14.935  0.2920 -0.1813  0.3176
19981W        W40261  15.508   0.355  14.006 -0.2534  0.0128  0.0428
19982W        W40262   0.813  17.844   0.033  0.1389  0.1503  0.1482
19983W        W40263   0.694   2.186   1.832  0.1872  0.0498  0.2252
19984W        W40264  14.794  15.565   3.030  0.1647 -0.0429 -0.0204
19985W        W40265  17.222  17.865  11.583 -0.0816  0.3443  0.0406
19986W        W40266  12.711   5.793   4.401 -0.1468  0.0528 -0.2555
19987W        W40267   2.734  14.889   3.552  0.0686  0.3038  0.0451
19988W        W40268  12.153   5.604   2.921 -0.2229 -0.2701  0.4405
19989W        W40269  14.752  10.789   4.282  0.1147 -0.2357  0.1475
19990W        W40270   4.061   3.886  12.304  0.2035  0.0774 -0.0605
19991W        W40271   3.474  15.904  14.560  0.1041 -0.2916  0.0389
19992W        W40272   3.360   5.749   4.153 -0.4312  0.1677 -0.1911
19993W        W40273  18.298   9.402  13.826 -0.0368  0.0336  0.2153
19994W        W40274   3.644   2.844  12.202 -0.2123  0.1304 -0.0894
19995W        W40275  17.121  16.749   1.846 -0.3151 -0.0846 -0.3299
19996W        W40276  10.392   0.643  12.480  0.0768 -0.1314 -0.1262
19997W        W40277  12.856   1.491   1.028 -0.1739 -0.0889 -0.0882
19998W        W40278  12.664  18.348  11.403  0.0660 -0.0959 -0.2522
19999W        W40279  13.991   3.317  12.451  0.1151  0.3315  0.1111
20000W        W40280   4.613   4.459  15.041  0.1872 -0.1462  0.1401
20001W        W40281  17.349   1.928   0.933 -0.3758 -0.0517  0.0247
20002W        W40282   0.661   8.096  15.382  0.1556 -0.3125 -0.0195
20003W        W40283   2.694   2.980  11.502 -0.2619  0.0737 -0.0185
20004W        W40284  13.142   1.694  11.958 -0.0493  0.0161  0.2714
20005W        W40285   3.626   0.350  12.196  0.1855  0.0309  0.0088
20006W        W40286  17.058  12.590   1.656  0.3415 -0.1129  0.0524
20007W        W40287  10.440  17.078  12.380  0.3141  0.1807  0.2158
20008W        W40288   0.189  14.124   3.482  0.0583 -0.2503  0.0052
20009W        W40289  17.108   3.635   3.789 -0.0490  0.1344 -0.1770
20010W        W40290  16.423  14.123   1.219 -0.2976  0.1513  0.3205
20011W        W40291   2.020  12.556   0.243 -0.2452 -0.4149  0.3165
20012W        W40292   9.727   6.759   0.844  0.3186  0.0877 -0.0744
20013W        W40293   1.604   8.436   0.100 -0.1287  0.0346 -0.0393
20014W        W40294   9.345   0.716   3.036  0.0478  0.3196 -0.0242
20015W        W40295  13.115  17.265  12.208 -0.2535 -0.2361  0.2928
20016W        W40296   6.097  17.074   2.190 -0.1287  0.2813  0.2807
20017W        W40297  11.663  11.762  11.049  0.1182 -0.1217  0.2772
20018W        W40298  15.999  10.936  14.495 -0.0152 -0.2838  0.2491
20019W        W40299   0.394  13.055   1.433 -0.0308 -0.2601  0.0566
20020W        W40300  11.722   0.547   2.605  0.1474  0.0235  0.0421
20021W        W40301  13.844  15.611  11.420  0.1387 -0.0533 -0.5286
20022W        W40302   2.392  12.119   2.408  0.0992 -0.0499  0.2013
20023W        W40303   3.477  12.169   3.353  0.1522  0.0377 -0.3421
20024W        W40304  11.184  18.347   3.904 -0.2080 -0.0373 -0.2317
20025W        W40305   9.415  17.072   1.881 -0.0788 -0.2052 -0.0731
20026W        W40306   7.491   5.341   1.744 -0.0965 -0.1228  0.1583
20027W        W40307  11.409  12.990  12.767 -0.2457 -0.2976  0.0605
20028W        W40308  15.155   8.315   3.401 -0.0270  0.2337  0.0586
20029W        W40309   1.029  10.769  14.390  0.0560  0.3406  0.2762
20030W        W40310  18.640  10.439  14.019  0.2054 -0.0744 -0.0344
20031W        W40311  16.171   9.647  15.124 -0.0276 -0.2399 -0.0838
20032W        W40312   4.863   6.664   4.071 -0.0173 -0.0817  0.0281
20033W        W40313   0.319   8.228  12.331 -0.1037 -0.0474  0.0855
20034W        W40314   4.658   0.613  12.564 -0.0178  0.2494  0.0031
20035W        W40315   1.239   5.236  13.450 -0.1864  0.0948 -0.0663
20036W        W40316   4.540  17.000   3.775 -0.1729 -0.0251 -0.0080
20037W        W40317  13.107   6.804   3.053 -0.1139 -0.1560  0.0209
20038W        W40318  16.028   2.288   2.176 -0.3469 -0.1738  0.1144
20039W        W40319   4.116  12.136  14.500  0.1024  0.1768 -0.1553
20040W        W40320  10.954   8.495   0.311  0.2045  0.2952  0.4023
20041W        W40321   0.732  17.267  13.626  0.0683 -0.2891  0.1812
20042W        W40322  11.677   7.796  11.566 -0.0018 -0.3252 -0.1392
20043W        W40323   2.417   0.795  14.088 -0.0832 -0.0474 -0.1289
20044W        W40324   6.341   0.815  10.545 -0.0237  0.3677 -0.1695
20045W        W40325  15.277   8.431  11.483 -0.1314 -0.2355  0.0488
20046W        W40326   1.079   1.470  12.136  0.0945 -0.0405 -0.0127
20047W        W40327  12.904   8.344  13.424 -0.1059 -0.4288  0.0530
20048W        W40328   8.405  12.194   0.035  0.3409  0.2555 -0.0193
20049W        W40329   8.945  12.249   0.153  0.2338  0.0647  0.0014
20050W        W40330   3.336   1.615   2.260  0.0448  0.3897 -0.1109
20051W        W40331  17.822   6.621   0.831  0.0205  0.0826 -0.0671
20052W        W40332   4.765  10.848   0.668 -0.0617  0.0984  0.0705
20053W        W40333  15.764   6.968  15.115 -0.2404 -0.0732  0.2403
20054W        W40334  16.325   7.694   2.463  0.3660 -0.1966 -0.0263
20055W        W40335   5.669   6.008   1.730 -0.3686 -0.1402 -0.1745
20056W        W40336  16.412   9.641   3.661 -0.2672  0.4023  0.3049
20057W        W40337  18.715   4.717  11.656  0.1770 -0.1871 -0.2404
20058W        W40338  14.269   4.018   1.478 -0.1075 -0.0587 -0.0808
20059W        W40339   4.236  15.227   1.923  0.3261 -0.1557 -0.0474
20060W        W40340   5.601  14.081   3.398 -0.0066 -0.1058  0.1462
20061W        W40341   5.142  10.877  14.865 -0.0923  0.1250  0.2747
20062W        W40342  15.312  12.989  12.903 -0.0718  0.0331 -0.1786
20063W        W40343   1.607  11.109   0.222 -0.0737 -0.0342 -0.1698
20064W        W40344   9.678  14.783  12.304  0.2338  0.2321 -0.1484
20065W        W40345  14.369  12.020  12.485  0.1044  0.1884  0.1582
20066W        W40346  12.048   6.636   4.430 -0.0564 -0.3025 -0.0551
20067W        W40347  16.260   3.633   1.473  0.2615  0.0550  0.1909
20068W        W40348  12.374  12.098  12.213  0.0320  0.0565 -0.2964
20069W        W40349  10.083   0.173  14.789 -0.0836 -0.1028 -0.1145
20070W        W40350   0.057   9.324  12.967  0.1370 -0.1544  0.2147
20071W        W40351   0.834   4.295   2.666  0.3725  0.0747 -0.0841
20072W        W40352   6.747   3.380   4.332  0.0136 -0.0176 -0.1818
20073W        W40353  16.947  13.884  13.317 -0.2331  0.2353 -0.0783
20074W        W40354   3.969  17.669   2.917  0.0663  0.0562 -0.0685
20075W        W40355  15.354   0.149  11.190  0.0421 -0.0624  0.0499
20076W        W40356   7.997   0.487   0.460 -0.1989 -0.0569 -0.0918
20077W        W40357  13.031   9.128  14.174  0.0918 -0.1083  0.4195
20078W        W40358  15.557   9.440   4.062 -0.0970  0.1004  0.0884
20079W        W40359  12.410   6.565  12.953  0.1170 -0.4245 -0.2050
20080W        W40360  17.454  17.491   1.485 -0.0814 -0.3231 -0.2859
20081W        W40361  12.889   6.322  10.365 -0.0028  0.2037  0.0102
20082W        W40362   3.330   2.153   0.066  0.0189  0.1917 -0.1874
20083W        W40363  11.374   3.772  12.628 -0.0777 -0.1545 -0.0282
20084W        W40364   9.918   3.462   0.395  0.1004 -0.1268 -0.0138
20085W        W40365  12.617   9.991  12.505 -0.2110  0.2844  0.0769
20086W        W40366   9.792  15.921  14.565  0.1287  0.0594 -0.0991
20087W        W40367   6.929   3.416  12.448 -0.0793  0.0198  0.0499
20088W        W40368  11.731  14.078  12.498 -0.3000  0.0034  0.1856
20089W        W40369   9.836   4.873   3.231  0.0305 -0.0521  0.0578
20090W        W40370   8.902   5.837   1.656  0.3436 -0.1295 -0.0030
20091W        W40371   5.979   1.964  13.017  0.1274  0.0340  0.1741
20092W        W40372  10.879   8.078  15.358  0.1781  0.0145  0.1366
20093W        W40373  13.547  12.605   0.347 -0.0108 -0.1455 -0.0254
20094W        W40374   1.033   8.309  13.830 -0.0236  0.1908  0.1971
20095W        W40375   2.783   6.878   2.169 -0.3062 -0.1092  0.1578
20096W        W40376   4.128   2.593  11.948  0.1080 -0.4558  0.0166
20097W        W40377  13.060   2.710   1.460  0.1705 -0.2765  0.4122
20098W        W40378   5.577   8.697  14.676 -0.3494  0.0500 -0.0520
20099W        W40379  12.732  16.370  12.155 -0.1569  0.1231  0.1026
20100W        W40380   6.485   1.748   3.146 -0.2098 -0.1874 -0.1927
20101W        W40381  12.858   1.772   1.482  0.0601 -0.0365  0.1630
20102W        W40382   4.894  10.265  11.759 -0.0002  0.1691  0.0587
20103W        W40383  11.192   9.834  12.824  0.0928  0.3326 -0.0088
20104W        W40384   1.565  12.784   1.030 -0.1383  0.0883 -0.0562
20105W        W40385   6.447  10.565   2.257  0.1419  0.1039  0.0123
20106W        W40386   9.970   5.796  15.074 -0.1728 -0.1797 -0.2000
20107W        W40387   4.981  11.800  12.467 -0.1363 -0.2324  0.2394
20108W        W40388   4.999  14.972  11.309 -0.2759  0.1015  0.1179
20109W        W40389   3.891  16.078   3.208 -0.1346 -0.0313 -0.0777
20110W        W40390   1.337   5.250  11.690 -0.3820  0.0456 -0.3113
20111W        W40391   5.683   6.722   0.904  0.1207 -0.1777 -0.1497
20112W        W40392   9.963   1.092   1.202 -0.0052  0.1118  0.1719
20113W        W40393   5.208   1.301   0.242  0.0638 -0.1025 -0.0911
20114W        W40394   3.109   7.020   1.829  0.0935 -0.0427  0.2850
20115W        W40395   9.800   9.320   5.588  0.0051 -0.3462  0.2082
20116W        W40396  10.706  11.792  11.161 -0.1080  0.3433 -0.0636
20117W        W40397   8.115   3.152   2.272  0.0444  0.0231  0.1445
20118W        W40398   2.636   3.069  13.776 -0.1092  0.1549 -0.0553
20119W        W40399   8.604   7.460   1.257 -0.1028  0.2216 -0.2473
20120W        W40400  16.612   4.197  13.962  0.0290  0.0605 -0.2761
20121W        W40401   2.322   3.373  10.101 -0.5436 -0.0408  0.0200
20122W        W40402   8.114   0.904   3.239 -0.0577  0.0085  0.1065
20123W        W40403   0.454   9.586  12.850  0.0754 -0.0211  0.0555
20124W        W40404   5.448   8.885   1.451 -0.0029 -0.0075  0.0731
20125W        W40405   7.880   1.375   3.198 -0.0878 -0.1296 -0.3397
20126W        W40406  17.124  13.112   0.807  0.1419 -0.1629  0.3340
20127W        W40407  12.343  10.719   2.522 -0.2639 -0.0013 -0.3914
20128W        W40408   5.204   8.046  11.185  0.0942  0.0081 -0.0228
20129W        W40409  15.183   0.718  11.738 -0.0625 -0.0733  0.0188
20130W        W40410  17.310   0.967  12.654  0.3282  0.0458 -0.0355
20131W        W40411   8.575   2.052   3.009 -0.0651 -0.1489  0.0259
20132W        W40412   6.582   1.861   4.313  0.4121 -0.0986 -0.0324
20133W        W40413  13.277   5.007  11.779 -0.1887 -0.2153  0.1404
20134W        W40414   2.019  18.098   0.571 -0.2792  0.0045  0.0420
20135W        W40415   7.219  12.439   0.129  0.1165 -0.0550  0.0652
20136W        W40416   2.221   5.963   3.484  0.0640 -0.0946 -0.2041
20137W        W40417  18.092  11.486  13.393  0.0723 -0.0156  0.1301
20138W        W40418   9.714   2.669   2.050 -0.0027 -0.3914  0.1301
20139W        W40419  10.418   9.348   4.540  0.0055  0.0054 -0.3289
20140W        W40420  14.346  18.210  12.921  0.1842  0.0387  0.3467
20141W        W40421   2.042  12.313   2.907  0.0308 -0.1094 -0.0100
20142W        W40422  16.280   7.445   5.002 -0.4499  0.1423  0.0870
20143W        W40423   3.604  18.706  14.739  0.1023 -0.0956 -0.0184
20144W        W40424   2.326   9.715   1.034 -0.0795  0.0830  0.0089
20145W        W40425   3.534  15.022  14.221 -0.0831 -0.0226  0.1833
20146W        W40426  10.932  14.345  12.377  0.3652  0.1774  0.1868
20147W        W40427  11.075   6.441   2.768  0.1120 -0.1657 -0.1826
20148W        W40428   8.938   7.354  12.478  0.0871 -0.2792 -0.0387
20149W        W40429  15.725   3.400  11.332  0.1001 -0.1002 -0.0081
20150W        W40430  15.591   1.705  13.630 -0.2946 -0.0380  0.0762
20151W        W40431  18.707   4.621  14.475 -0.2024 -0.0088  0.0501
20152W        W40432  11.345  11.684   0.904 -0.1269 -0.3149  0.1245
20153W        W40433   6.113  13.629  14.838 -0.2659  0.1529 -0.0633
20154W        W40434   9.884   9.089  15.148 -0.2678 -0.2043 -0.3247
20155W        W40435  10.694   3.691   4.410 -0.2415 -0.0969 -0.0984
20156W        W40436  17.320  15.843  14.686  0.0905 -0.1395  0.3226
20157W        W40437  16.888  18.514  11.621  0.1133  0.0943 -0.2619
20158W        W40438  18.350  17.188  13.024  0.1061  0.1840  0.1251
20159W        W40439  10.120   8.474  12.639 -0.1902 -0.1526 -0.2029
20160W        W40440   6.177  11.866   2.315 -0.0957  0.0541  0.0411
20161W        W40441   7.433  11.728  14.623  0.0112 -0.1542  0.1701
20162W        W40442   1.482   9.749   0.458 -0.0351 -0.0506  0.1437
20163W        W40443  18.167   2.766  13.341 -0.1798 -0.0533 -0.0527
20164W        W40444   7.143   9.823   3.413  0.0597 -0.2203  0.1296
20165W        W40445  13.462  14.287   0.225 -0.0788  0.0762  0.0036
20166W        W40446  18.744   2.160   1.858 -0.1198  0.1869  0.1841
20167W        W40447   1.738   0.693  13.442  0.5643  0.0967 -0.2121
20168W        W40448   4.835  17.547  12.360 -0.0658  0.1507  0.1565
20169W        W40449  16.242  17.576   1.605  0.0053  0.0503 -0.1896
20170W        W40450   6.671  12.565  11.151 -0.0372  0.1559 -0.0312
20171W        W40451  17.810  15.813  15.345  0.0885  0.0664  0.1541
20172W        W40452   4.329  10.438   4.176  0.3233 -0.0366  0.1551
20173W        W40453  13.014   9.640  12.215  0.1743 -0.0320  0.0641
20174W        W40454  10.562  10.422  13.035  0.1155 -0.0135 -0.1422
20175W        W40455  13.383   3.621   0.607 -0.1442  0.1166  0.2418
20176W        W40456  10.829   3.663  11.302 -0.2819  0.0298 -0.1370
20177W        W40457  15.379  14.649  11.456 -0.1380 -0.0362 -0.1612
20178W        W40458   3.226  12.802   2.172  0.0853  0.0578 -0.1324
20179W        W40459  11.917  15.790  11.981  0.2528 -0.2942  0.0944
20180W        W40460   4.870  12.686   3.305  0.2435 -0.0292 -0.2576
20181W        W40461  14.267   3.920   2.181  0.0149 -0.1451 -0.1621
20182W        W40462  16.575   6.843  15.065  0.0336 -0.4354  0.1933
20183W        W40463   1.459   9.059   3.572  0.0617  0.0410 -0.2623
20184W        W40464  15.643  18.659   5.281 -0.1656  0.3471  0.1086
20185W        W40465   8.706  13.204  13.117 -0.1698 -0.1406  0.2321
20186W        W40466  13.862   7.530   3.263  0.1691  0.1475 -0.0192
20187W        W40467  12.720  11.181  13.748 -0.2599 -0.1873  0.1958
20188W        W40468  14.939  11.343  11.821 -0.1682 -0.1098 -0.2003
20189W        W40469  14.871   1.829   0.409  0.3456 -0.0711 -0.0546
20190W        W40470   0.085   1.585  13.344 -0.2157 -0.1066  0.1184
20191W        W40471   5.676   1.239   0.989  0.1194  0.0596 -0.0742
20192W        W40472  11.333  13.642   2.765 -0.3207  0.0937  0.2105
20193W        W40473   3.752   5.036   3.380  0.0433  0.0141 -0.2667
20194W        W40474  14.129   2.018   4.329  0.2324  0.2707 -0.1206
20195W        W40475   3.358   5.418   1.564 -0.0518 -0.2660  0.0648
20196W        W40476   2.545   9.368   3.328 -0.0425  0.1535  0.2215
20197W        W40477  18.017   3.172  13.046 -0.2263 -0.2740  0.0248
20198W        W40478  10.233  11.181   3.602 -0.0692 -0.0280 -0.0338
20199W        W40479  15.727  17.067   2.033 -0.0606  0.1087  0.2157
20200W        W40480  10.225   4.414  10.284 -0.1455 -0.1835  0.0114
20201W        W40481  16.590  17.242  13.935 -0.1907  0.1183  0.0632
20202W        W40482  11.972  13.019  14.903  0.0555 -0.4032 -0.1228
20203W        W40483   4.752  18.015  12.684  0.1073 -0.0841 -0.0395
20204W        W40484   5.446   0.740  14.092  0.0317  0.0972 -0.1717
20205W        W40485  14.675   0.011   1.813  0.1158 -0.2429 -0.2515
20206W        W40486  16.966  13.070  11.552  0.1456  0.1464 -0.1513
20207W        W40487   3.602   6.457   0.734 -0.2250 -0.0104 -0.1199
20208W        W40488  14.522   0.076   1.191 -0.0721  0.3929  0.0049
20209W        W40489   9.244  15.087   3.213  0.1167  0.4844  0.0259
20210W        W40490  16.821   9.858  13.811 -0.4739 -0.2479 -0.0322
20211W        W40491  17.654  14.307  12.820  0.1757 -0.0182 -0.0269
20212W        W40492   8.476   7.909   0.289 -0.0899 -0.1679 -0.2210
20213W        W40493  14.371  10.238   0.241  0.0945 -0.0292 -0.0655
20214W        W40494   8.676   1.262   0.102  0.1356 -0.1224 -0.1052
20215W        W40495  11.284   9.098   1.460 -0.1503 -0.2162 -0.3355
20216W        W40496  16.421   1.108  13.685 -0.1568 -0.1033 -0.3414
20217W        W40497  18.169   2.158  13.466 -0.3542 -0.2037 -0.0176
20218W        W40498   3.072   8.090   3.135 -0.0428 -0.1009  0.2077
20219W        W40499  15.078   2.373   4.128 -0.1401  0.1846  0.1027
20220W        W40500  11.611   9.071  11.924 -0.0173  0.0096  0.0704
20221W        W40501   9.752   1.688   2.515  0.0681 -0.0315 -0.0928
20222W        W40502   9.755   4.750   1.674  0.0790  0.2185 -0.0451
20223W        W40503   6.198   4.234  11.146 -0.2309  0.2865  0.3185
20224W        W40504   5.686   6.111  14.652  0.0937  0.1210  0.0664
20225W        W40505   8.095  10.473   3.971  0.0609 -0.0973  0.1419
20226W        W40506  13.742  11.124   4.355  0.0039  0.0841  0.0512
20227W        W40507   0.161  12.051  15.158  0.1427  0.1348  0.2693
20228W        W40508  17.523   7.151  13.969 -0.2554  0.2798 -0.0334
20229W        W40509   9.892  11.473   3.436  0.1357 -0.3177 -0.0713
20230W        W40510   9.849   4.010   0.470 -0.2370  0.1070 -0.1686
20231W        W40511   6.154  17.690  12.303 -0.0700 -0.1959 -0.1249
20232W        W40512  11.200  13.206   5.349  0.2272 -0.0792  0.0462
20233W        W40513   8.200  15.868   1.307 -0.1107  0.2354 -0.1916
20234W        W40514  13.324  16.131   4.280 -0.0435  0.0809  0.0976
20235W        W40515  12.610   8.950   6.219 -0.0606  0.0286 -0.1384
20236W        W40516  18.138  18.451   2.089 -0.0747  0.2000 -0.0176
20237W        W40517  17.752  13.276  12.867 -0.1083 -0.1231  0.0532
20238W        W40518   8.697   3.544   0.391  0.2632  0.3864  0.0459
20239W        W40519  13.091   9.990   2.281  0.0194  0.4170 -0.2305
20240W        W40520  14.585  15.454  12.656  0.2671 -0.1135  0.0755
20241W        W40521  17.097   6.477   4.810  0.0046  0.1592 -0.0527
20242W        W40522  14.424   9.694   0.177  0.2188  0.0629 -0.0631
20243W        W40523   6.506   7.931  12.129  0.0132 -0.0704 -0.1657
20244W        W40524  16.637   4.747  11.478  0.0147  0.0473  0.0180
20245W        W40525  17.979  11.346   3.150  0.1583 -0.0747  0.1223
20246W        W40526  10.803  17.938  14.004 -0.0917 -0.0646 -0.0800
20247W        W40527   4.699   4.308   2.957  0.0250 -0.0215 -0.2276
20248W        W40528  10.279  17.897   4.116 -0.2892 -0.1523  0.0540
20249W        W40529  13.515  10.276  12.593  0.5916 -0.1234 -0.0390
20250W        W40530   4.325  11.251  12.847 -0.2257  0.2749  0.2028
20251W        W40531  14.087  10.221   1.487  0.0847  0.2167 -0.0368
20252W        W40532  14.018  11.940  12.879 -0.0074  0.0092  0.1542
20253W        W40533   5.884   7.575  12.178 -0.1070  0.0781 -0.0621
20254W        W40534  17.068   2.227  13.789  0.1069 -0.2425 -0.0603
20255W        W40535  10.608  14.020   2.833  0.1669  0.0507  0.0628
20256W        W40536   4.212  16.680   2.014  0.1344  0.0139 -0.3656
20257W        W40537   9.277  10.930  13.456 -0.0099 -0.0666  0.0357
20258W        W40538   9.292  18.722  13.847 -0.2812  0.0382 -0.0622
20259W        W40539  10.991   8.002   0.480  0.0523 -0.0039  0.1923
20260W        W40540  16.851  14.815  11.736 -0.1397  0.0279  0.0016
20261W        W40541   4.717  17.319   0.029  0.2629  0.0898 -0.3191
20262W        W40542   7.887   5.583  12.308 -0.0275  0.2104  0.0244
20263W        W40543  17.753  15.222   3.920 -0.1194  0.0223  0.2115
20264W        W40544  12.917   6.822  12.233 -0.1793  0.3484 -0.1358
20265W        W40545   0.235   1.563  10.405 -0.1166 -0.1259  0.1232
20266W        W40546   2.097   9.351   1.832  0.0919 -0.0068 -0.2776
20267W        W40547   8.349   0.121  11.540  0.1001  0.0504 -0.0862
20268W        W40548   4.312  12.782   1.174  0.0978 -0.1477 -0.1531
20269W        W40549  13.762  10.380  13.844 -0.1130 -0.0707  0.1093
20270W        W40550   3.869   0.782  12.182  0.0418  0.0052 -0.3252
20271W        W40551   8.940   4.716  11.539 -0.0065  0.2505 -0.0481
20272W        W40552   1.354   8.026   0.071  0.1646 -0.0588 -0.0140
20273W        W40553  17.616  18.655  12.136  0.0845 -0.3620  0.1154
20274W        W40554   6.195   4.378  13.632 -0.1862 -0.4493  0.2344
20275W        W40555  18.036  10.874   4.292 -0.1729 -0.0267  0.1684
20276W        W40556   5.079  17.242  10.440  0.0471  0.2283  0.0433
20277W        W40557  15.568  11.974   4.365 -0.0780  0.1774 -0.1395
20278W        W40558   9.420   1.513  12.472  0.3527  0.1499 -0.0535
20279W        W40559  18.619  18.030   4.035 -0.2690 -0.2075  0.0368
20280W        W40560   6.005  16.634   0.150  0.1759 -0.0450 -0.2424
20281W        W40561  15.946  11.035  12.182 -0.2641 -0.3223 -0.2913
20282W        W40562   5.710  17.759  14.143 -0.1591 -0.2062  0.1180
20283W        W40563   4.089   1.376  12.286 -0.0129 -0.0063  0.0417
20284W        W40564   1.053   3.731  12.837  0.3361  0.0319 -0.3246
20285W        W40565   0.662   3.079   4.284  0.1560 -0.1399  0.0615
20286W        W40566  17.833  12.444  13.347 -0.0105  0.1315 -0.0620
20287W        W40567   4.429  18.292   0.127  0.2008  0.3074  0.1994
20288W        W40568  10.987  11.566   3.438  0.1046 -0.2426 -0.0338
20289W        W40569   3.692   2.617   2.223 -0.1494 -0.0525  0.0018
20290W        W40570   8.355   7.696   2.753 -0.4190 -0.2242 -0.2525
20291W        W40571   5.190  16.981   3.109  0.4715 -0.1044  0.0718
20292W        W40572   7.035   9.875   4.491 -0.2059 -0.1958 -0.2757
20293W        W40573  17.539   2.852  11.851 -0.2018 -0.0019 -0.0157
20294W        W40574   9.217  17.298   3.098  0.2158 -0.2617 -0.1848
20295W        W40575  16.715  11.741  14.991  0.1363  0.0216  0.0461
20296W        W40576   2.908  18.443   0.344 -0.1124  0.1551  0.2669
20297W        W40577  15.388  13.846  11.897 -0.3026 -0.0428  0.0680
20298W        W40578  17.053  10.462   2.176  0.4373  0.1009 -0.0891
20299W        W40579  16.363  17.210  15.191 -0.1540 -0.0321 -0.1455
20300W        W40580   6.670   8.682   2.793  0.1078  0.5328  0.0880
20301W        W40581  15.895  13.251  12.304 -0.0917  0.1667 -0.1597
20302W        W40582   7.600   0.016   3.536  0.2970 -0.0190  0.1430
20303W        W40583   9.510   0.928   1.270  0.0841 -0.2397 -0.0777
20304W        W40584  14.932   7.345   4.683  0.1604  0.1051 -0.0428
20305W        W40585   0.414   8.847  15.363 -0.2586 -0.1304  0.1663
20306W        W40586  17.909  13.579   1.977 -0.0974  0.2165 -0.0303
20307W        W40587  17.250   5.684  15.192  0.0359 -0.1099 -0.2390
20308W        W40588   7.364   9.502   2.020 -0.0837 -0.5025  0.1436
20309W        W40589   2.582  18.047   4.249 -0.0049 -0.0196 -0.1135
20310W        W40590  10.890   9.514   0.577 -0.2126  0.0912 -0.2249
20311W        W40591   2.165   8.367  11.143 -0.0789 -0.3373 -0.1747
20312W        W40592  10.487   5.465   3.599 -0.1709  0.0918  0.1593
20313W        W40593  14.055   9.118   3.589 -0.0672 -0.0334 -0.1410
20314W        W40594  10.822  10.097   3.809  0.0167 -0.0351 -0.2321
20315W        W40595  14.000  12.259   0.721  0.0991 -0.1242  0.0330
20316W        W40596   0.143   9.081   0.955  0.0384  0.1333  0.2742
20317W        W40597  16.844   0.307  13.796 -0.1447 -0.3418  0.2270
20318W        W40598  10.778   2.228   3.576 -0.3194 -0.3791 -0.1751
20319W        W40599  16.279   2.092  10.848  0.0369  0.0144  0.0537
20320W        W40600   9.088   2.347  13.415 -0.2028  0.2762 -0.4130
20321W        W40601  12.633  16.437  13.829  0.0459  0.1959 -0.1110
20322W        W40602  14.548  13.832   3.855  0.1646  0.2564 -0.1039
20323W        W40603  18.175   1.464  14.439  0.1084  0.0783 -0.2557
20324W        W40604   6.101  16.160   1.261  0.1795 -0.1957  0.1113
20325W        W40605   1.369   9.596   2.943 -0.3625  0.0154  0.1982
20326W        W40606  10.341   3.627  11.176 -0.1941 -0.2271  0.1878
20327W        W40607  13.766   5.909   2.183 -0.1818 -0.2998  0.1144
20328W        W40608   9.069  18.267  13.925 -0.3285  0.0424 -0.1028
20329W        W40609   2.531   6.024   3.039 -0.1690 -0.0334 -0.0590
20330W        W40610  10.264  16.368  15.144  0.2860  0.0466 -0.2390
20331W        W40611   2.367  18.230  13.617  0.3012  0.1373 -0.3112
20332W        W40612  14.574   9.869   4.135 -0.1778  0.3865  0.1023
20333W        W40613   5.270   5.291  14.366 -0.1136 -0.5217 -0.2784
20334W        W40614  12.507   6.701  11.985  0.0489 -0.2122  0.0445
20335W        W40615   7.450  11.780  13.701  0.3503  0.1269 -0.0423
20336W        W40616  13.097  14.769   1.700  0.3131  0.3733 -0.0781
20337W        W40617  16.861   5.358  15.236 -0.1708 -0.1265  0.1252
20338W        W40618  14.954   9.088   2.170  0.0787 -0.0121 -0.4396
20339W        W40619  11.187   6.611  12.620  0.1419 -0.6189  0.0384
20340W        W40620   7.478  11.384  13.420  0.0343  0.2268  0.0699
20341W        W40621   1.573  14.111  14.653  0.2094 -0.4084 -0.1940
20342W        W40622  15.122   9.378  14.496 -0.1642  0.1727 -0.0539
20343W        W40623   0.015  18.680  14.877  0.1031  0.0584  0.1936
20344W        W40624  10.870  14.373  14.050 -0.0414 -0.0376 -0.2884
20345W        W40625  17.971  17.577  14.954 -0.1373 -0.0997  0.1918
20346W        W40626   7.572  12.911   0.648  0.2662 -0.0429  0.4383
20347W        W40627  17.196  13.672   3.274 -0.1089 -0.0227 -0.2225
20348W        W40628   9.056  14.631   3.424  0.0808 -0.1351 -0.0451
20349W        W40629  18.370   4.852  12.516 -0.0151 -0.0115  0.0994
20350W        W40630   9.039   4.194  13.386  0.0919  0.1684  0.1218
20351W        W40631  18.373   1.968   3.058 -0.1894 -0.0103 -0.0589
20352W        W40632   4.625  12.181   1.462 -0.0114 -0.2338 -0.1770
20353W        W40633   9.178   1.553   3.330 -0.1401 -0.2674  0.2434
20354W        W40634  14.353   1.567  12.402 -0.0929 -0.0195  0.1542
20355W        W40635  16.629   4.892   0.708  0.1282  0.0908 -0.0650
20356W        W40636  11.092   1.565   2.194  0.2938  0.0272 -0.2404
20357W        W40637  12.466  10.836   3.061 -0.3387  0.2104 -0.0601
20358W        W40638  10.396  14.678  14.705 -0.3995 -0.1308 -0.1050
20359W        W40639  14.636   6.767  13.003 -0.0923 -0.2635 -0.1748
20360W        W40640  17.606  14.158   4.624 -0.1484 -0.1784 -0.0948
20361W        W40641   7.721  13.021  13.962  0.0708  0.0302 -0.1339
20362W        W40642  10.019   7.812  13.330 -0.0703 -0.0654 -0.0808
20363W        W40643   5.114   9.636  14.396 -0.0622 -0.3393  0.0605
20364W        W40644   9.530  18.486  12.979  0.0729 -0.2398  0.3728
20365W        W40645   4.093   1.972   2.594  0.0124 -0.1161 -0.2261
20366W        W40646  15.370  13.199  13.793  0.0391  0.1527  0.2514
20367W        W40647  16.528  14.440   1.722 -0.1388 -0.0171 -0.0348
20368W        W40648  10.807  14.798   3.151 -0.2626 -0.1522  0.2776
20369W        W40649  11.961   2.278  12.047 -0.1031  0.0736  0.2610
20370W        W40650   1.863  14.764  11.305 -0.1947 -0.0990 -0.1095
20371W        W40651  14.996  12.596  12.723 -0.1002 -0.0067  0.1268
20372W        W40652  16.091  10.028   1.454 -0.0755 -0.1607 -0.0107
20373W        W40653   3.911   5.926   2.907 -0.2448  0.1320 -0.1732
20374W        W40654   2.366  16.592  14.052 -0.0232 -0.1162 -0.1660
20375W        W40655   1.726   6.118  12.545  0.2361  0.0609 -0.2799
20376W        W40656   2.246  14.059  11.466  0.1631  0.2086 -0.1082
20377W        W40657  14.436  15.249   1.719 -0.0796  0.1536  0.0205
20378W        W40658  12.724   5.902  11.945  0.0990 -0.0475  0.0134
20379W        W40659   0.268   6.694  12.669  0.1979 -0.1837 -0.3125
20380W        W40660  14.883  12.361   0.643 -0.2474  0.2379  0.1400
20381W        W40661   3.711   7.587  13.380 -0.0725  0.0648 -0.1472
20382W        W40662  15.566  11.826   2.812 -0.1751 -0.2674 -0.0357
20383W        W40663  12.113   2.949  12.703  0.1174  0.1387  0.1133
20384W        W40664  13.651   2.706  13.003  0.3723  0.1018  0.3252
20385W        W40665  14.146   5.966  11.977  0.3520  0.0910 -0.0333
20386W        W40666  10.307  16.845   1.419 -0.0075  0.0365  0.0163
20387W        W40667  18.119  15.940   2.194  0.1038 -0.1633  0.0478
20388W        W40668   5.290  15.411  12.648 -0.0994 -0.1135 -0.1874
20389W        W40669   0.950  11.546   1.219  0.2425 -0.0353 -0.0953
20390W        W40670   7.461   0.769  11.002  0.4569 -0.1185  0.1818
20391W        W40671  10.616   0.298   3.471  0.2271  0.0853 -0.2295
20392W        W40672   9.366  17.360   2.482  0.0150 -0.0182 -0.3498
20393W        W40673  10.891  10.250  13.897  0.4573 -0.1932 -0.2935
20394W        W40674   0.279   3.347  13.290  0.0628  0.1372  0.2128
20395W        W40675   8.800  15.658   2.578 -0.2349 -0.3694  0.2279
20396W        W40676  11.837   7.229  12.984 -0.0897  0.1149  0.2501
20397W        W40677   2.132   7.944   4.229  0.2605  0.4174 -0.3092
20398W        W40678   3.315   1.853   1.805 -0.1445  0.2305 -0.1806
20399W        W40679   5.319  15.219   1.982 -0.1593  0.0451 -0.0282
20400W        W40680   3.179   1.643   0.084 -0.0148  0.1881 -0.3622
20401W        W40681   8.849  15.590   1.883  0.1605 -0.1979  0.1363
20402W        W40682  12.029   0.941  12.891  0.2924  0.1954  0.2627
20403W        W40683   6.345   5.614   0.383  0.2058  0.1282  0.0324
20404W        W40684   4.210   9.407   0.573  0.0889  0.0394 -0.4978
20405W        W40685   6.485  15.104   2.043 -0.1856  0.0459 -0.0234
20406W        W40686  14.333   7.963   2.385 -0.0372  0.1724 -0.1810
20407W        W40687  17.177  17.459   4.513  0.0397  0.0647  0.2224
20408W        W40688  17.545   1.396  12.297  0.0940  0.1417 -0.2128
20409W        W40689   8.728   6.640  12.512 -0.0610 -0.1412 -0.0016
20410W        W40690  15.314  14.085   2.245  0.1879 -0.1907 -0.0086
20411W        W40691  16.797  12.810   1.278 -0.1647  0.0388  0.0222
20412W        W40692   1.291   5.834  12.615 -0.0767  0.2783  0.0544
20413W        W40693  10.190   5.549   4.089  0.5229  0.4659  0.0498
20414W        W40694  15.809   5.946   4.440 -0.1442 -0.1139  0.0321
20415W        W40695  13.586   1.684   3.137 -0.0271 -0.1447 -0.4395
20416W        W40696   9.844  13.284   3.603 -0.2038  0.2253  0.0691
20417W        W40697   7.075  16.540  11.748 -0.3139 -0.1716  0.2172
20418W        W40698   1.162   7.239  13.764  0.0216  0.0077  0.3667
20419W        W40699  13.128   7.561   4.067 -0.1195 -0.1650 -0.0196
20420W        W40700  17.502   7.509   1.746 -0.5208 -0.0235  0.1777
20421W        W40701  18.691  12.657   2.647 -0.2709  0.0826  0.2029
20422W        W40702   4.247  13.969   2.937  0.1401 -0.0687 -0.0784
20423W        W40703   5.687  15.914  12.678 -0.0709 -0.1685 -0.1966
20424W        W40704  17.403  14.981   3.011  0.2545 -0.2766  0.0016
20425W        W40705  18.186   1.494   3.285 -0.0748  0.2049 -0.0856
20426W        W40706  12.797  17.286   3.277  0.1357  0.1165 -0.1522
20427W        W40707  10.816  18.289   1.515 -0.0579  0.0443  0.1772
20428W        W40708   7.981  13.639   2.332  0.2394  0.2657 -0.1956
20429W        W40709  14.297  15.471  11.108 -0.0896 -0.0821 -0.0279
20430W        W40710  17.864   9.488   1.352 -0.1954  0.0419 -0.0299
20431W        W40711   0.056   5.982  14.632 -0.2780 -0.1982 -0.1257
20432W        W40712  18.083   6.415   3.463  0.2148  0.3242 -0.1668
20433W        W40713   2.763  15.269  14.448 -0.0132  0.0836 -0.0181
20434W        W40714   3.347   2.349  11.016  0.0498 -0.0711 -0.2758
20435W        W40715  11.458   0.938   0.577 -0.0677  0.1047 -0.2009
20436W        W40716   0.665  17.754  13.616 -0.1425  0.2069 -0.1255
20437W        W40717   3.776   5.744   1.612 -0.1440  0.2232  0.0348
20438W        W40718  14.859   5.705  13.747 -0.0408  0.1148 -0.0000
20439W        W40719  10.924   4.608   4.466  0.1326  0.1299  0.2558
20440W        W40720   7.702  17.312   2.697  0.0471  0.0201 -0.1429
20441W        W40721   3.844   9.768   2.531  0.0773 -0.0036 -0.0935
20442W        W40722  10.308   3.919   2.081 -0.2193 -0.2211  0.1047
20443W        W40723   1.773  14.043  11.634 -0.1541 -0.2224  0.1312
20444W        W40724  14.454  14.588  12.755  0.3188  0.0704 -0.1738
20445W        W40725   8.686   0.942   1.023 -0.0061 -0.1319  0.0800
20446W        W40726  16.887  10.475  11.352 -0.0358  0.2314 -0.0807
20447W        W40727   0.916  18.706  15.091  0.0366  0.3759  0.2091
20448W        W40728  11.231  12.889  12.305  0.0500  0.1344 -0.0736
20449W        W40729   7.913  17.424  14.045 -0.0710  0.0584 -0.0456
20450W        W40730   2.821   0.178  10.510  0.3223  0.1931 -0.2512
20451W        W40731   7.691  14.020  13.681 -0.0179  0.3576 -0.0598
20452W        W40732  13.544   4.054   3.517 -0.1420 -0.2668  0.0266
20453W        W40733  16.219  14.803  14.959 -0.2709  0.0369 -0.1310
20454W        W40734   9.367   8.587  13.398 -0.1196 -0.0567  0.1295
20455W        W40735  12.415   4.063  10.501  0.2576  0.0088  0.1519
20456W        W40736   5.363   5.233   0.295 -0.1406  0.0203  0.1406
20457W        W40737  15.805   6.598  14.020  0.1682  0.0157 -0.0870
20458W        W40738  18.723  15.805  14.937  0.1089  0.0015 -0.0011
20459W        W40739  12.632   9.253  15.194 -0.1802 -0.0452 -0.1279
20460W        W40740  10.986   9.444   1.691  0.1575 -0.4269 -0.2179
20461W        W40741  13.723   6.091  11.502  0.3072 -0.2307  0.0470
20462W        W40742  10.571   8.953   3.653 -0.0101  0.0820  0.1049
20463W        W40743   8.658   1.283  13.550  0.0743 -0.0518  0.1503
20464W        W40744  18.601   7.358  14.776 -0.0850  0.1038  0.0311
20465W        W40745   1.109  17.844  14.788  0.0012  0.3334 -0.0501
20466W        W40746   4.812  14.327   4.492  0.1178 -0.0610 -0.0038
20467W        W40747   1.518  11.127   0.730 -0.3299 -0.3534  0.2243
20468W        W40748   0.376  18.065   1.958  0.0456 -0.1262 -0.0365
20469W        W40749  15.083  11.100   3.974  0.0540  0.0633 -0.2827
20470W        W40750  13.463   7.589  15.062 -0.1087  0.0478 -0.0450
20471W        W40751  14.795   6.353  13.227  0.0907 -0.2568  0.3882
20472W        W40752   0.942  12.648   3.613  0.0494  0.1081  0.2987
20473W        W40753   0.507   3.954   0.200  0.3517  0.0878 -0.0603
20474W        W40754   5.631  13.394   2.435  0.2335  0.1137 -0.0160
20475W        W40755   0.931   6.520   2.738  0.3872  0.5045 -0.1356
20476W        W40756  10.805   1.286   0.916  0.0709  0.0933  0.2521
20477W        W40757   1.718  14.549  13.826  0.2073 -0.2963 -0.1087
20478W        W40758   3.686  18.441   1.172  0.0171  0.1185 -0.1587
20479W        W40759   9.395  13.781   0.939  0.0435 -0.0035  0.1252
20480W        W40760  12.755   7.971   4.236 -0.0418 -0.1925  0.1526
20481W        W40761   6.694  17.220  14.424  0.4923 -0.5173 -0.3243
20482W        W40762  11.305  14.202   1.900 -0.1417  0.0628 -0.2093
20483W        W40763  15.562   3.917  11.536  0.0056 -0.2042 -0.0995
20484W        W40764   2.383   2.255   0.045 -0.2905  0.2458 -0.2727
20485W        W40765   6.413  15.415  13.659 -0.0080  0.1281 -0.0813
20486W        W40766   4.063   3.751  13.736  0.0097 -0.0093  0.2935
20487W        W40767  13.698  12.701   3.715 -0.1252 -0.0522 -0.2719
20488W        W40768   3.486   6.967  14.254  0.2084  0.1026  0.0866
20489W        W40769   3.520  18.268   2.818 -0.1550 -0.1977  0.1019
20490W        W40770   8.742   4.577  13.499 -0.2456  0.1884 -0.1599
20491W        W40771   7.682  12.675  14.928  0.1679  0.1105 -0.2729
20492W        W40772  18.340  14.056   3.863  0.1469 -0.0187  0.1798
20493W        W40773   1.699  13.262   1.305  0.1859 -0.1834 -0.0304
20494W        W40774  17.057   4.479  13.041  0.1303 -0.0889 -0.1633
20495W        W40775   6.684   0.686  12.898  0.0173 -0.1168  0.0954
20496W        W40776  10.390  13.009  14.892 -0.3276 -0.1519 -0.2056
20497W        W40777   8.812  11.808   2.675 -0.2415 -0.0864 -0.0164
20498W        W40778   9.530   4.429   3.518  0.1040 -0.4045 -0.0487
20499W        W40779  18.400  16.658  12.337 -0.2156  0.1666  0.2378
20500W        W40780  10.355   3.899   2.607  0.1403  0.1344  0.0129
20501W        W40781   1.090  14.862  11.517 -0.3911  0.1396 -0.0378
20502W        W40782   7.648   5.018  11.490  0.3311  0.1897 -0.3641
20503W        W40783  12.780   9.748  14.865  0.0101  0.1349 -0.1054
20504W        W40784   1.454   1.085   0.652 -0.2047 -0.1167 -0.0701
20505W        W40785   8.262   5.262  12.015  0.0959 -0.1995  0.2376
20506W        W40786  10.344  15.453  13.018  0.1247 -0.5123 -0.0161
20507W        W40787   9.243  13.132  12.294  0.2120  0.0566  0.1323
20508W        W40788  12.356   9.862   1.402 -0.3943  0.1754 -0.2170
20509W        W40789   5.379  13.095  15.211 -0.2605 -0.1005 -0.0778
20510W        W40790   7.207  14.143   2.363 -0.0214  0.1112  0.4507
20511W        W40791  17.279  10.099  14.111 -0.3096  0.0489  0.0520
20512W        W40792   3.040   5.061  11.116 -0.1569 -0.0874  0.0438
20513W        W40793   9.535   9.539  10.625  0.1324 -0.2073  0.0568
20514W        W40794   1.506   2.353   3.265  0.1516  0.4366  0.0309
20515W        W40795  16.864  10.158   0.953  0.0993 -0.2543  0.0354
20516W        W40796   2.958   8.754  12.047  0.2649 -0.0266 -0.0166
20517W        W40797  13.363  14.200  15.058 -0.0732 -0.0224 -0.1536
20518W        W40798   4.102   3.842  12.905 -0.0762  0.1911  0.1192
20519W        W40799  17.596   8.896   1.504  0.0120 -0.3349  0.1243
20520W        W40800  11.670  16.179  12.475  0.0855  0.1023  0.1507
20521W        W40801  17.430  10.722   1.985  0.0540 -0.3843 -0.0774
20522W        W40802   4.191  11.581  14.353 -0.4963  0.0441 -0.1933
20523W        W40803  12.506   9.631   4.169 -0.0925  0.0161  0.1504
20524W        W40804   3.918   8.318  15.347  0.0411 -0.1155  0.2190
20525W        W40805  18.423   0.083   1.816  0.0258  0.1177  0.0423
20526W        W40806   4.334  16.736  13.362 -0.1545  0.0273  0.3886
20527W        W40807   1.238   8.587   3.030  0.0227  0.0139  0.3485
20528W        W40808   5.930   9.429  11.014 -0.0810  0.0040  0.0550
20529W        W40809  12.669  15.726   1.763 -0.0808 -0.0822  0.1651
20530W        W40810   0.572  16.712  11.557  0.0488 -0.2162 -0.1056
20531W        W40811   7.788  13.163   2.317  0.1280 -0.0750  0.0359
20532W        W40812   9.550   4.210  13.437  0.1829 -0.0742  0.1445
20533W        W40813   3.884  18.391  11.995  0.0883 -0.1474  0.3246
20534W        W40814  10.854   4.867   1.038 -0.0656 -0.0264  0.1153
20535W        W40815   4.448  12.970   2.018  0.2453  0.1417  0.2286
20536W        W40816   9.497   8.074  11.497 -0.0319  0.1416  0.3279
20537W        W40817   6.077   4.099   0.556  0.1793 -0.2243  0.1555
20538W        W40818   3.509  18.073   1.404  0.0703  0.2589  0.0157
20539W        W40819  18.226   4.161   2.373  0.0684  0.0254 -0.1427
20540W        W40820  12.360   1.507   1.158 -0.3144  0.2041  0.0061
20541W        W40821  11.862   7.818   1.337 -0.0618 -0.1961  0.0640
20542W        W40822  17.318  13.275  11.829  0.1980  0.1644  0.0296
20543W        W40823   8.347  14.949  13.737  0.1552  0.0714  0.0765
20544W        W40824   4.779   0.805  14.894  0.0748  0.0230  0.0518
20545W        W40825  10.064   3.626  13.878 -0.1005  0.0974  0.1605
20546W        W40826  13.722  13.428  14.339  0.1073  0.1039 -0.0020
20547W        W40827  14.655  14.121  15.109  0.1886  0.1506  0.1833
20548W        W40828   4.963   5.760  14.366 -0.0462  0.1414 -0.1425
20549W        W40829  12.700   4.294  12.020  0.1330 -0.1359 -0.3121
20550W        W40830  14.650   6.298   2.365 -0.0531  0.2072 -0.0356
20551W        W40831   7.704  12.693   3.143  0.4034  0.0513  0.1526
20552W        W40832   7.879   0.895  11.271  0.3304 -0.1505  0.0867
20553W        W40833  13.807   4.147   0.884  0.0486 -0.1155 -0.0451
20554W        W40834  16.302   5.142  11.528  0.0032 -0.0128 -0.3188
20555W        W40835   3.007   0.519  13.426 -0.0495  0.1306  0.0706
20556W        W40836   3.341   2.038   4.113  0.1946  0.3184 -0.2527
20557W        W40837  10.326   0.363  13.444  0.1633  0.1029 -0.0645
20558W        W40838  12.259  10.340   4.951  0.0079 -0.0474  0.1788
20559W        W40839   7.584  12.348   1.958  0.1313 -0.0940  0.1693
20560W        W40840   2.237  18.722   1.748 -0.2845 -0.1463  0.3630
20561W        W40841  17.051  13.241   3.855  0.0269  0.2006  0.2019
20562W        W40842   5.053  11.836  11.641  0.0146  0.0294  0.1929
20563W        W40843  16.263  16.625   3.291  0.1103  0.0018 -0.0885
20564W        W40844   4.622   8.272  11.637  0.0538 -0.0817  0.0068
20565W        W40845  12.825   1.206  14.867 -0.0299  0.2969  0.1697
20566W        W40846   8.367   4.754   3.257 -0.1231 -0.3758  0.4325
20567W        W40847   7.951  12.198  12.389 -0.0254 -0.0519  0.1471
20568W        W40848   1.817   7.989  13.994  0.1382 -0.1061 -0.0292
20569W        W40849  10.778  18.363   0.811 -0.3494  0.3258  0.0184
20570W        W40850  18.367   8.741   4.498 -0.0259  0.0509 -0.1417
20571W        W40851  11.515   2.421  14.838 -0.1398  0.1711 -0.1243
20572W        W40852  14.563  16.042   2.952 -0.0857 -0.0588  0.0076
20573W        W40853   1.294   2.491   0.627  0.2211 -0.2956 -0.1559
20574W        W40854   4.905   9.999  12.993 -0.1004 -0.3453 -0.0276
20575W        W40855   7.026   2.950  14.378  0.0923  0.0178 -0.0683
20576W        W40856  16.451   5.100  14.397  0.1209 -0.1245  0.4204
20577W        W40857  13.439  11.456  14.745  0.2414 -0.1428 -0.4085
20578W        W40858   5.740   2.538  14.720  0.2616  0.0752  0.0250
20579W        W40859  14.494  13.195   1.304 -0.0441  0.0718  0.0037
20580W        W40860   2.657   7.171  11.738  0.2580  0.0833 -0.3137
20581W        W40861  11.137  15.192  14.478 -0.2380 -0.1139 -0.2595
20582W        W40862  13.814   6.013   0.089 -0.0714  0.1702 -0.1943
20583W        W40863  10.482  13.794   1.722 -0.0671 -0.2001  0.0535
20584W        W40864  15.068  18.028  11.326  0.0124 -0.0261 -0.1036
20585W        W40865  10.533  15.197  11.980 -0.0356  0.0935 -0.1948
20586W        W40866  14.558  15.716   2.514 -0.6518  0.0560 -0.1835
20587W        W40867  16.637  13.221  13.303  0.1828  0.1498 -0.2232
20588W        W40868   5.307  15.935   9.927 -0.2820  0.1185  0.4406
20589W        W40869  11.801   6.326  12.030 -0.4341 -0.0490 -0.0509
20590W        W40870   6.697   5.987   1.636  0.1830 -0.0851  0.3039
20591W        W40871  15.570   4.216  10.207 -0.1229  0.0027 -0.1351
20592W        W40872  12.039   5.568  14.627 -0.0642  0.1511 -0.1792
20593W        W40873   2.941   4.194  12.900  0.1021  0.0124 -0.1384
20594W        W40874  12.645  11.998  15.348  0.0387  0.0461  0.1960
20595W        W40875  14.431  14.017   3.269 -0.1120  0.1924  0.2323
20596W        W40876   8.026  14.424  13.755 -0.2812  0.2809  0.0244
20597W        W40877  12.042  16.129  11.206 -0.0569  0.0606 -0.0422
20598W        W40878  10.890  11.169   0.133  0.0692 -0.1393  0.1061
20599W        W40879   4.263   4.742   1.869  0.0751  0.2956 -0.0942
20600W        W40880  14.238  16.713  13.621 -0.0174 -0.0368 -0.3967
20601W        W40881   5.381   1.020   0.604 -0.1313 -0.0898  0.0646
20602W        W40882  10.607   9.657   3.775 -0.0991 -0.1565  0.1557
20603W        W40883  12.715  11.577   3.919  0.1541  0.2891  0.1069
20604W        W40884   6.417  13.228  15.145  0.2648  0.0897 -0.1088
20605W        W40885   2.405  17.675  12.241  0.2467  0.1675  0.0005
20606W        W40886  15.538   1.553  15.354 -0.0214 -0.2436 -0.2991
20607W        W40887   8.478   4.694  14.823  0.1425 -0.0574 -0.1677
20608W        W40888  12.522  13.182  12.992 -0.0787 -0.0544 -0.1139
20609W        W40889   6.680  15.675  14.630  0.0269  0.1159  0.0354
20610W        W40890   6.793  16.775  13.821 -0.2777  0.0825 -0.1529
20611W        W40891   1.056  10.078  13.407  0.0967  0.1309 -0.2072
20612W        W40892  11.799  17.631   9.928  0.1066 -0.3310 -0.2474
20613W        W40893   9.831   7.780   3.222  0.0508 -0.0366 -0.0307
20614W        W40894   8.489  17.392  12.879  0.0287 -0.1643  0.0973
20615W        W40895   6.836  13.573  12.702  0.3197 -0.1090  0.0308
20616W        W40896  15.082  14.033  12.937 -0.2746 -0.2896  0.2022
20617W        W40897  16.868   7.099   3.696 -0.0756  0.3362  0.2161
20618W        W40898   7.429  10.672   1.643 -0.0360 -0.1478  0.1741
20619W        W40899   3.499  16.575  14.161 -0.1006  0.1682  0.0040
20620W        W40900  16.669   1.041  12.436 -0.0988  0.0740 -0.1580
20621W        W40901  13.776   6.933  14.882  0.2708 -0.1274 -0.0363
20622W        W40902   7.437  11.369   4.756  0.1326 -0.1639 -0.2016
20623W        W40903   7.329  13.214  13.323  0.2869  0.1859 -0.0802
20624W        W40904  11.174  14.887   2.293  0.1367 -0.2238  0.0861
20625W        W40905   2.444  13.574   3.999  0.0354  0.1474  0.3705
20626W        W40906   1.500  16.586   0.819  0.2702 -0.0721  0.0820
20627W        W40907  10.276  10.876  12.084  0.0359 -0.3150  0.2979
20628W        W40908   7.455   4.955   0.160 -0.1714  0.2432 -0.0926
20629W        W40909  15.998  17.818  11.349 -0.0936 -0.0607 -0.0681
20630W        W40910  13.147  18.020   0.487  0.1789  0.1738  0.0359
20631W        W40911   6.552   3.783  11.909  0.0183 -0.1152 -0.2647
20632W        W40912   4.816   7.908  12.089  0.3594 -0.1112 -0.2626
20633W        W40913  17.791  18.442  13.831 -0.0435 -0.0830 -0.0250
20634W        W40914   4.975  10.342   3.389 -0.1191  0.3242  0.1943
20635W        W40915   8.801   9.086   0.333 -0.1621  0.2249  0.4454
20636W        W40916  18.325  14.709   5.820 -0.0349  0.0762  0.1887
20637W        W40917   0.365  16.024   3.821  0.1607 -0.1665  0.3533
20638W        W40918   1.939  17.157   1.240  0.0004 -0.4014 -0.2390
20639W        W40919   0.373   1.320  14.527  0.2806 -0.2107 -0.1954
20640W        W40920  12.074   3.419  12.212  0.0151  0.0836 -0.4007
20641W        W40921  11.953   7.890   0.855  0.1398  0.0188 -0.0943
20642W        W40922  15.561   2.481  11.458  0.1774  0.3707  0.1231
20643W        W40923   9.999  17.883  11.362 -0.2118  0.1359  0.2431
20644W        W40924  15.417   7.920  13.421 -0.2635  0.5607 -0.1281
20645W        W40925  15.619  11.307  14.211  0.0168  0.2796 -0.1527
20646W        W40926  10.566   0.374  14.926  0.2871  0.1370 -0.1987
20647W        W40927   8.762  10.998  14.158  0.0420 -0.0856  0.3096
20648W        W40928  11.621   8.461   0.152  0.0187 -0.3586 -0.2643
20649W        W40929   5.046  14.150   1.638  0.1349 -0.0879  0.0440
20650W        W40930   7.146   6.152   1.248  0.2175 -0.0128 -0.0851
20651W        W40931   1.991   7.432   4.222  0.1586 -0.0352  0.1638
20652W        W40932  18.538   0.986   1.791  0.0657 -0.2291 -0.1495
20653W        W40933  14.823   0.645  15.285  0.0068 -0.1693  0.0890
20654W        W40934  12.712  10.153   1.971  0.1442 -0.0404  0.2084
20655W        W40935  12.658  18.028   0.696 -0.0319 -0.1348  0.2512
20656W        W40936   2.921  18.494  15.179  0.2872  0.2496 -0.0033
20657W        W40937   1.245   1.904  11.760  0.0630 -0.0912 -0.2253
20658W        W40938   9.153   9.653   3.610  0.4236 -0.1087  0.0034
20659W        W40939  14.830   7.428  14.030 -0.2821 -0.1818  0.3408
20660W        W40940  14.728  18.240  14.949 -0.1681 -0.1097  0.1249
20661W        W40941  12.444   7.652   1.415 -0.0464  0.0709  0.2870
20662W        W40942   1.487   8.127  13.622 -0.3416 -0.0984 -0.0138
20663W        W40943   7.842  15.978   1.797  0.3824 -0.1428  0.4829
20664W        W40944  13.746   7.013  13.466  0.1859  0.1842  0.0396
20665W        W40945  10.510   9.220   1.847  0.0833 -0.2265 -0.2833
20666W        W40946   6.380  11.301  14.914  0.2459  0.5451  0.3617
20667W        W40947  12.950  17.218  11.727 -0.0765  0.1474  0.0737
20668W        W40948   3.468   6.290   3.946 -0.1002 -0.1787  0.5115
20669W        W40949  10.732  12.315   4.200 -0.1372  0.1424 -0.0036
20670W        W40950   4.145  10.815   2.501 -0.2752  0.5060  0.2241
20671W        W40951   7.610   5.465   4.395  0.0920  0.0919 -0.0263
20672W        W40952  15.557   3.873   2.174  0.3564 -0.1809 -0.0680
20673W        W40953   4.184   6.517   0.400 -0.1163 -0.2104  0.1794
20674W        W40954   5.744   3.020   9.807  0.1018 -0.1553  0.0023
20675W        W40955   2.925   3.301   1.719  0.3460 -0.2168 -0.1384
20676W        W40956  13.286   7.143   0.686 -0.0300 -0.0770  0.1138
20677W        W40957   8.212  16.737  13.729  0.1256  0.1396 -0.0941
20678W        W40958   2.079   2.721   0.179 -0.1278  0.1010  0.1484
20679W        W40959   8.677  14.150  15.292  0.0470 -0.4129  0.2458
20680W        W40960  12.850   0.357   1.813 -0.1950 -0.0289 -0.0643
20681W        W40961   6.534  15.287   9.841 -0.2474  0.0954 -0.0562
20682W        W40962   4.946   1.829   2.493  0.1476 -0.0695  0.1081
20683W        W40963  14.290   8.652  14.963 -0.1007  0.3047 -0.1647
20684W        W40964  18.221   5.793   3.786  0.0061  0.1998 -0.0685
20685W        W40965   6.151  14.739   4.809 -0.1229 -0.1032 -0.0380
20686W        W40966   3.589   9.628   1.231  0.2039 -0.0322 -0.3695
20687W        W40967  17.850  12.552  11.118  0.3088 -0.0275  0.1104
20688W        W40968  18.275  15.443   2.259  0.0981  0.0966 -0.1356
20689W        W40969   4.431   2.036   0.465 -0.0418 -0.1373  0.1669
20690W        W40970   7.668   3.298  14.347  0.2963  0.1020  0.2441
20691W        W40971  13.134   1.552  10.992  0.0536  0.1182  0.1784
20692W        W40972   4.728  16.568   3.076 -0.2507  0.0259 -0.1732
20693W        W40973  10.981   7.567   3.368 -0.0674 -0.1065  0.2422
20694W        W40974   1.332   0.041   3.328 -0.0440  0.3579  0.3159
20695W        W40975   5.804  10.209  13.172 -0.4494  0.2242  0.1534
20696W        W40976   5.764   6.385   1.303  0.2073 -0.0597  0.0566
20697W        W40977   3.538  14.598  13.359  0.1475  0.0096  0.3022
20698W        W40978  11.991   0.040   3.258 -0.1910  0.2618  0.0494
20699W        W40979  18.158   4.102  12.347  0.0182  0.2012  0.0990
20700W        W40980  14.322   8.301   0.344  0.1102 -0.1921  0.2393
20701W        W40981  16.768   8.952  13.614 -0.1154  0.1732 -0.0620
20702W        W40982   5.113  15.345   2.482  0.0853 -0.2069  0.0557
20703W        W40983   1.848   1.071   0.981 -0.0733 -0.0983 -0.5071
20704W        W40984   3.831   5.421   2.524  0.1467  0.0958 -0.1305
20705W        W40985  15.478   7.212  12.484 -0.1288 -0.0857  0.5234
20706W        W40986   3.719   9.290  13.476 -0.1182 -0.3275 -0.3899
20707W        W40987  11.379  12.027   1.927  0.4041 -0.2579 -0.1008
20708W        W40988   1.436   1.486   3.355 -0.0431  0.2043  0.0424
20709W        W40989  10.920  16.959   1.439 -0.4696 -0.2114 -0.4964
20710W        W40990   5.181   2.931  14.941  0.0261 -0.1773 -0.0119
20711W        W40991  16.040  17.919   3.549 -0.1901 -0.1057  0.0342
20712W        W40992  18.104   7.094  13.786  0.0970  0.0802  0.0187
20713W        W40993  17.425  13.383   1.867  0.3043  0.2533 -0.0087
20714W        W40994  10.046   8.651  12.148 -0.0273  0.2842 -0.1849
20715W        W40995   6.429   4.559   2.899  0.1139 -0.1489 -0.0529
20716W        W40996  16.992   3.764   2.384 -0.0293 -0.0380 -0.2545
20717W        W40997   8.305   3.126   1.135  0.1226  0.1334 -0.1069
20718W        W40998  10.377   0.993   0.888  0.2560 -0.1265 -0.1396
20719W        W40999  17.196   7.887  11.820  0.2446  0.2897 -0.1326
20720W        W41000   1.515  13.870   4.228  0.1402  0.0733  0.0590
20721W        W41001  12.629  13.937  11.221  0.2305 -0.1149 -0.0153
20722W        W41002  17.928   3.171   4.591 -0.0058  0.1677 -0.0153
20723W        W41003  16.759   4.682   1.176 -0.2284  0.1398  0.1314
20724W        W41004   8.440  11.660   4.174 -0.2270 -0.0071 -0.1912
20725W        W41005  14.206  13.154  14.396  0.3079  0.1982 -0.0379
20726W        W41006   3.129   5.354  14.501  0.3288  0.0048 -0.1556
20727W        W41007   5.185  10.861   0.354  0.1211  0.3438  0.0662
20728W        W41008  13.748   2.477  11.234 -0.1892  0.0057  0.2729
20729W        W41009  18.023   0.425   3.636 -0.0997  0.1461  0.0556
20730W        W41010  11.287   4.186  12.968 -0.1248  0.2084  0.2089
20731W        W41011   3.260   0.992   1.207 -0.0223 -0.1465 -0.3044
20732W        W41012  10.308   7.354   0.330 -0.0038  0.1141 -0.0574
20733W        W41013   0.223  16.648   4.829  0.1651 -0.0394  0.0321
20734W        W41014   7.860   4.453   4.071 -0.1996 -0.1070 -0.1044
20735W        W41015   4.456   6.233   0.129  0.3098  0.0021 -0.1126
20736W        W41016  14.175  18.311  11.475 -0.0620  0.0606 -0.1629
20737W        W41017  18.732   3.558  11.842  0.2071  0.2525 -0.1551
20738W        W41018  17.912  15.176   1.154 -0.3379 -0.1940 -0.1670
20739W        W41019   2.853  12.029  12.391  0.3814  0.1582 -0.3685
20740W        W41020   4.081  12.932  15.153  0.0076 -0.1359 -0.2973
20741W        W41021   4.515  13.916   3.338  0.1157  0.1044 -0.1019
20742W        W41022   7.654  10.381  15.213  0.1272  0.2417 -0.4730
20743W        W41023   2.955   0.946  14.124  0.0062  0.2449  0.1323
20744W        W41024  17.454  15.343  14.564 -0.0138  0.0303  0.0999
20745W        W41025  17.917   8.487   1.502 -0.0383  0.0165 -0.0802
20746W        W41026  14.833   9.474   3.434 -0.1162  0.2435  0.3891
20747W        W41027   5.243   8.173  14.836  0.1353 -0.2934  0.0834
20748W        W41028  17.115  15.756  12.495  0.1595 -0.3035  0.1845
20749W        W41029  11.630  11.804  13.418 -0.3462 -0.1133 -0.0400
20750W        W41030   9.362  15.209   2.731  0.0848 -0.1067 -0.1466
20751W        W41031  13.502   8.608  13.047  0.1616  0.2013 -0.1690
20752W        W41032  14.593   3.749   1.704  0.0519 -0.0765 -0.2967
20753W        W41033  17.396  13.226   2.719  0.0963  0.3281  0.1559
20754W        W41034  10.623  15.027  11.553  0.0208  0.0175  0.1809
20755W        W41035  15.269  12.466   1.527  0.1504  0.0023 -0.0619
20756W        W41036   3.324  11.121   4.976  0.0456 -0.2092 -0.0081
20757W        W41037   1.687  15.286   3.058 -0.1439  0.0304 -0.3323
20758W        W41038  15.627   1.546  12.826  0.0980 -0.1460 -0.1144
20759W        W41039   4.709  16.033   0.647  0.0943  0.1267 -0.2638
20760W        W41040   1.410   7.840   1.597  0.0386 -0.1311  0.1941
20761W        W41041   1.643   0.112  13.256 -0.0706 -0.0352 -0.1472
20762W        W41042   6.921  11.399   1.051  0.0448 -0.1045 -0.1215
20763W        W41043   1.558  10.596   2.413  0.0317 -0.1982 -0.1612
20764W        W41044   1.035  12.025   1.358  0.0135  0.1069  0.1816
20765W        W41045  14.832   2.257  12.694  0.0774  0.1570 -0.0136
20766W        W41046  12.773  13.881  14.067  0.0697 -0.1809 -0.0845
20767W        W41047   4.147  10.033   2.160 -0.0128  0.1148 -0.3094
20768W        W41048  15.961   0.963  12.122  0.4455  0.3148 -0.1298
20769W        W41049   2.890   2.927   4.366 -0.1130  0.0006 -0.0432
20770W        W41050  16.018  11.124  13.440  0.1543  0.2642  0.1055
20771W        W41051   0.183  10.403   3.808 -0.0531 -0.0743  0.2796
20772W        W41052   4.666  12.540  11.202  0.0382 -0.2496  0.1381
20773W        W41053  16.453   2.836   2.849 -0.2047  0.1148 -0.1146
20774W        W41054  13.926  13.472   1.405  0.0158  0.0215  0.2026
20775W        W41055   0.089  18.539   2.026 -0.1185  0.0559 -0.0562
20776W        W41056   1.666  17.009  12.446  0.0683 -0.0093 -0.3202
20777W        W41057  10.115  10.516   2.409 -0.1873 -0.0496  0.3089
20778W        W41058  14.850   7.891   3.429  0.0548 -0.1802 -0.1131
20779W        W41059   7.002   0.976   3.350 -0.0368 -0.0890  0.0742
20780W        W41060   3.810  15.473  11.032  0.1525 -0.1174 -0.1482
20781W        W41061   3.200   5.046   0.559 -0.0926 -0.1654 -0.1215
20782W        W41062  11.928   3.446   2.192 -0.2292 -0.2134 -0.2865
20783W        W41063  18.175   6.659   4.483 -0.2025 -0.0134  0.2476
20784W        W41064  15.796   5.001   2.102 -0.1643  0.0146  0.1628
20785W        W41065   1.341  11.406   4.191  0.2979  0.2703  0.1319
20786W        W41066   3.966   9.472   1.543  0.0435 -0.1569 -0.1930
20787W        W41067  18.310   2.902  11.415  0.1739 -0.0274 -0.2136
20788W        W41068  15.001   1.550  13.316 -0.0028  0.1754  0.1743
20789W        W41069   8.839  14.378  13.240 -0.0273 -0.0497 -0.3557
20790W        W41070   3.343  11.243   4.479 -0.1688  0.0143  0.0272
20791W        W41071   5.331  11.177  14.063 -0.0794 -0.2195 -0.0129
20792W        W41072   1.968   0.625  12.091 -0.0115  0.0284  0.2819
20793W        W41073   0.245   0.799   1.816  0.1632 -0.2088 -0.0917
20794W        W41074  10.750   1.671  13.850  0.2483  0.0056 -0.3553
20795W        W41075   2.778   5.656  11.700  0.2256  0.0145  0.0801
20796W        W41076  14.073   1.276  14.971  0.1783 -0.1020 -0.1767
20797W        W41077   8.062  16.112  13.052 -0.1665  0.1872 -0.1501
20798W        W41078   4.488   0.945  13.499 -0.0112  0.2145 -0.0492
20799W        W41079  16.694  17.822   3.283 -0.3236  0.0437  0.0833
20800W        W41080   3.803   1.886  13.839 -0.1557  0.1080  0.0611
20801W        W41081  17.593   3.533   4.734  0.4687  0.1428  0.1013
20802W        W41082  17.813   8.789   1.971 -0.1051  0.2203  0.3149
20803W        W41083   1.308   1.802  15.378 -0.3864 -0.0568  0.1756
20804W        W41084  12.079  16.512   0.136  0.0506 -0.0987 -0.1661
20805W        W41085   4.089  10.883  11.384  0.2607 -0.3184  0.0464
20806W        W41086   9.172   7.398  13.486 -0.3690  0.0245  0.2565
20807W        W41087  11.106   3.049   3.033  0.1008  0.0714 -0.0052
20808W        W41088   5.761   5.107   0.710 -0.1069 -0.1155  0.3401
20809W        W41089   3.355   4.576   1.620 -0.1301  0.2061  0.2809
20810W        W41090   4.038   8.003  14.801  0.1903  0.0097 -0.2771
20811W        W41091  13.595  11.263   3.483 -0.0565 -0.3399 -0.3159
20812W        W41092   5.126   7.820   0.225 -0.1373 -0.0578  0.0654
20813W        W41093   7.520  12.266  13.690  0.4687 -0.2525  0.0097
20814W        W41094   5.071  14.873   3.251 -0.0713  0.0534 -0.1832
20815W        W41095   4.602  17.692   3.467 -0.0103 -0.3001  0.1373
20816W        W41096   9.415   7.349   1.709 -0.0910 -0.0627 -0.0532
20817W        W41097  16.540  17.845   0.996 -0.2568 -0.0422 -0.0760
20818W        W41098   7.487  18.576   2.223 -0.1445  0.0710 -0.0019
20819W        W41099  12.803   8.452   4.605 -0.0074 -0.0193  0.3335
20820W        W41100   3.836  11.161   0.759 -0.2183  0.1394 -0.1358
20821W        W41101   2.648   3.633   3.372  0.0990 -0.1365  0.0352
20822W        W41102   7.153  10.619  15.014 -0.0289 -0.1441 -0.2798
20823W        W41103   2.204   3.992   0.987  0.1393 -0.1914 -0.0568
20824W        W41104  16.395   8.001   2.813 -0.1057  0.0200  0.0140
20825W        W41105   7.586  14.501  13.254 -0.1041  0.1381  0.0379
20826W        W41106  16.718   8.617   3.596 -0.1677 -0.1690 -0.2553
20827W        W41107   2.983   1.066  14.651  0.3001  0.3305  0.1238
20828W        W41108   8.022   3.518  13.639 -0.2767 -0.0529 -0.2844
20829W        W41109   4.435   0.551   9.980  0.0942 -0.0487  0.1881
20830W        W41110  16.831  10.967   3.689 -0.3422  0.1521  0.0435
20831W        W41111   1.357  18.697  12.807  0.0966  0.0090  0.2145
20832W        W41112   2.153  14.117  12.073  0.0556  0.0328  0.2923
20833W        W41113   6.552   5.380  11.320  0.0217  0.1523  0.2641
20834W        W41114  10.265   2.523  12.920  0.1093 -0.0614 -0.1058
20835W        W41115  14.119   8.138  14.325  0.0076  0.0715 -0.2032
20836W        W41116   7.306   1.024  15.359 -0.0474 -0.1633 -0.1869
20837W        W41117   2.380   3.010  14.232 -0.3042 -0.1920 -0.2564
20838W        W41118  13.128   9.258  13.659  0.1405 -0.0815 -0.1286
20839W        W41119   5.862  18.493   0.326  0.1712 -0.1480 -0.2537
20840W        W41120  14.304  11.500  12.828  0.3248 -0.1401  0.3771
20841W        W41121   4.807   7.374   1.101  0.1105 -0.1519  0.3728
20842W        W41122   5.318   3.920  12.472  0.0270  0.0233  0.2633
20843W        W41123  18.345   9.413   2.150  0.1417 -0.2158 -0.3210
20844W        W41124   8.896   6.130   0.534 -0.2807 -0.0124 -0.3570
20845W        W41125  10.624   6.343  12.224 -0.1986 -0.0948  0.3613
20846W        W41126  16.299   7.618  13.685 -0.2136  0.1059  0.1576
20847W        W41127   6.482  15.862   1.053 -0.0071  0.1039 -0.1766
20848W        W41128   8.746  13.238  12.310 -0.0688  0.1338  0.0785
20849W        W41129   1.342   4.985   0.759  0.1022  0.1916 -0.2135
20850W        W41130  17.878  11.873   1.935 -0.1044 -0.0002  0.0701
20851W        W41131   1.029   6.313   1.264 -0.4201 -0.1901  0.1814
20852W        W41132   2.306   2.385  14.924  0.0077 -0.1749 -0.0659
20853W        W41133  15.625  17.167  14.717  0.3541 -0.1934 -0.1057
20854W        W41134   2.445  12.593  13.344 -0.2779 -0.1130 -0.2473
20855W        W41135  12.125   0.257  13.524  0.0070 -0.1193 -0.0057
20856W        W41136  13.987   2.430   1.903  0.3085  0.2250  0.0661
20857W        W41137   8.727   9.187  13.734  0.1061  0.0060  0.1673
20858W        W41138   4.589   0.289  12.088  0.0129 -0.0188  0.1626
20859W        W41139   3.360  16.620   1.582  0.5000 -0.0871  0.1851
20860W        W41140  14.245  17.411   0.536 -0.0009 -0.1286  0.2450
20861W        W41141  14.159   4.993  10.902 -0.0808  0.1441 -0.0756
20862W        W41142   7.590   1.636   4.200 -0.1701  0.0867 -0.0546
20863W        W41143  10.937  15.266  14.014  0.1573  0.1938  0.0238
20864W        W41144  14.538   1.826   1.394  0.2283  0.0138 -0.0492
20865W        W41145   2.461   5.074   2.649 -0.1545  0.1522 -0.2144
20866W        W41146   3.488   4.615   0.133 -0.4290  0.2594 -0.2850
20867W        W41147  10.206   8.076   3.748  0.0800  0.0252 -0.1535
20868W        W41148   9.250   4.521   4.078 -0.1296 -0.0205  0.1171
20869W        W41149   5.967  10.542   0.610 -0.2425 -0.0554 -0.1181
20870W        W41150   7.404   1.640   0.814  0.1844  0.1078 -0.1099
20871W        W41151   2.633   6.988   0.820  0.2071  0.1765 -0.0104
20872W        W41152  11.483  16.790  13.667  0.1061  0.1104 -0.1449
20873W        W41153   2.429  12.873  14.491 -0.2703  0.0213  0.3973
20874W        W41154   8.754   6.946  12.050 -0.0761 -0.1501  0.0231
20875W        W41155   5.111   9.538  13.075  0.0136 -0.1128 -0.2588
20876W        W41156   1.499  17.108   5.124 -0.1430  0.2487 -0.3428
20877W        W41157  10.436   8.167   0.814  0.0642  0.1601  0.1042
20878W        W41158  14.792   3.970   4.148  0.0477  0.2275 -0.1160
20879W        W41159  18.111  10.913   1.768  0.0821 -0.0681  0.1880
20880W        W41160   9.324   5.441   0.217 -0.1312  0.0324  0.1240
20881W        W41161   2.958  13.283  11.371 -0.1774 -0.3287  0.1861
20882W        W41162   0.646   6.940  14.716 -0.1160  0.4003  0.0807
20883W        W41163   6.321   8.290  12.877 -0.0839  0.0478 -0.2229
20884W        W41164  15.441   3.967   0.286  0.0018  0.0332  0.0983
20885W        W41165   6.682   0.028   0.939  0.0830 -0.3177 -0.1724
20886W        W41166  15.165   1.190   3.562  0.0570  0.1829 -0.0776
20887W        W41167   8.749  17.664  10.665  0.1003  0.0554  0.0141
20888W        W41168   6.965   7.003  13.889 -0.0085 -0.0680  0.0436
20889W        W41169  11.308   3.193   3.937  0.1699 -0.0320  0.0274
20890W        W41170   1.071  18.592   1.803  0.2988  0.1925 -0.0342
20891W        W41171  15.018  10.067  14.435 -0.5051  0.0923  0.1953
20892W        W41172   7.088  18.220  12.548  0.1705  0.1863  0.0858
20893W        W41173  10.298  10.313   2.989 -0.2404  0.1399  0.0041
20894W        W41174  15.713  13.342  14.183  0.2409 -0.1079 -0.2537
20895W        W41175  14.664  15.233  14.211 -0.0392  0.1857  0.2955
20896W        W41176   3.110  18.268  12.222 -0.1600 -0.0199  0.1533
20897W        W41177  14.266  12.809  14.017  0.0493 -0.0162  0.1278
20898W        W41178   0.348   3.797  13.570  0.1278  0.0435  0.2104
20899W        W41179   6.953   3.485   1.388 -0.0198 -0.0593 -0.1386
20900W        W41180  17.092  13.120  13.910  0.2697  0.0402  0.0711
20901W        W41181   6.165  11.057  12.799  0.2088 -0.3287  0.0194
20902W        W41182   6.424   8.453   3.437  0.2494 -0.1984 -0.2721
20903W        W41183   8.760  14.780   2.132 -0.0021  0.0698 -0.0073
20904W        W41184  13.832  11.564  13.266  0.0027 -0.2673  0.1526
20905W        W41185   6.610   9.437   2.147 -0.0635 -0.0664 -0.1220
20906W        W41186  11.040   6.626   1.206 -0.2309 -0.2469 -0.0533
20907W        W41187  10.444  18.022   2.669 -0.1347  0.0116  0.2050
20908W        W41188   8.863   0.588   0.594  0.0212 -0.1180 -0.0365
20909W        W41189  14.421  16.626  10.634  0.0377 -0.1954  0.0942
20910W        W41190  17.060   2.801  12.555 -0.1491 -0.1174 -0.0441
20911W        W41191   8.938   4.217  12.354  0.1786  0.1067  0.2480
20912W        W41192   4.241   9.661  12.935  0.0783  0.2088  0.0019
20913W        W41193  10.525  14.033  13.895 -0.0558 -0.1066  0.0340
20914W        W41194   1.803  15.868  12.989  0.0363  0.0278 -0.1671
20915W        W41195  17.183   7.721   4.014 -0.3972 -0.0906 -0.2289
20916W        W41196  15.282   5.090   5.658  0.0516  0.1388 -0.1714
20917W        W41197   1.224  11.161   1.713  0.3608 -0.0449 -0.1280
20918W        W41198  14.836   2.605   1.374  0.1092  0.2317  0.0069
20919W        W41199  16.839   5.666  13.381 -0.0633  0.1628  0.1599
20920W        W41200  18.728   2.975   4.096 -0.1376 -0.0692 -0.2727
20921W        W41201  14.103  11.168   1.634  0.2857 -0.1259  0.0204
20922W        W41202   9.547   8.832   2.212 -0.1566 -0.1151 -0.1015
20923W        W41203   2.356  15.737  11.322  0.0710  0.0734  0.0478
20924W        W41204   5.923   1.604  15.349 -0.1742 -0.0697 -0.3166
20925W        W41205  16.044  15.803  13.978  0.1970 -0.0599 -0.2028
20926W        W41206   2.402  11.010  11.136 -0.1178  0.2773  0.3430
20927W        W41207   6.039   6.265   0.098 -0.1253  0.0456  0.0915
20928W        W41208  17.377  11.231   2.334  0.3721  0.0999 -0.1954
20929W        W41209   5.627   7.440   2.254  0.2403 -0.0818 -0.1521
20930W        W41210   4.541  16.141   2.894 -0.0249 -0.3599  0.1642
20931W        W41211   2.931   1.504   0.566  0.2700  0.1985 -0.2016
20932W        W41212   2.066   7.480  14.082  0.1483 -0.2457 -0.1521
20933W        W41213  15.237   1.980   3.170  0.0975  0.0781  0.1363
20934W        W41214  13.552   4.685  14.730 -0.1146 -0.0341  0.2655
20935W        W41215  10.943   1.176   1.459  0.0005 -0.0244  0.0149
20936W        W41216  12.244   8.152  14.202  0.1092 -0.1102 -0.3255
20937W        W41217  11.234  13.083  13.448 -0.0076  0.1728  0.1867
20938W        W41218  10.761  12.003   4.828  0.1323  0.0430 -0.2256
20939W        W41219   2.054  16.288   3.035  0.2183  0.1084  0.4522
20940W        W41220  18.308   2.983   0.473 -0.0798  0.5872  0.0027
20941W        W41221  14.557  17.842   4.296  0.1026 -0.0898 -0.2309
20942W        W41222   0.260   4.049  12.583 -0.1793  0.4296 -0.1016
20943W        W41223   7.678   7.681  11.481  0.0902  0.2836  0.2121
20944W        W41224  13.488   7.111  15.291  0.1524  0.2460  0.0419
20945W        W41225  13.355  16.608   4.397 -0.5610 -0.1439  0.1408
20946W        W41226   5.059   9.790   1.526  0.1436  0.2292  0.0604
20947W        W41227  17.719   4.042   2.473  0.0545  0.0880 -0.2432
20948W        W41228  14.395  14.479   5.598 -0.1292 -0.0569  0.2642
20949W        W41229   5.719   3.982   2.801 -0.2018 -0.0914  0.1614
20950W        W41230  14.276   3.131  13.317  0.1624  0.3294  0.0003
20951W        W41231  17.315  15.961  10.327 -0.0340 -0.0976 -0.0171
20952W        W41232  15.237   9.617   2.282 -0.0146 -0.2398  0.2897
20953W        W41233  10.016  14.598   1.409  0.0722 -0.1903 -0.0368
20954W        W41234   8.472  18.029  14.105  0.0447 -0.1474  0.1897
20955W        W41235   0.737   9.752   3.543  0.0474 -0.2235 -0.0053
20956W        W41236  12.499   0.668   3.222  0.0523  0.1719 -0.0386
20957W        W41237   9.401   9.730  14.332  0.3934 -0.3829  0.2637
20958W        W41238  14.622  12.131   2.164 -0.3196  0.3098  0.1791
20959W        W41239  13.962   7.791   1.517  0.1284  0.0630 -0.0552
20960W        W41240   7.373  18.338   3.228  0.1662  0.0026 -0.1317
20961W        W41241  18.383   0.183  12.697  0.0383 -0.1715 -0.1960
20962W        W41242  14.768   7.569   1.936  0.0539  0.3291  0.1345
20963W        W41243  13.475   7.504   0.228 -0.1036 -0.0506  0.1351
20964W        W41244  15.821   5.128   2.610  0.0144  0.0681  0.1151
20965W        W41245   0.875  13.082   5.498  0.1328 -0.0380 -0.1877
20966W        W41246   4.275   7.867  15.251 -0.1324  0.0250  0.3788
20967W        W41247  10.485   2.816  12.567 -0.0442  0.0854 -0.2862
20968W        W41248   5.694   1.182   2.430  0.0115  0.1911 -0.1928
20969W        W41249   2.698   3.843  13.731 -0.1193 -0.0601  0.0176
20970W        W41250  10.724   3.292   4.086 -0.0674  0.0124  0.0830
20971W        W41251   1.050  14.130   2.695  0.2243 -0.0703  0.0389
20972W        W41252   3.891   1.075  12.663 -0.3226  0.3443 -0.1030
20973W        W41253  16.220  12.943   2.412 -0.1158  0.1063 -0.2053
20974W        W41254   1.585   6.558   3.001  0.0363  0.5972 -0.3180
20975W        W41255  15.912  18.527  15.031 -0.3843  0.0763  0.0817
20976W        W41256   9.243   0.260  14.472  0.1259  0.0861 -0.0197
20977W        W41257   8.831   2.278  12.102 -0.2988  0.0488  0.0892
20978W        W41258  15.797   3.807   0.568  0.1581  0.1023  0.1617
20979W        W41259   4.911   2.669   5.352  0.2279 -0.2024 -0.0497
20980W        W41260  15.501  18.365   0.303 -0.3460 -0.2587 -0.3069
20981W        W41261   9.766  14.209  12.975  0.0237  0.1431 -0.1142
20982W        W41262  16.140   7.678  14.142  0.3918 -0.3424 -0.1899
20983W        W41263  16.655   4.731   2.666 -0.2642 -0.0084 -0.3195
20984W        W41264   6.835  13.896  12.352  0.0446  0.1915  0.0998
20985W        W41265   9.190   9.812  12.011  0.2905 -0.1709 -0.1422
20986W        W41266   0.720   8.724   0.595 -0.0235  0.1425  0.0901
20987W        W41267   3.765   2.345   4.088 -0.0324  0.1484 -0.1758
20988W        W41268   4.419  13.188  15.354 -0.1190 -0.3108  0.0488
20989W        W41269  14.444   4.408   2.044 -0.1341 -0.2669  0.0280
20990W        W41270   3.289   7.803  12.542 -0.0044  0.2323 -0.0173
20991W        W41271  12.650  15.238   2.040 -0.1147  0.0960 -0.0121
20992W        W41272   6.765   9.212   2.685 -0.1239 -0.0025  0.1896
20993W        W41273   5.166   8.234   4.714  0.2474  0.0452  0.3018
20994W        W41274  15.732   6.891  14.412 -0.1385 -0.3436  0.0488
20995W        W41275   1.650  18.257   1.418  0.0561  0.2478  0.0345
20996W        W41276   1.674   9.850   5.451 -0.0580  0.0306 -0.1723
20997W        W41277  17.110  15.073  12.094  0.0561  0.0151 -0.1291
20998W        W41278  18.741  13.394  15.193 -0.1395 -0.2794  0.0188
20999W        W41279  16.707  16.183   3.979 -0.0355 -0.0348  0.0517
21000W        W41280  13.505   0.954  13.947  0.0759 -0.0931  0.0122
21001W        W41281  10.160   3.607  14.955  0.0434  0.1022  0.1626
21002W        W41282   4.040   3.434   0.085 -0.1410  0.0675  0.1676
21003W        W41283  14.523  12.790   0.877  0.1907 -0.1482  0.0824
21004W        W41284   6.697  11.729  14.114  0.0501  0.1902 -0.1521
21005W        W41285  10.547   7.284   2.667 -0.0253  0.1134  0.1117
21006W        W41286  14.888  12.840   1.496  0.2323  0.2002 -0.3344
21007W        W41287  17.245   3.102   3.855 -0.1090 -0.0231 -0.1162
21008W        W41288   0.640  15.145  15.146  0.1630  0.0845  0.0296
21009W        W41289   3.302   4.267   0.460  0.2395 -0.0812  0.0361
21010W        W41290  17.889   2.120   1.410 -0.0836 -0.1848 -0.3048
21011W        W41291   0.800   2.056   3.466 -0.0037  0.1856 -0.1207
21012W        W41292   1.806  10.626   3.835 -0.0728 -0.3772 -0.1753
21013W        W41293  10.079   6.763  12.012 -0.3673 -0.0647 -0.1377
21014W        W41294   4.746   9.520  15.218 -0.2090 -0.3043  0.0552
21015W        W41295   7.868  18.131  11.433 -0.2124 -0.1859  0.0518
21016W        W41296   4.469   9.903  13.324 -0.1663  0.3064  0.0666
21017W        W41297  11.202  14.770  14.156 -0.0532  0.1154 -0.2411
21018W        W41298   9.761  15.146   3.037  0.0121 -0.0598 -0.2328
21019W        W41299   3.691  10.742   2.280 -0.2206 -0.1514  0.0984
21020W        W41300   0.225  12.950   0.033 -0.2371 -0.0673 -0.0193
21021W        W41301  10.046  15.024   3.511 -0.1971  0.2204 -0.3937
21022W        W41302   6.339  15.017  14.448 -0.1584 -0.1994 -0.0531
21023W        W41303   7.909   2.421   1.121 -0.3765  0.0825 -0.2704
21024W        W41304   5.525   7.177  13.209  0.2624  0.2591  0.0860
21025W        W41305  15.733   7.691   4.811 -0.1332  0.0414  0.2364
21026W        W41306  10.005   1.470   2.890 -0.1335  0.3748  0.2358
21027W        W41307  14.685   4.194  14.493  0.2327 -0.0790 -0.0408
21028W        W41308  17.766  18.312   0.323 -0.1682 -0.2809  0.2496
21029W        W41309   9.950  13.316  15.282  0.1530 -0.0092 -0.1507
21030W        W41310  14.249   7.832   0.346 -0.1623  0.1695  0.1570
21031W        W41311   4.643  15.008   4.001  0.1172  0.0826 -0.1395
21032W        W41312   5.340   0.619   1.889  0.6775 -0.0353 -0.0235
21033W        W41313   1.786   8.734  13.318 -0.1945  0.1467  0.2359
21034W        W41314   9.942   0.800  12.212 -0.1942  0.0568  0.0773
21035W        W41315   9.177  12.489  14.496  0.0746 -0.0728 -0.0703
21036W        W41316   1.748   3.693  13.194 -0.2865  0.3404  0.1559
21037W        W41317   1.401   4.089  13.149  0.0965  0.1093  0.0177
21038W        W41318   9.951   4.749   2.183  0.1680 -0.0252 -0.1694
21039W        W41319   0.301  16.389   0.282 -0.0806 -0.0711 -0.0524
21040W        W41320   4.222  12.082  12.373  0.0105  0.0564 -0.2476
21041W        W41321  10.813  12.398   2.679  0.2198  0.2498 -0.2678
21042W        W41322   8.489   8.823  14.625 -0.2728 -0.4152  0.0540
21043W        W41323   3.997  16.036  11.418  0.2649  0.0553 -0.0023
21044W        W41324   5.659   6.255  11.535  0.0054 -0.1998 -0.0914
21045W        W41325   2.678   2.936   0.863  0.0405 -0.4928 -0.2011
21046W        W41326  15.026  18.724   0.404  0.1076 -0.1919  0.1860
21047W        W41327   0.960  14.590  15.344 -0.1473 -0.5016 -0.1541
21048W        W41328  16.829  17.330  15.276 -0.3240 -0.2059  0.1037
21049W        W41329  12.705  10.546   1.660 -0.1273 -0.2400  0.2735
21050W        W41330  14.970  15.373  12.273  0.0837  0.1707  0.1080
21051W        W41331   4.518  12.207  14.801 -0.0804  0.2359 -0.0712
21052W        W41332  13.068   3.984  12.039 -0.1343 -0.0355  0.2605
21053W        W41333   9.417  12.563   0.888  0.0922  0.0475  0.0017
21054W        W41334   9.381   4.823   5.024  0.2112  0.1930 -0.1094
21055W        W41335   2.200  14.617   4.082  0.2952 -0.0369  0.1197
21056W        W41336   3.751   2.845  11.738  0.0513 -0.1896  0.2938
21057W        W41337  17.508   3.637  15.244 -0.2395  0.1420  0.1275
21058W        W41338   7.228   3.164  12.084  0.2864 -0.0187  0.0862
21059W        W41339  14.022  12.540   1.142 -0.1513  0.0001  0.0507
21060W        W41340  11.673  18.223   0.801 -0.1352  0.0060  0.0307
21061W        W41341   7.710  12.152   3.008 -0.2209 -0.0698  0.1779
21062W        W41342  13.336  16.037   3.782  0.2132 -0.1220 -0.3596
21063W        W41343   6.663   9.097  11.384  0.2821 -0.0992  0.0693
21064W        W41344   8.599  12.526  11.202  0.2959 -0.0242 -0.1187
21065W        W41345   8.083  16.835   1.314  0.0977  0.3394  0.0137
21066W        W41346  16.116  12.141  13.333  0.0627  0.0916  0.0810
21067W        W41347  12.912   0.246   1.296  0.2223  0.2569 -0.0337
21068W        W41348  14.608   9.281   5.863  0.1652 -0.1315  0.1041
21069W        W41349   8.153  13.986  14.009  0.0642  0.0878  0.0283
21070W        W41350  15.822   7.650  13.662 -0.2604 -0.2542 -0.2989
21071W        W41351   8.441  10.303   4.603  0.0048  0.1882  0.0488
21072W        W41352  18.549   5.600   2.270 -0.2394  0.1116  0.0636
21073W        W41353   1.017  13.332  12.203  0.1749  0.1092  0.0595
21074W        W41354  17.702   3.037   2.060  0.2906  0.1147  0.1335
21075W        W41355  18.235  12.658  13.681 -0.1775 -0.1014  0.1880
21076W        W41356   2.266  14.688   2.721  0.2343  0.1727 -0.1022
21077W        W41357  16.336  10.163  14.968  0.1057  0.1763  0.2411
21078W        W41358  17.191   6.284  12.780  0.1615  0.0175 -0.0853
21079W        W41359   0.479   5.754   0.488 -0.1912 -0.1030  0.2759
21080W        W41360   3.445   9.289   2.155  0.0930 -0.0335  0.2619
21081W        W41361   6.018   3.367  15.293 -0.0359  0.3612 -0.1053
21082W        W41362   9.360   0.194   4.281 -0.1530  0.0295 -0.2070
21083W        W41363  13.157  12.779  10.598  0.1750  0.1454  0.3648
21084W        W41364   8.010  15.838  14.040  0.1262 -0.0587  0.2506
21085W        W41365   4.894  16.082   3.279 -0.1399  0.0130 -0.3068
21086W        W41366  16.000  10.008   3.484 -0.2452  0.3660  0.0370
21087W        W41367  17.786  10.330  12.870 -0.2503  0.0628  0.0348
21088W        W41368   0.683  13.424   3.127  0.0061  0.0170 -0.1505
21089W        W41369   0.250   2.845   1.140  0.1902 -0.0219  0.0963
21090W        W41370   3.695  17.285   1.212  0.1451 -0.2688 -0.0884
21091W        W41371  12.844   3.122   1.100  0.0919 -0.0329 -0.0347
21092W        W41372  17.409   1.429  11.488  0.1929  0.1291  0.0986
21093W        W41373  13.782   4.597   0.609 -0.0035 -0.0323 -0.2332
21094W        W41374   7.803   5.161   0.442  0.1313 -0.0359  0.2953
21095W        W41375   9.168   7.552   0.488 -0.0025 -0.0889  0.3583
21096W        W41376   0.312   1.638   3.401  0.0747 -0.0094  0.0334
21097W        W41377  18.714   3.166   2.667 -0.0969 -0.1889  0.1024
21098W        W41378   6.480   6.248   3.390  0.0556 -0.0835  0.2837
21099W        W41379  16.811  16.198  12.318 -0.0713 -0.2250  0.1980
21100W        W41380  14.476  16.546  12.214 -0.1273 -0.0310 -0.0873
21101W        W41381  16.287   6.084  14.233 -0.2465  0.0069  0.0141
21102W        W41382   4.458  15.485   1.501 -0.0708  0.0275 -0.2665
21103W        W41383  16.200   2.603   3.621  0.1443  0.0833 -0.1176
21104W        W41384  12.977   1.082  13.871 -0.2123  0.0406 -0.1906
21105W        W41385  18.632  17.075  13.957  0.1098 -0.3618 -0.2564
21106W        W41386  13.531  18.645   2.363 -0.1275  0.1577 -0.0308
21107W        W41387   3.708  16.784   1.251  0.0111  0.0468  0.1686
21108W        W41388  13.273   6.596   2.415  0.1390  0.3025 -0.3169
21109W        W41389   1.991   7.031  14.875  0.0269 -0.0581  0.0860
21110W        W41390   5.582  14.338  10.465  0.0982  0.0009  0.1348
21111W        W41391  14.799   3.985   0.214 -0.0161  0.2044 -0.0084
21112W        W41392   4.897   3.078   2.409  0.0218  0.0740 -0.3400
21113W        W41393  15.397  15.110  13.752  0.0586  0.2218 -0.1965
21114W        W41394   5.524   1.538  14.510  0.0318  0.0613  0.0714
21115W        W41395   4.524   0.091  12.593 -0.0181 -0.0591  0.0425
21116W        W41396  17.314  13.643   3.793 -0.1437 -0.4353 -0.0748
21117W        W41397  12.911   9.944  11.849  0.1125 -0.2043 -0.1196
21118W        W41398   4.321  14.794   3.478  0.0948  0.1255 -0.1535
21119W        W41399   0.628  17.549  14.119 -0.1206  0.2240 -0.1878
21120W        W41400   4.434   2.495   0.773  0.2352  0.0612 -0.0173
21121W        W41401   0.170   7.250   3.007 -0.1227  0.0879  0.0281
21122W        W41402   5.261  12.669  11.568 -0.0164  0.1919 -0.0112
21123W        W41403  17.898  15.517  11.986 -0.3344  0.0773 -0.1190
21124W        W41404   0.985   0.099  12.480  0.4440  0.0353  0.2210
21125W        W41405  15.971  15.796   4.561 -0.1491 -0.1365  0.3025
21126W        W41406   0.873   6.227   1.727  0.0755  0.1582  0.0656
21127W        W41407   4.129   6.348   0.869  0.2207 -0.1302 -0.1584
21128W        W41408   8.724  15.636  11.884  0.1804  0.3599  0.0125
21129W        W41409   0.998  15.618  13.859 -0.0633 -0.0779  0.1260
21130W        W41410   9.541  18.172   2.947 -0.0375  0.0010 -0.0847
21131W        W41411   3.117  16.052  12.449  0.1206 -0.2178  0.0153
21132W        W41412  10.139  16.844   0.574  0.0166 -0.1997  0.1183
21133W        W41413   8.887  13.960   0.542  0.1987 -0.2062 -0.1279
21134W        W41414   6.456   6.873  13.924 -0.0046 -0.2030  0.0289
21135W        W41415   0.237   6.169   0.358 -0.1620 -0.1766  0.0160
21136W        W41416   5.224  13.820   1.310 -0.2518 -0.0902 -0.0529
21137W        W41417  18.725  10.188   1.913  0.3972 -0.0328  0.2165
21138W        W41418   3.451  16.717   0.279 -0.2507 -0.0797 -0.0016
21139W        W41419   1.609  11.789   2.899 -0.0324  0.1478  0.1269
21140W        W41420  16.393   2.578  10.712  0.2167  0.0609 -0.0039
21141W        W41421  11.768   8.658   5.168  0.2330 -0.0109 -0.0001
21142W        W41422   9.255   2.803  13.133  0.0063  0.2194  0.2433
21143W        W41423  10.989   3.019   0.552 -0.0462 -0.0739  0.1251
21144W        W41424  17.669   9.959  13.285  0.2009 -0.1251  0.1595
21145W        W41425   1.231  17.774   3.258  0.0139  0.1106 -0.0107
21146W        W41426   1.690  14.844   4.302  0.0373  0.2662 -0.1136
21147W        W41427   7.065   2.145  14.875  0.0068 -0.4492 -0.0963
21148W        W41428   0.448  12.089   4.115 -0.1292 -0.0765  0.2752
21149W        W41429   5.377   9.920  14.836  0.2764  0.2031 -0.0724
21150W        W41430   3.581  10.854   1.297 -0.1811 -0.1519  0.2950
21151W        W41431   6.273  12.341   2.126 -0.2195 -0.0883  0.0567
21152W        W41432   9.836  13.298  13.645 -0.1136  0.2265  0.3747
21153W        W41433   5.864  15.132   3.032 -0.0430 -0.0441  0.1960
21154W        W41434   2.637  12.753  14.924 -0.3301 -0.0973  0.0757
21155W        W41435   0.762  13.355   1.342  0.0177 -0.0124 -0.0769
21156W        W41436   4.249   5.853   9.920  0.0197 -0.1121  0.1868
21157W        W41437  16.525  16.735  13.964 -0.1129 -0.2232 -0.1223
21158W        W41438   8.759  10.211  14.742 -0.0862  0.0885  0.4070
21159W        W41439   4.444   4.547  10.787 -0.1046  0.0675  0.0998
21160W        W41440   1.412   3.489  11.412 -0.4525 -0.0849 -0.2478
21161W        W41441   3.701   0.418   0.835  0.2131 -0.1253  0.1343
21162W        W41442  13.715   8.481  14.500 -0.1829  0.1145 -0.1527
21163W        W41443  12.014  14.123   3.507 -0.0175  0.2663 -0.0315
21164W        W41444   0.613   4.473   4.276  0.2442 -0.1265  0.1507
21165W        W41445   2.565  10.579   0.904  0.0665  0.0398 -0.0023
21166W        W41446   5.987   5.836   2.205 -0.0630  0.1285  0.0436
21167W        W41447   1.973  18.093   2.866  0.2905 -0.0122  0.2427
21168W        W41448   9.169  12.936   2.016 -0.0585  0.1778  0.1029
21169W        W41449   8.763   6.222   1.976 -0.0527 -0.2201  0.0899
21170W        W41450  10.328  12.940   0.883 -0.0335  0.2844  0.0682
21171W        W41451   4.769  17.159  14.973  0.0284  0.0665 -0.0400
21172W        W41452  13.904   1.192   2.404 -0.1005 -0.2059 -0.1039
21173W        W41453  11.537  16.136  10.106  0.1263 -0.2028 -0.2777
21174W        W41454  15.003   4.424   3.191 -0.2139 -0.1021  0.1535
21175W        W41455  17.106  16.903  15.193 -0.1448 -0.2279 -0.0916
21176W        W41456  12.500   3.196   3.176 -0.1645  0.0602 -0.0486
21177W        W41457  12.893   0.478  12.893  0.0345 -0.1071 -0.2310
21178W        W41458  13.734  17.696   3.422 -0.2256 -0.0688  0.1493
21179W        W41459  14.457   0.316  14.380 -0.0226  0.2400 -0.1467
21180W        W41460   0.781  15.866  13.491  0.0875 -0.1255 -0.0369
21181W        W41461   8.492  17.393  11.739 -0.0320  0.0966 -0.0684
21182W        W41462   3.360   3.176  12.574  0.1571 -0.1283  0.3210
21183W        W41463  10.362  11.849  10.835 -0.1066  0.2384 -0.2903
21184W        W41464  11.418  14.314  14.871 -0.3221  0.2556 -0.0428
21185W        W41465   1.064  15.236  14.296 -0.0805 -0.1248  0.1569
21186W        W41466   5.615   8.492   3.064 -0.1031  0.1062 -0.0058
21187W        W41467   5.362   2.497  12.112  0.1038 -0.0962 -0.1274
21188W        W41468   6.323  18.629  13.021  0.1181 -0.0202  0.1987
21189W        W41469  15.775   3.751   3.052 -0.0647  0.2709  0.0257
21190W        W41470  12.074  12.804   2.150 -0.1833  0.2018  0.3462
21191W        W41471  12.242  12.131   2.532  0.1057 -0.1467 -0.1342
21192W        W41472  15.499  16.952   3.759  0.3135 -0.0007 -0.2970
21193W        W41473   9.564   7.650   0.786 -0.0407 -0.2748 -0.0310
21194W        W41474  15.858  13.937   2.166  0.2869  0.0430  0.1851
21195W        W41475   3.122   0.235   3.919 -0.0847 -0.1441  0.1199
21196W        W41476  13.743  13.821  14.823  0.0793 -0.0846  0.1913
21197W        W41477   5.081   5.975   3.428 -0.0463 -0.0437 -0.0861
21198W        W41478   5.534  17.836   3.271 -0.0137  0.1386  0.0548
21199W        W41479  14.507  13.551   3.332  0.2101  0.1076  0.1883
21200W        W41480  18.476  10.054   1.521 -0.0121  0.1536 -0.2191
21201W        W41481  15.569  11.403  13.318 -0.1914  0.0188  0.3261
21202W        W41482  15.048   2.280   0.292  0.3206 -0.2741 -0.2025
21203W        W41483  17.203   3.369   1.829 -0.2355 -0.1173  0.2012
21204W        W41484   1.118   1.121   3.574 -0.3767 -0.2397 -0.0763
21205W        W41485   7.352   4.299  12.950 -0.0062 -0.1087 -0.1149
21206W        W41486   1.185  11.459   0.769  0.2478  0.1566  0.0567
21207W        W41487  13.779  10.832   0.663  0.2193  0.0165 -0.1391
21208W        W41488  14.649   3.155  14.204 -0.0797  0.2642  0.3436
21209W        W41489   5.673  11.068   2.682  0.4177 -0.1756  0.0239
21210W        W41490   9.804  15.551   2.814  0.0433  0.1793 -0.3298
21211W        W41491   9.535  18.034  12.183 -0.5099 -0.2288  0.0208
21212W        W41492  17.366   4.579   0.062 -0.0226  0.0741 -0.1892
21213W        W41493  15.732   4.107  14.032  0.0652  0.1642  0.2013
21214W        W41494   3.126   9.431   4.161  0.3367  0.0347  0.0729
21215W        W41495  12.110  16.677   3.911  0.0584  0.0424  0.3900
21216W        W41496  11.964  17.377  13.643 -0.1113 -0.0254 -0.2908
21217W        W41497  15.443   6.600   4.605  0.1383 -0.2048 -0.3668
21218W        W41498  10.849  15.502   4.973 -0.1925 -0.0843 -0.1612
21219W        W41499   2.483   3.131  14.725 -0.2086  0.0262  0.2656
21220W        W41500   1.053  10.440   2.567  0.1678 -0.1066  0.0954
21221W        W41501  16.340   0.260   1.446  0.3144 -0.0359  0.0015
21222W        W41502  11.654  14.759   4.747 -0.0680 -0.3386  0.3862
21223W        W41503  12.782   7.301   1.463  0.1229 -0.0731  0.0581
21224W        W41504   2.134  15.060  13.200 -0.0880 -0.1122 -0.1316
21225W        W41505  17.453   0.284   3.655 -0.1520  0.2098  0.2945
21226W        W41506  13.753   6.032   3.052 -0.0104  0.1003  0.2772
21227W        W41507  16.611   0.459  13.242  0.2366 -0.3003  0.1367
21228W        W41508   0.929   7.715   1.563  0.0866  0.3609  0.1379
21229W        W41509   3.663   9.559  12.741 -0.2418 -0.2714  0.0304
21230W        W41510   2.825   6.078   1.280  0.3284 -0.1738 -0.2392
21231W        W41511   4.478   7.625   1.389 -0.1205  0.1304  0.2559
21232W        W41512   9.192  15.862   0.069  0.2470  0.0786 -0.1711
21233W        W41513  15.792   2.607   1.864 -0.1804 -0.1017 -0.0941
21234W        W41514  17.318  10.643  14.089  0.2380 -0.1070  0.1982
21235W        W41515  12.305   3.117  14.755 -0.1115 -0.0690 -0.0504
21236W        W41516  17.996   7.074  12.334 -0.0052  0.1911 -0.0989
21237W        W41517  11.346   2.333   1.761 -0.1802  0.0693  0.1957
21238W        W41518   7.931  15.471  14.378 -0.0626 -0.2636 -0.0783
21239W        W41519   5.976   9.722   3.866 -0.1133  0.1966 -0.1963
21240W        W41520  14.480   0.345   3.957 -0.0978 -0.1769  0.0705
21241W        W41521   6.703  14.889   0.245 -0.0965 -0.2490  0.0176
21242W        W41522  18.339  12.669  14.630  0.0314 -0.0865 -0.0569
21243W        W41523  18.189  11.195  12.940 -0.2213  0.2709  0.1714
21244W        W41524   5.023  16.849   0.117  0.3062  0.1753 -0.1177
21245W        W41525  17.549   7.845   3.310  0.0249  0.0781  0.8025
21246W        W41526   4.692   8.745  12.982 -0.0983 -0.0841 -0.0988
21247W        W41527   8.229   2.427  11.090 -0.0168  0.0269 -0.0210
21248W        W41528  18.401  14.990  15.077 -0.1120  0.1048 -0.1037
21249W        W41529  14.606   7.942  11.699 -0.3170  0.1411  0.3630
21250W        W41530  12.811  16.209  14.782  0.0800  0.1673  0.5044
21251W        W41531  11.343  16.563  12.428  0.2188  0.1907  0.0948
21252W        W41532  15.877   6.369  12.426 -0.2414 -0.3201 -0.0773
21253W        W41533   7.205   5.271  14.480  0.0423 -0.0980  0.0466
21254W        W41534  13.118   1.957   3.467 -0.1284  0.0064  0.1079
21255W        W41535   7.172  17.395  14.548  0.1416 -0.1445 -0.3263
21256W        W41536  17.833   0.880   3.516  0.0868  0.0317 -0.1746
21257W        W41537   4.182  10.577   0.087 -0.0414 -0.2255  0.2229
21258W        W41538   1.883   6.949   9.755  0.0937 -0.3743 -0.1315
21259W        W41539  11.076  15.534  13.544  0.3503  0.0023  0.0409
21260W        W41540  16.172   8.570  12.488 -0.0363  0.0013  0.0270
21261W        W41541   5.614   6.840  11.588 -0.3483  0.1250 -0.0842
21262W        W41542  14.851  14.375  12.514 -0.0107 -0.1029  0.1363
21263W        W41543  11.483  14.508   0.959 -0.0549 -0.0635 -0.1423
21264W        W41544  10.870   8.728  14.231  0.2232  0.1437  0.0125
21265W        W41545   6.530   9.694   0.616  0.1920 -0.1502  0.0683
21266W        W41546   6.086  12.755   3.580  0.0598  0.1368  0.0226
21267W        W41547  14.069  14.337   3.421  0.1678 -0.0488  0.4287
21268W        W41548  12.234  14.279  12.688 -0.0587  0.0045  0.1627
21269W        W41549  13.240  13.231  10.890 -0.1470 -0.1846  0.2555
21270W        W41550  13.013  13.470   0.160 -0.1005  0.1024  0.2916
21271W        W41551   9.712   2.990   3.055  0.0926 -0.1526 -0.1111
21272W        W41552   2.861   9.326   0.401  0.0448 -0.0221 -0.3320
21273W        W41553   0.116   5.140   4.002 -0.1564  0.0831  0.0007
21274W        W41554   0.332  13.783   1.360  0.2479 -0.2887  0.1782
21275W        W41555  14.364   6.298  12.868  0.3159  0.0760 -0.2342
21276W        W41556  18.482  14.376   1.135  0.0258 -0.0349  0.1319
21277W        W41557   1.291   3.992   2.440 -0.3354  0.0043  0.2588
21278W        W41558  12.510   7.739   3.883  0.2614 -0.0592  0.0011
21279W        W41559   5.469  12.575  15.271  0.0553  0.2510 -0.0068
21280W        W41560  16.937   6.806   0.705  0.2536 -0.1556  0.1892
21281W        W41561   6.616   8.832  15.003  0.1367 -0.2078  0.0001
21282W        W41562   5.245   5.184   1.858 -0.0685  0.2662  0.4168
21283W        W41563   3.280  12.480   0.219 -0.0960 -0.1233 -0.0298
21284W        W41564   2.382   9.854  13.019  0.0462 -0.0306 -0.2104
21285W        W41565   8.811  14.087  13.994 -0.0792  0.4198  0.2902
21286W        W41566   0.117   3.572  12.369  0.1516 -0.1101 -0.4041
21287W        W41567  13.989   2.915   1.066 -0.0143 -0.0251 -0.2487
21288W        W41568   8.191   9.229   4.831 -0.1371 -0.0371 -0.3017
21289W        W41569   2.402   3.741  14.136  0.1039 -0.0661 -0.0567
21290W        W41570   8.014   8.247  13.562  0.1883  0.0119  0.1584
21291W        W41571  11.875   3.178  15.184 -0.2976 -0.0172 -0.1319
21292W        W41572  11.248  17.827   3.758 -0.2157 -0.0168  0.0500
21293W        W41573  15.222   1.614   2.707 -0.2788  0.0824 -0.1224
21294W        W41574   9.471  12.940  14.430 -0.0053  0.0656  0.1238
21295W        W41575  13.169  11.278  13.623  0.1064 -0.3852 -0.0765
21296W        W41576  16.324  10.660  13.638 -0.0197 -0.3147  0.3657
21297W        W41577   8.181   9.674   3.713  0.0365  0.0481 -0.1535
21298W        W41578   9.963   5.089   0.780  0.1358  0.0543 -0.1462
21299W        W41579   1.308  15.222  11.873 -0.3839 -0.0066 -0.1090
21300W        W41580   0.153   8.204  14.144  0.2921  0.1192 -0.0219
21301W        W41581  11.795   4.810  15.152 -0.1343 -0.2943 -0.0849
21302W        W41582   1.369  14.172  13.839  0.0790 -0.0051  0.0410
21303W        W41583   3.740   8.316   0.477 -0.0428 -0.2870  0.2469
21304W        W41584   3.960   9.877  12.540 -0.0636 -0.3453  0.0578
21305W        W41585  10.339   1.617  13.567  0.0751 -0.4204 -0.0361
21306W        W41586  13.567   7.915  14.349  0.0228  0.1708  0.0133
21307W        W41587   9.173   7.516   2.603  0.0425  0.3038  0.2400
21308W        W41588  12.504  15.426  12.949 -0.6216 -0.1105  0.1128
21309W        W41589  16.174   9.377  11.722  0.0817 -0.1254  0.0649
21310W        W41590  12.167   5.996   2.577 -0.2560  0.1454  0.1221
21311W        W41591  11.388  14.784  13.015 -0.1660  0.1210  0.1358
21312W        W41592   1.807   1.121   2.686 -0.1853 -0.0270 -0.1207
21313W        W41593   3.204   5.274   3.978  0.2539 -0.1029 -0.0199
21314W        W41594   9.913  18.595  12.605  0.0501 -0.1277 -0.1933
21315W        W41595   2.485   3.604  13.082 -0.1350 -0.0048  0.1422
21316W        W41596   6.876  17.625   3.888 -0.1379  0.0237 -0.1966
21317W        W41597   2.682  12.319  14.684  0.0670  0.1388 -0.0660
21318W        W41598  14.040   9.094   4.519  0.3711  0.0632 -0.0734
21319W        W41599   3.437  12.752  14.429 -0.1597  0.2382  0.0169
21320W        W41600  11.822   0.730   3.835 -0.0279 -0.1746  0.0244
21321W        W41601   1.315   6.564  14.548  0.0406 -0.1416 -0.2851
21322W        W41602   9.144  10.623   2.073 -0.0786  0.0634 -0.0145
21323W        W41603   9.125   0.220  11.020 -0.4226 -0.2396 -0.0883
21324W        W41604  12.917  16.114   5.222 -0.2224  0.0718 -0.0716
21325W        W41605  16.798  14.437   0.464 -0.0249 -0.0072  0.1205
21326W        W41606   0.418  12.695   2.418  0.0982  0.2373 -0.1769
21327W        W41607  15.282  12.500   0.219 -0.1011  0.0509 -0.3796
21328W        W41608  17.590  17.711  14.619  0.0431 -0.0864 -0.0150
21329W        W41609   1.157   8.648  14.653 -0.4422  0.1061  0.0193
21330W        W41610  14.544  11.071   2.405  0.0328 -0.0830  0.2693
21331W        W41611   6.441  16.051   2.046 -0.1466  0.4136 -0.2832
21332W        W41612  16.479   7.249   2.288  0.0195  0.0843  0.3955
21333W        W41613   3.956  12.573  11.783 -0.3825  0.1470  0.1591
21334W        W41614   1.018  13.536   3.499 -0.1356  0.1440 -0.1216
21335W        W41615   8.944   3.249  11.623  0.0929  0.1052 -0.1003
21336W        W41616   1.137   0.074  14.137  0.1938 -0.1722  0.1082
21337W        W41617   4.089  10.826  12.575 -0.2697  0.0585 -0.2012
21338W        W41618  14.395  15.559  11.597  0.1504 -0.0675  0.0420
21339W        W41619  12.592   4.006   0.656 -0.1460 -0.4269  0.0837
21340W        W41620  10.990  15.427  12.255  0.2577 -0.0305  0.0893
21341W        W41621  15.479   8.403   1.842  0.0479  0.1585 -0.2001
21342W        W41622   9.680  17.618  11.834  0.1859 -0.0961  0.1954
21343W        W41623   0.777   3.810  13.854  0.1315  0.2457 -0.1693
21344W        W41624   4.897   5.122  13.009 -0.2136 -0.0751  0.0627
21345W        W41625  13.960  13.694  13.914 -0.0649 -0.0802 -0.0912
21346W        W41626  15.548  16.218   4.328  0.0278 -0.1551  0.0161
21347W        W41627  15.368   6.814  13.960 -0.3036 -0.1037  0.1408
21348W        W41628  13.675   2.306  12.553 -0.2453 -0.1469 -0.0076
21349W        W41629  10.655  14.228  14.506  0.1877 -0.1445  0.3550
21350W        W41630   6.764   3.898  12.378  0.2596  0.0822 -0.1203
21351W        W41631   1.460   4.469  13.564  0.2320 -0.1336 -0.1183
21352W        W41632   6.249   5.088   0.578  0.1722 -0.1449  0.0354
21353W        W41633   4.272  11.978   1.820 -0.0223  0.0781 -0.0014
21354W        W41634  10.218   7.005   3.525 -0.0208 -0.2154  0.2425
21355W        W41635  16.529  17.594   2.391  0.0927  0.1765  0.0541
21356W        W41636   6.885  16.085  12.565  0.1746  0.3056 -0.0081
21357W        W41637   4.429   7.521  11.825  0.0459 -0.0410  0.1352
21358W        W41638  11.758  17.168   1.359  0.1904  0.1630 -0.1443
21359W        W41639   6.642   1.089   0.008 -0.2465 -0.0675  0.2560
21360W        W41640   7.455  12.462  12.307  0.0538 -0.0860 -0.0922
21361W        W41641   8.000  18.345   0.012 -0.0071  0.1158 -0.0876
21362W        W41642  11.221   0.443  11.699 -0.1321 -0.0987 -0.1212
21363W        W41643   8.437   9.638  13.030  0.2839  0.1045 -0.1249
21364W        W41644   9.142   4.559  12.014  0.4245 -0.1662  0.2536
21365W        W41645   7.037   1.266   2.391 -0.0064 -0.0523  0.0906
21366W        W41646  17.345   6.291  15.143 -0.0724 -0.2079 -0.3553
21367W        W41647   5.704   8.760  11.317 -0.0232 -0.2031 -0.0423
21368W        W41648   6.463   6.597   2.461  0.0613 -0.0318  0.1809
21369W        W41649   1.178   1.330   9.630  0.4461  0.0031 -0.3096
21370W        W41650  15.406  15.708   1.517  0.0018 -0.0281  0.0379
21371W        W41651   8.418   3.197   3.151 -0.1372 -0.1822  0.1930
21372W        W41652  11.523  10.248   3.233 -0.0094 -0.1388 -0.0084
21373W        W41653   2.730  16.035   2.726  0.4086  0.3000  0.2112
21374W        W41654   6.082   7.726   4.227  0.2438  0.0428 -0.2745
21375W        W41655  17.940  14.331   4.180 -0.0992 -0.3977  0.1141
21376W        W41656  10.396   6.794   0.316  0.0080  0.2945  0.0379
21377W        W41657   1.667  12.309   3.226 -0.0191  0.1103  0.1678
21378W        W41658  15.779  10.354  14.961 -0.0919  0.3259  0.0191
21379W        W41659   3.887  10.872  13.394  0.2231  0.1791 -0.1733
21380W        W41660   2.944  17.588   0.469  0.2763 -0.1854 -0.1695
21381W        W41661   6.790  17.250   2.837  0.0545  0.1979  0.1875
21382W        W41662   3.141   3.172   3.914  0.1689 -0.4893  0.1549
21383W        W41663  12.570   8.228   2.957  0.1186 -0.0981 -0.0613
21384W        W41664  14.399   9.523   3.694 -0.1198 -0.2098 -0.0056
21385W        W41665  10.144   9.028  12.558  0.0193  0.1686 -0.1608
21386W        W41666  16.411   9.219   4.496  0.1528 -0.4117 -0.2126
21387W        W41667  14.232   9.297   0.652  0.1263 -0.0823  0.3036
21388W        W41668   9.709   0.233  14.211 -0.0510  0.1103 -0.0968
21389W        W41669  18.417  16.531  14.780  0.1299 -0.1379  0.3359
21390W        W41670  15.749   8.665  13.334  0.2279 -0.0026 -0.0995
21391W        W41671  16.670   2.091   1.563 -0.1292 -0.0847 -0.1198
21392W        W41672   3.802  12.826  10.972  0.0802 -0.0370 -0.1456
21393W        W41673  16.152  14.909  14.487 -0.0879 -0.0245  0.0108
21394W        W41674   0.875  15.103  13.846  0.2173 -0.1144 -0.2998
21395W        W41675   0.151   8.117  11.407 -0.1192 -0.3191  0.2497
21396W        W41676  12.029  13.124  12.778  0.1053  0.1827 -0.2311
21397W        W41677   4.524   4.747  14.612 -0.1061  0.1229 -0.2336
21398W        W41678   7.983  13.200  11.128 -0.3240  0.2784 -0.2216
21399W        W41679   4.461   1.084   1.551  0.0966 -0.2514 -0.3135
21400W        W41680  10.519  13.665  11.157 -0.0181  0.2490  0.0177
21401W        W41681   6.417   8.486  13.408  0.1819 -0.0384  0.2547
21402W        W41682   8.770   2.355   1.045 -0.2336 -0.0157 -0.0502
21403W        W41683  17.143   1.812  13.548  0.2966  0.1656 -0.1692
21404W        W41684  13.934   1.532   2.803  0.1994  0.1237  0.0465
21405W        W41685   6.550  15.856  13.856 -0.1574  0.0106  0.1493
21406W        W41686   0.484  11.205  14.501  0.0108 -0.1087  0.0246
21407W        W41687  11.547  10.948   1.306 -0.1325 -0.0753  0.2286
21408W        W41688  17.905  18.505  14.549  0.3295  0.1161 -0.1269
21409W        W41689  11.336   2.103   3.067  0.1705 -0.1883 -0.1861
21410W        W41690   0.441  18.328  13.613  0.0215  0.2710  0.1174
21411W        W41691   0.042  14.080  11.387  0.0156 -0.0202  0.0948
21412W        W41692   4.299  11.852   0.340  0.0114  0.0235  0.0240
21413W        W41693   0.994   5.913  13.857  0.0625  0.0780 -0.1813
21414W        W41694   2.192   9.991   2.618 -0.1331  0.4996 -0.1679
21415W        W41695   7.503   5.990   0.284  0.1478  0.0594  0.4583
21416W        W41696   2.245   4.193  13.905  0.2050  0.0217 -0.0987
21417W        W41697   9.426  12.263   0.437  0.0271 -0.1864 -0.0620
21418W        W41698   1.515  17.368  14.159  0.2774  0.4687 -0.0616
21419W        W41699  15.196  14.376   2.672  0.1781 -0.0461  0.2231
21420W        W41700   9.487  11.063  12.207 -0.0147  0.1541 -0.1253
21421W        W41701   0.205   0.260   1.707  0.2434  0.4724  0.0568
21422W        W41702  15.681   3.883  15.255 -0.0428 -0.0156 -0.3157
21423W        W41703  17.142  10.367   0.118 -0.1143  0.0186  0.0746
21424W        W41704   6.621  18.659   3.181 -0.2333  0.1425 -0.4114
21425W        W41705   3.441   0.986  10.662 -0.1166  0.0961  0.0305
21426W        W41706  16.933   9.405   3.135  0.2791 -0.2068  0.0514
21427W        W41707   4.995  17.584  12.871 -0.2612 -0.0411 -0.0863
21428W        W41708  11.516   1.471  12.395  0.0243 -0.0849  0.0598
21429W        W41709  11.044   9.069  13.185  0.4280 -0.0880 -0.0808
21430W        W41710   6.193  11.724  14.046  0.0114  0.3986  0.1683
21431W        W41711  15.242   5.279   0.962 -0.0566 -0.1372 -0.1718
21432W        W41712   2.078  11.053  11.574 -0.0874  0.2148  0.0918
21433W        W41713  13.405   8.913   1.130  0.1973  0.0673 -0.1733
21434W        W41714  16.931   5.934   2.182  0.0800 -0.1378  0.0721
21435W        W41715  15.144   1.352  12.860  0.0926  0.1759 -0.0162
21436W        W41716  13.542   2.816   0.493 -0.1442  0.2023  0.2414
21437W        W41717   1.801   7.508   1.298  0.0150  0.0091  0.0088
21438W        W41718   3.693   3.476  13.918 -0.0529  0.1519 -0.2760
21439W        W41719   0.700   4.740  12.098  0.1725  0.0352  0.0783
21440W        W41720   1.972   5.758   1.701 -0.2013  0.4650 -0.3823
21441W        W41721   3.439  15.558   2.514 -0.1520 -0.0223 -0.1078
21442W        W41722   9.150   8.886   0.732 -0.2908  0.1408  0.3208
21443W        W41723  15.164   9.900   4.227  0.0584  0.2202 -0.1952
21444W        W41724   5.922   3.925   0.030 -0.1191  0.0976  0.0229
21445W        W41725   3.319   8.776  12.967 -0.1588 -0.1125  0.0573
21446W        W41726  15.149  18.124  13.245 -0.0017  0.1359 -0.1899
21447W        W41727  14.677  17.065   4.833 -0.1456  0.1934 -0.2452
21448W        W41728   3.547   4.617   0.689  0.1526 -0.2531  0.2852
21449W        W41729  17.651  11.988   2.750  0.2453 -0.0513 -0.1277
21450W        W41730   5.786   3.915   1.759  0.1534 -0.1187  0.1068
21451W        W41731  18.289   4.935   1.364 -0.2326  0.0370 -0.1562
21452W        W41732  12.765  14.944  12.957  0.3215  0.0974 -0.0275
21453W        W41733  14.062   5.681  11.553 -0.1362  0.1086  0.1721
21454W        W41734  10.710  13.559  13.870  0.2193  0.1878 -0.2010
21455W        W41735  17.979   1.778   1.793 -0.1792  0.1029 -0.2579
21456W        W41736  16.582   3.910  13.503  0.1912 -0.0425  0.1013
21457W        W41737   0.468  17.582  13.178  0.3191  0.0081  0.2315
21458W        W41738  15.128   4.521   0.872 -0.1138 -0.1356 -0.0649
21459W        W41739  15.769   3.243   0.689  0.2261  0.0666 -0.3387
21460W        W41740   1.537   0.378  14.507  0.0121 -0.1559  0.1211
21461W        W41741  16.651  17.629   1.911  0.1597 -0.0416  0.0277
21462W        W41742   4.739  13.785  12.192  0.2325 -0.0411  0.1710
21463W        W41743   4.786  14.740   3.617 -0.1788 -0.1631  0.3006
21464W        W41744  13.995  17.465  12.199  0.1298 -0.0581 -0.0928
21465W        W41745   2.384  11.307  13.748 -0.3595  0.0890 -0.0687
21466W        W41746   2.008  12.337  12.329  0.0252  0.1533 -0.0083
21467W        W41747   8.023   0.408  13.442  0.0454 -0.1404  0.3338
21468W        W41748  13.638   2.246   2.327  0.0824  0.1333  0.1909
21469W        W41749  18.254  18.528  14.866 -0.0919 -0.3332  0.0962
21470W        W41750  11.137  16.227  15.376 -0.0119  0.0672 -0.0741
21471W        W41751  12.142  10.998   3.387  0.0890  0.0979 -0.0354
21472W        W41752   7.368  10.713  12.492  0.0868 -0.2416  0.1043
21473W        W41753  14.471   1.329  13.360 -0.0751 -0.0532  0.1514
21474W        W41754  10.855   0.504   3.903  0.1446  0.3512 -0.1296
21475W        W41755   2.814  11.801   2.625 -0.3537  0.1184  0.1267
21476W        W41756  13.585   0.876   2.775 -0.3211 -0.2232  0.3183
21477W        W41757   6.039  17.699  12.809 -0.1549 -0.1486  0.0943
21478W        W41758   9.622   0.464   2.587  0.2105 -0.1335 -0.0701
21479W        W41759   5.103   9.228  10.937  0.3736  0.1491  0.0786
21480W        W41760  11.676  14.808   2.825 -0.1191 -0.1090 -0.2298
21481W        W41761   5.589   6.605   0.179 -0.2090 -0.1971  0.2769
21482W        W41762   6.335  16.280  13.025  0.2211  0.1801 -0.0655
21483W        W41763   9.346   4.084  14.860 -0.2424  0.1006  0.2648
21484W        W41764   6.836   0.689   1.519  0.1365 -0.0753 -0.0839
21485W        W41765   0.062  12.209   3.793 -0.0626 -0.1115 -0.1492
21486W        W41766   6.913   7.904   2.280  0.2607  0.1300 -0.1783
21487W        W41767   8.354   7.764  12.646 -0.0733  0.2466  0.2266
21488W        W41768   7.129   6.546   2.798 -0.1243 -0.1668  0.1312
21489W        W41769   7.230   5.588  12.394 -0.5207  0.0075 -0.0775
21490W        W41770   2.615   2.282  13.031  0.1896 -0.0606 -0.0248
21491W        W41771  13.073   1.256   3.912  0.1315  0.2305 -0.1062
21492W        W41772   5.558   0.477   0.772  0.2153  0.0048  0.0053
21493W        W41773   1.096  14.628   0.578  0.0469 -0.0155 -0.0264
21494W        W41774  11.302   0.084  11.338 -0.0517  0.1402  0.1742
21495W        W41775   0.429  12.828  13.991  0.0067 -0.0737  0.0671
21496W        W41776  15.518   6.137   1.099 -0.0796  0.2672  0.0813
21497W        W41777   1.258  15.262   0.319 -0.1190  0.0360 -0.0649
21498W        W41778   6.238   1.325   0.191  0.1281  0.0829 -0.0326
21499W        W41779  11.895   8.111  11.929  0.0871 -0.0079 -0.0629
21500W        W41780   4.002   2.716  12.941  0.0127  0.1000 -0.1916
21501W        W41781  13.301  10.748  13.435 -0.2884 -0.1581  0.0448
21502W        W41782   7.834   5.991   3.030 -0.0177 -0.0599  0.3219
21503W        W41783  15.305   7.674  14.049  0.0600 -0.2363  0.0387
21504W        W41784   0.822  14.914   4.147 -0.1450  0.2738  0.1421
21505W        W41785   3.443   8.994  10.957 -0.0844 -0.2487 -0.1871
21506W        W41786   6.347  14.503  13.234 -0.0865 -0.1669 -0.1745
21507W        W41787  13.709  18.553  14.305  0.2002 -0.0558 -0.0558
21508W        W41788  15.786   7.829  13.083  0.2628 -0.2065 -0.1588
21509W        W41789   6.634  11.292  13.953 -0.1587 -0.1261  0.0737
21510W        W41790  14.985   2.227  15.126 -0.1055  0.0309  0.0189
21511W        W41791   5.675  10.416   1.768  0.0778 -0.0802  0.0426
21512W        W41792   5.732  16.791  13.837  0.0506  0.0949 -0.1382
21513W        W41793   0.250  16.669  14.831 -0.1829 -0.0188  0.2509
21514W        W41794  11.194  10.405   1.961  0.1649 -0.0249 -0.1611
21515W        W41795  15.814   4.451   2.054 -0.0342  0.2469 -0.0302
21516W        W41796  12.243   0.330   2.885 -0.1237  0.0741 -0.4129
21517W        W41797   4.358   7.549   2.777  0.2159  0.2015 -0.1448
21518W        W41798   2.271   5.217   0.174 -0.1968  0.3415  0.0561
21519W        W41799  11.238   1.571  13.508 -0.1110 -0.0298  0.0628
21520W        W41800   2.883   0.277   2.344  0.1343 -0.0403 -0.0215
21521W        W41801   0.355   6.678   0.275  0.1707  0.0694 -0.0268
21522W        W41802   5.666  14.615   0.555  0.0661 -0.0066 -0.1647
21523W        W41803   1.844   1.786   1.199 -0.1025  0.0439 -0.2643
21524W        W41804   4.730  18.573  13.984  0.0576  0.1113  0.0555
21525W        W41805  12.351  13.158   1.723 -0.0036  0.1436 -0.2293
21526W        W41806   9.986  13.036  12.604 -0.3481  0.0372  0.0158
21527W        W41807   1.915   4.509  11.434 -0.1734  0.0128  0.1129
21528W        W41808   6.677   8.781  12.556  0.3096 -0.1208 -0.1317
21529W        W41809   2.688   8.870   4.664  0.0505  0.2363 -0.2205
21530W        W41810   2.084   4.951  11.176  0.0877 -0.1896 -0.0401
21531W        W41811   2.673   6.368   3.389 -0.2237 -0.0204 -0.0579
21532W        W41812  14.988   7.869  12.002 -0.4594 -0.1071 -0.0071
21533W        W41813  11.278  15.809  12.442 -0.2161 -0.1130 -0.0502
21534W        W41814   3.527   0.106  11.734 -0.1478 -0.0921  0.2377
21535W        W41815   0.609  15.964   4.293  0.0311 -0.2422 -0.3395
21536W        W41816  17.556   2.187  10.351 -0.1237 -0.0630 -0.1620
21537W        W41817   2.062   7.207   0.079  0.2817 -0.1277  0.2176
21538W        W41818   5.753  18.136  10.295  0.3851  0.0284  0.1013
21539W        W41819  15.276  14.876   2.633  0.0520  0.3269 -0.0608
21540W        W41820   7.305   2.134  14.475 -0.1896  0.0327  0.0550
21541W        W41821  11.000   4.361  13.874 -0.3299  0.1203  0.0761
21542W        W41822   3.308  11.777   3.686 -0.1953  0.0844  0.1119
21543W        W41823   1.330   1.802  11.284 -0.1726  0.0084  0.0898
21544W        W41824   7.264  17.098   2.913 -0.0171 -0.1295 -0.1774
21545W        W41825   5.239  17.902   0.118 -0.0893 -0.0549  0.0532
21546W        W41826   3.077   6.135  11.267 -0.1088 -0.0630 -0.0716
21547W        W41827   2.553   3.774   3.981 -0.0450 -0.2851  0.1610
21548W        W41828  12.695  17.964  15.051 -0.1927 -0.2047 -0.2079
21549W        W41829  16.117  17.070   5.419 -0.0914  0.1557 -0.2828
21550W        W41830   3.399   6.511  11.577 -0.1681  0.0242 -0.0894
21551W        W41831  11.834   2.395  13.647  0.0026 -0.0581 -0.2993
21552W        W41832   5.802  14.383  10.914  0.1405 -0.1512 -0.1909
21553W        W41833   2.352   4.013   2.008 -0.1179  0.2690 -0.1599
21554W        W41834  10.985   7.645   3.938  0.1428  0.1040 -0.0332
21555W        W41835  17.450   3.888  14.227 -0.2681  0.1694  0.0811
21556W        W41836  18.543  17.551  12.711  0.1460  0.2810  0.1069
21557W        W41837  16.865   4.066   4.067 -0.1494  0.0072  0.2373
21558W        W41838   3.358   9.654  13.350 -0.3356  0.0803  0.0380
21559W        W41839  14.495   0.865   2.083  0.0361 -0.0810  0.0640
21560W        W41840  12.254  16.167   2.653  0.0610 -0.1216 -0.3068
21561W        W41841  16.574  14.329  11.582  0.0272 -0.1303  0.0730
21562W        W41842   0.100   8.838  13.061 -0.1829 -0.1077  0.1468
21563W        W41843   5.674   5.779  11.686 -0.0671  0.3758  0.2653
21564W        W41844  12.984   1.508  13.516 -0.0927  0.2149 -0.2716
21565W        W41845  12.786   6.851   1.257 -0.1292  0.2660 -0.0467
21566W        W41846  17.572   0.715  14.545  0.0969 -0.0590 -0.1096
21567W        W41847   7.261   0.766   0.803 -0.0305 -0.0590 -0.0251
21568W        W41848  18.540   1.733   5.237  0.0604 -0.0039 -0.1208
21569W        W41849   3.562   3.398  11.797  0.3899  0.3796  0.3361
21570W        W41850  13.972  13.215   0.487 -0.0077 -0.0486 -0.0819
21571W        W41851   0.413  18.115   4.187  0.0655 -0.2482 -0.2006
21572W        W41852  16.097   6.689  13.621 -0.1040  0.3380  0.2169
21573W        W41853   2.237  12.720  13.920 -0.1074 -0.0685  0.2584
21574W        W41854  10.874  10.797  13.886 -0.2137  0.2029  0.0040
21575W        W41855  13.497  17.215  14.336  0.1241 -0.2167 -0.0757
21576W        W41856  15.253   8.771   1.188 -0.2793 -0.2404  0.1341
21577W        W41857  12.506  14.829  11.363 -0.3077 -0.5481 -0.1252
21578W        W41858  14.880   8.547   4.725 -0.2478 -0.0518  0.2640
21579W        W41859  14.203  10.707   0.318  0.3284  0.1540 -0.0408
21580W        W41860  12.583   0.777   2.098 -0.1197 -0.0377 -0.1225
21581W        W41861   7.107   1.803   4.175 -0.0735 -0.3005  0.3601
21582W        W41862   7.668  14.074   2.537 -0.0882  0.1512  0.1170
21583W        W41863   4.295  16.136   3.984  0.0528 -0.2117  0.1241
21584W        W41864   9.873  10.466  15.308  0.3377 -0.0645  0.3326
21585W        W41865   3.580   2.461  13.170 -0.2484 -0.1016  0.1802
21586W        W41866   0.704  15.290   0.726  0.1902  0.0944 -0.1130
21587W        W41867   8.228  16.839   3.127 -0.2194 -0.0953 -0.2098
21588W        W41868  12.033   9.416   1.637 -0.0896 -0.0144 -0.1277
21589W        W41869  11.827   5.268  15.019 -0.0447 -0.2809 -0.5117
21590W        W41870   3.551   7.140  11.582 -0.3769 -0.0607 -0.1024
21591W        W41871   1.027   9.122   1.730 -0.0981 -0.1440 -0.0401
21592W        W41872   0.757   2.460  12.988 -0.0771  0.2467 -0.3339
21593W        W41873   4.977  17.743  13.691  0.0194 -0.2896 -0.0060
21594W        W41874  17.814   6.863  12.801  0.1159  0.0474 -0.0560
21595W        W41875  12.200  10.336  12.453 -0.0523  0.5915 -0.1141
21596W        W41876   9.490   6.097   4.163  0.0484 -0.2633 -0.0951
21597W        W41877   8.141   4.189  12.923 -0.1003 -0.0940 -0.1834
21598W        W41878   0.687   0.566  15.222 -0.0237  0.0386 -0.1423
21599W        W41879   1.384   1.648  12.947  0.0138  0.2284 -0.1009
21600W        W41880  14.702  12.271   5.635  0.1735 -0.3024  0.3231
21601W        W41881  14.029   6.425  11.749  0.2083 -0.0459  0.1457
21602W        W41882  10.000   3.032   1.712 -0.1661  0.0989 -0.0401
21603W        W41883  13.552  15.964   9.909  0.0921 -0.0556 -0.1877
21604W        W41884   7.219   5.933  11.421  0.1332  0.0797  0.0153
21605W        W41885  12.359   6.339   2.140 -0.2144 -0.1243  0.2358
21606W        W41886  18.508   4.368  12.638 -0.0913 -0.4063 -0.0194
21607W        W41887  14.085  17.952  12.514 -0.0897  0.3863 -0.3982
21608W        W41888  16.540   4.473  13.550  0.0629  0.0669  0.2469
21609W        W41889   8.573   7.136   4.017 -0.1052  0.1114 -0.1211
21610W        W41890  18.175   5.001   3.894 -0.2337 -0.0181 -0.2735
21611W        W41891   2.949   9.126  14.397 -0.1073 -0.2168 -0.1446
21612W        W41892  18.030  15.339  15.223  0.0102  0.1959 -0.1838
21613W        W41893   3.992   4.729   0.152  0.0498  0.0028 -0.2166
21614W        W41894  12.349   1.253   0.594 -0.1498 -0.2448 -0.0994
21615W        W41895   8.378  11.019  13.806  0.1725  0.5651 -0.1982
21616W        W41896   7.037  16.140  13.832 -0.3102 -0.2155  0.1709
21617W        W41897  14.238   9.087  11.589 -0.0169 -0.0922 -0.0891
21618W        W41898  16.366   3.369   4.080  0.2071  0.1063 -0.0940
21619W        W41899  10.912   6.341   3.302 -0.2700 -0.1158  0.2307
21620W        W41900   5.255   6.994   3.164 -0.0017 -0.2518  0.0462
21621W        W41901   3.465   7.504   2.468 -0.1110 -0.2434 -0.0582
21622W        W41902   0.019   1.132  12.925 -0.1386 -0.0128 -0.2776
21623W        W41903   5.732  10.872  12.968 -0.2789  0.1406  0.0165
21624W        W41904  17.149   9.065  14.005 -0.0438 -0.0426  0.0204
21625W        W41905   3.163   7.612   0.560  0.3727  0.0969 -0.1083
21626W        W41906   6.307  12.800  14.165 -0.0061 -0.1556  0.0040
21627W        W41907  13.573   5.756   2.632  0.4566 -0.0324  0.1228
21628W        W41908  17.407   0.436  12.401  0.0294  0.2051 -0.1127
21629W        W41909   6.388  18.586   2.385 -0.2233 -0.1775 -0.3764
21630W        W41910  14.835   1.221   2.711  0.1857 -0.3354  0.1690
21631W        W41911   3.718   2.672   1.467 -0.1833 -0.0264  0.1198
21632W        W41912   7.538  16.201   2.156  0.2598 -0.2319  0.1018
21633W        W41913   4.617   6.249  12.109 -0.1389  0.0284 -0.0347
21634W        W41914  16.814   4.123   4.553 -0.0754 -0.0580 -0.2328
21635W        W41915  18.689   8.395  13.715 -0.0107  0.0078  0.0822
21636W        W41916   9.123   3.326   0.241 -0.2706  0.2216  0.1306
21637W        W41917  14.560  11.715   4.413 -0.0819  0.0487  0.2693
21638W        W41918  17.378   8.093  14.435  0.0124  0.3966 -0.0506
21639W        W41919  13.889   5.089  13.909  0.0949  0.1115 -0.1296
21640W        W41920   9.880   8.093  12.426  0.2808 -0.0867 -0.0239
21641W        W41921   4.314  15.020   2.814  0.3419 -0.1479  0.6322
21642W        W41922   6.477   6.012  14.169  0.1258 -0.3109 -0.0858
21643W        W41923  17.418   1.859   3.195 -0.0536  0.1310  0.2098
21644W        W41924  15.982   4.797  14.192 -0.0357  0.1680  0.0657
21645W        W41925   6.976   7.227   3.046  0.1033 -0.2130 -0.1190
21646W        W41926  17.655  13.377  13.454 -0.2224  0.0592  0.0743
21647W        W41927  14.237  12.016  10.949  0.2200  0.1456  0.0055
21648W        W41928  12.156  13.453  13.115 -0.0534  0.1491  0.0739
21649W        W41929  16.862   6.331   4.134 -0.0799 -0.1242  0.0800
21650W        W41930   1.427   4.036   3.115 -0.0684 -0.0571  0.2662
21651W        W41931  12.500   6.856  11.398  0.0039  0.2344  0.0781
21652W        W41932   2.256   9.682  12.520 -0.0019 -0.0804  0.0349
21653W        W41933  10.379  10.117   1.411 -0.2028  0.0127 -0.2927
21654W        W41934   7.237   7.282  14.225 -0.0446  0.1675  0.2802
21655W        W41935   8.991   5.731  15.066 -0.1845  0.0696 -0.2221
21656W        W41936   3.988  10.338   0.615 -0.0427  0.0319  0.3309
21657W        W41937  14.320  14.804   2.577 -0.0124 -0.1921 -0.1021
21658W        W41938   4.553   7.511   3.252  0.1794  0.0026  0.1125
21659W        W41939  15.788   0.538   3.595  0.3880  0.1281 -0.2996
21660W        W41940   9.249   7.528   4.491  0.2473 -0.2507 -0.0564
21661W        W41941  17.035  13.136   3.357 -0.2247 -0.2376 -0.0392
21662W        W41942  18.104  13.462  13.237 -0.0329  0.2029  0.1532
21663W        W41943   2.252  12.185   4.070 -0.2109  0.1806 -0.1376
21664W        W41944   1.656  12.629   2.826 -0.1270  0.1241  0.3556
21665W        W41945  13.037   5.341   4.234 -0.0057  0.2867 -0.1215
21666W        W41946  18.663   0.065   0.321 -0.1150 -0.2159 -0.3393
21667W        W41947  14.620   8.633  12.934 -0.0797  0.0686  0.2116
21668W        W41948   1.132   8.900  12.373 -0.1462 -0.2127 -0.2016
21669W        W41949   7.871   2.105  14.480 -0.1079  0.2658  0.1030
21670W        W41950   7.583  15.939  14.978 -0.2323 -0.0996 -0.3251
21671W        W41951  11.144   5.948  14.314  0.0399 -0.0697 -0.0017
21672W        W41952   3.024   0.714   3.087  0.0595 -0.1602  0.2286
21673W        W41953  14.464  14.606  14.743 -0.3129 -0.3228 -0.0530
21674W        W41954  14.360   0.944  12.052 -0.2476  0.0057 -0.2157
21675W        W41955  13.871  12.195   3.656  0.0127 -0.2200  0.1082
21676W        W41956   0.206   5.724   1.882 -0.0035  0.2971 -0.0036
21677W        W41957  16.368  14.130   2.039  0.3682  0.1153 -0.1526
21678W        W41958  17.423  11.749  11.315 -0.1575 -0.3307  0.1081
21679W        W41959  13.616   0.600  14.876  0.0055  0.3014  0.1272
21680W        W41960   7.607  18.255   4.165 -0.1368  0.2391  0.0362
21681W        W41961   2.913  12.850  14.493  0.2493 -0.0246 -0.5570
21682W        W41962  16.318   6.223  13.367  0.4331 -0.1992 -0.2336
21683W        W41963   3.732  11.480   4.279 -0.0134 -0.1841 -0.2662
21684W        W41964   5.541   2.066  13.753  0.1447 -0.0521  0.0737
21685W        W41965  10.489  14.404  13.596  0.0745 -0.2620  0.0058
21686W        W41966   4.309   7.114  10.825  0.0356  0.0743 -0.2877
21687W        W41967   9.173  11.292  13.919 -0.1793 -0.2127 -0.1877
21688W        W41968  11.071  17.788   1.666  0.1217 -0.0171  0.0327
21689W        W41969   7.026   9.079   3.124 -0.0603 -0.0587  0.0587
21690W        W41970   6.959  18.468  11.611 -0.0733  0.1586 -0.1322
21691W        W41971   5.950  15.128  13.742  0.0644  0.0825 -0.3398
21692W        W41972   0.322   5.310   4.448  0.1399  0.0716  0.1747
21693W        W41973   8.794   6.907   3.333 -0.1787  0.2531  0.3162
21694W        W41974   2.296  14.197   2.680 -0.2294 -0.1325 -0.0386
21695W        W41975   8.176   7.614  14.359  0.0847  0.2255  0.1591
21696W        W41976   5.656  16.529  13.405  0.0111  0.1298  0.2003
21697W        W41977   7.158   8.632  12.566  0.1281 -0.0311  0.1080
21698W        W41978   2.512  12.182  12.985 -0.2366  0.1144 -0.1269
21699W        W41979  16.360   4.913  12.873  0.0589  0.1246 -0.0409
21700W        W41980  16.152  13.144  15.167 -0.0710 -0.2449 -0.2975
21701W        W41981   9.288   1.610   0.850 -0.2063  0.1749 -0.0148
21702W        W41982  17.712   8.696  12.060  0.1759 -0.2251 -0.3645
21703W        W41983   2.572  11.819  13.715 -0.3017  0.0396  0.1378
21704W        W41984  13.827  14.790   3.410  0.0122  0.0580  0.0975
21705W        W41985  17.540   5.765   4.745  0.1298  0.1307 -0.1663
21706W        W41986   9.224   1.971  12.334 -0.4343 -0.3914 -0.0451
21707W        W41987  18.550   9.569  11.607 -0.0149 -0.0607 -0.1226
21708W        W41988   3.949  11.905   3.538 -0.2692 -0.2543  0.2245
21709W        W41989  15.355   1.723   5.467 -0.0340 -0.0896 -0.0323
21710W        W41990  17.423  16.169   0.270 -0.2004  0.1463  0.1882
21711W        W41991   7.463  14.539   0.649 -0.2274  0.1436 -0.0909
21712W        W41992  16.783   3.099   3.060  0.0345 -0.1209  0.2899
21713W        W41993  11.074  12.595  15.172  0.2699 -0.1171  0.3422
21714W        W41994  11.354   5.403  13.059 -0.4274  0.1895  0.3258
21715W        W41995   0.512  17.377  12.121  0.1695  0.1408  0.3324
21716W        W41996  13.024   1.490   1.843  0.0269 -0.1462  0.2275
21717W        W41997   8.522   6.306   1.504  0.0366 -0.1141 -0.0184
21718W        W41998   0.370   6.321  11.136 -0.3478  0.1945 -0.0267
21719W        W41999   4.557   2.322  12.011  0.0505 -0.0487 -0.0690
21720W        W42000   4.720  12.078   5.393  0.3423 -0.0238  0.1719
21721W        W42001   8.650  16.953  13.666  0.0304  0.0506 -0.2699
21722W        W42002  15.671   4.036   4.368  0.0568  0.2129 -0.2147
21723W        W42003  14.332   2.900  12.266 -0.0754  0.0142 -0.0744
21724W        W42004   2.928   1.405  11.897 -0.0650 -0.0403  0.2220
21725W        W42005  16.624   1.391  13.326 -0.5917 -0.2267  0.0888
21726W        W42006  10.959   0.154   2.194 -0.1499  0.2303  0.2252
21727W        W42007  17.897   8.668  13.229 -0.2813 -0.0136 -0.2471
21728W        W42008  15.331   3.662  14.352  0.1588 -0.1772  0.1269
21729W        W42009   6.365   3.720  14.403  0.2113 -0.2878 -0.3991
21730W        W42010  13.532  11.471   2.749 -0.1168 -0.1244 -0.0128
21731W        W42011   9.753   4.655  12.718 -0.0898 -0.2790  0.0957
21732W        W42012   2.688  16.112  10.982 -0.0071 -0.1172 -0.0861
21733W        W42013   5.622   2.927  12.182 -0.1436  0.3191  0.1512
21734W        W42014   7.392  17.080   2.327 -0.2569 -0.2786  0.0229
21735W        W42015   5.051  17.689   1.553  0.0650  0.1007 -0.0412
21736W        W42016   7.858   7.829  12.841  0.0287  0.0175 -0.1436
21737W        W42017   8.427   8.945   1.393 -0.0523 -0.1335  0.3977
21738W        W42018  12.209   5.196  12.155 -0.2293 -0.1411 -0.0278
21739W        W42019   1.468   2.724   1.537  0.1243 -0.1824 -0.0799
21740W        W42020  13.189   5.890   3.094 -0.0183 -0.3139  0.0187
21741W        W42021  15.630   8.557  12.708 -0.1510  0.0945  0.2560
21742W        W42022  13.720   3.741  12.352 -0.1750  0.0623 -0.3080
21743W        W42023   4.194  14.188  12.152  0.0522  0.3810 -0.0603
21744W        W42024  12.910  13.712   1.233  0.2989 -0.0603 -0.2625
21745W        W42025  14.545   9.870  14.404 -0.2043  0.0406 -0.0754
21746W        W42026   1.437  13.893   3.416  0.2025 -0.3565 -0.0427
21747W        W42027   8.509   6.165  13.283  0.0504  0.2181  0.0481
21748W        W42028  14.600  15.001  12.015  0.1856 -0.0012  0.1899
21749W        W42029  18.190   9.231   0.223  0.2253  0.1439 -0.0871
21750W        W42030  14.945   6.516  15.300 -0.0045 -0.0465  0.0229
21751W        W42031   1.378  18.467  15.049 -0.1665  0.0484  0.1420
21752W        W42032  11.812  13.789   2.615  0.3945  0.1771  0.2925
21753W        W42033   4.103  16.872  14.477 -0.0344 -0.1171  0.2396
21754W        W42034  18.338   7.996  14.155  0.1703 -0.0874  0.3730
21755W        W42035  17.408   5.504   6.042  0.0132  0.2919  0.2110
21756W        W42036   3.582   8.522   3.240 -0.0382  0.0659  0.0091
21757W        W42037   9.394   0.431   3.435 -0.1578  0.0144  0.1049
21758W        W42038  13.786  16.991  15.170  0.4668 -0.0036 -0.0368
21759W        W42039   1.759  10.717  11.768  0.0204 -0.0228  0.0053
21760W        W42040  18.631  17.703   3.640  0.0282 -0.2867 -0.0340
21761W        W42041   0.637   5.326  14.698  0.0828 -0.0585  0.0327
21762W        W42042  18.292   1.693  11.540  0.1586 -0.1368  0.2946
21763W        W42043  10.254   0.620   3.211  0.1735  0.0337  0.0961
21764W        W42044   3.712   2.248  11.883  0.0981  0.3225  0.1938
21765W        W42045  13.579  16.663  12.206  0.0380  0.0224  0.1228
21766W        W42046  17.768   8.291   3.127  0.3704  0.0161 -0.1424
21767W        W42047   1.501  16.670  14.473  0.2420  0.0961 -0.3234
21768W        W42048   1.228  12.862   2.628  0.1534 -0.0981  0.0264
21769W        W42049   4.498   1.063  14.211 -0.0750 -0.4930  0.1181
21770W        W42050  13.966   2.811  14.935  0.2146 -0.1734  0.3731
21771W        W42051   4.747  11.289  11.980  0.0452 -0.1071 -0.2744
21772W        W42052   1.081  14.111  13.430  0.0207  0.1898 -0.0854
21773W        W42053  17.565   1.236   3.741 -0.1135 -0.0802  0.1460
21774W        W42054   3.212  17.923   2.054 -0.0529  0.2706 -0.0726
21775W        W42055   6.543  12.161  11.454 -0.0267 -0.2796  0.0423
21776W        W42056  10.132  11.308  14.478  0.0206  0.0306 -0.1343
21777W        W42057   1.597  11.594  12.130 -0.1979  0.3713  0.1352
21778W        W42058  13.007  12.786  14.903 -0.2240 -0.1214  0.0493
21779W        W42059  11.578  15.601   2.276  0.0223 -0.0226  0.2154
21780W        W42060  18.616   2.241   3.861  0.1134  0.2208  0.0056
21781W        W42061  12.989  18.104  14.091 -0.0425 -0.1152  0.0199
21782W        W42062   7.796   2.297   3.254  0.2315  0.1050 -0.1906
21783W        W42063   1.385   6.930  12.247  0.2720  0.1349 -0.1791
21784W        W42064  17.060   9.448   3.685  0.2686 -0.0847 -0.0235
21785W        W42065  13.210  14.798   1.023 -0.5043 -0.0702  0.1890
21786W        W42066   4.675   8.039   5.353 -0.0136 -0.1902  0.2410
21787W        W42067  10.026   3.056  10.133  0.1481  0.0784  0.0894
21788W        W42068   9.319   8.525  12.850  0.0223 -0.4552 -0.1956
21789W        W42069  18.162  10.297  14.164 -0.1650  0.3241 -0.2267
21790W        W42070   5.736   7.026   0.296  0.2808 -0.1089  0.5036
21791W        W42071  17.482   2.634   3.080  0.2034 -0.3343 -0.0031
21792W        W42072  18.215  15.829   1.193  0.2519 -0.1514  0.0786
21793W        W42073   3.742   3.067  15.244 -0.0678  0.0698  0.0671
21794W        W42074   2.326  17.867   1.091 -0.2951  0.0664 -0.0781
21795W        W42075   2.378   6.195   1.573 -0.0519  0.1371 -0.0496
21796W        W42076   6.552   3.375  13.475 -0.2287  0.3410  0.2517
21797W        W42077   1.602  17.053   2.002  0.0377  0.1690  0.2307
21798W        W42078  15.737   1.216   2.836  0.0542  0.1751 -0.0775
21799W        W42079  10.966   4.079  11.901 -0.1119 -0.0908  0.3402
21800W        W42080  12.192   0.896   2.928 -0.0926 -0.2623  0.0074
21801W        W42081   6.765   7.528   3.758  0.1489  0.1727 -0.1716
21802W        W42082  13.023  12.122   3.626 -0.2501  0.0742  0.1176
21803W        W42083  12.583   3.535   2.835  0.0783 -0.0464 -0.3003
21804W        W42084  18.250  11.926   0.182  0.1117 -0.0472 -0.0447
21805W        W42085  16.586   7.234   1.229  0.1576 -0.0299 -0.3383
21806W        W42086   4.496  18.679   2.393  0.2214  0.1847  0.1569
21807W        W42087  11.179   1.516  11.055 -0.0857  0.0362 -0.3239
21808W        W42088  11.572  10.558  13.818  0.2435 -0.1411  0.0376
21809W        W42089   0.348   1.657  12.887  0.1542 -0.1307 -0.0626
21810W        W42090   5.463   5.352  12.002 -0.1386  0.0149  0.3054
21811W        W42091  10.945  13.298   2.454  0.0834 -0.1177 -0.0513
21812W        W42092   4.539   8.211   3.532  0.1096  0.0104  0.1502
21813W        W42093   1.568  17.878  12.681 -0.1300 -0.0720 -0.1886
21814W        W42094  18.447   9.289  12.587  0.2478  0.0357 -0.0810
21815W        W42095   4.164   4.369  15.184  0.0491 -0.1191 -0.2429
21816W        W42096   8.984   1.131   2.066 -0.1732 -0.1764 -0.0573
21817W        W42097   5.727  13.709  14.106  0.0450  0.2917 -0.1949
21818W        W42098  14.429   8.057   5.179  0.0290  0.0819 -0.2346
21819W        W42099   0.223   5.588  14.942 -0.2889  0.0961 -0.3852
21820W        W42100  16.518   2.917  14.479  0.0552 -0.1209 -0.2525
21821W        W42101   2.348  16.078  13.083 -0.1189 -0.3140 -0.1375
21822W        W42102  10.339   3.414   2.807 -0.0396  0.0205 -0.0025
21823W        W42103   8.702   3.839   3.310 -0.2046  0.0087  0.0683
21824W        W42104  15.070  13.303  15.204 -0.2362  0.1576 -0.2521
21825W        W42105  11.990  15.285   1.199 -0.3793  0.2591  0.3954
21826W        W42106  14.178  12.447  12.096 -0.1419  0.3356  0.1554
21827W        W42107   6.716   7.445   1.547 -0.0263 -0.0147  0.0340
21828W        W42108  18.041  16.443   3.025  0.0212 -0.3498  0.1718
21829W        W42109   9.838  12.381   3.836 -0.2463 -0.1881 -0.3018
21830W        W42110  14.571  12.455  12.449  0.3423 -0.3013  0.0062
21831W        W42111   4.317  17.195   2.061  0.3098 -0.0348  0.0767
21832W        W42112   0.730  15.956  12.083  0.0809 -0.3111 -0.0939
21833W        W42113   0.520   0.707   1.436 -0.3272  0.0358 -0.1482
21834W        W42114   0.430   7.038   3.344  0.3752 -0.1797 -0.0601
21835W        W42115   1.521   7.915   2.899  0.1172  0.2218 -0.0204
21836W        W42116   7.600  15.113  14.372 -0.1633 -0.0183 -0.2464
21837W        W42117   5.483   9.639  11.020  0.1839 -0.1246  0.0420
21838W        W42118  14.649  11.875   2.670  0.1098  0.0859 -0.0248
21839W        W42119  10.750   4.912   4.803 -0.0427 -0.0051  0.0921
21840W        W42120   0.009  16.717  11.787 -0.1497  0.1515  0.1319
21841W        W42121  17.239  14.891  11.369  0.4098 -0.0544  0.1243
21842W        W42122  18.604   9.998   3.249 -0.1133  0.1993  0.0336
21843W        W42123   3.525  15.491  15.369 -0.4380  0.1637 -0.3605
21844W        W42124   3.109   0.125  12.089 -0.0102 -0.0269  0.1952
21845W        W42125   2.378  17.542  14.649  0.1454 -0.0490 -0.1139
21846W        W42126  17.890  14.563  14.421  0.0889 -0.3348  0.1723
21847W        W42127  14.219  16.385  12.633 -0.1038  0.0162  0.1282
21848W        W42128  10.708  11.047   3.484  0.1405 -0.0815 -0.0979
21849W        W42129   5.490   4.233   0.449 -0.3351 -0.0557  0.1782
21850W        W42130  11.484  16.604   0.095  0.1699  0.0440 -0.0282
21851W        W42131   0.499   2.668  12.626 -0.1648 -0.1785 -0.2373
21852W        W42132  10.682   0.411   0.127 -0.0620  0.0191  0.3080
21853W        W42133  16.006  18.336   2.930 -0.1261 -0.4049  0.3834
21854W        W42134  14.863   8.669   3.679 -0.1676  0.0482 -0.0967
21855W        W42135   3.951  11.290   3.240  0.1256 -0.0504 -0.0817
21856W        W42136  13.983  15.569   1.918 -0.0023 -0.1427  0.2433
21857W        W42137  18.564   7.123   4.506  0.0245 -0.1045 -0.1722
21858W        W42138   9.854   2.579   2.748 -0.1364 -0.2723  0.1412
21859W        W42139   1.108   8.899  14.004  0.2422  0.0455 -0.1777
21860W        W42140  15.177   8.581   2.181  0.2197  0.0490 -0.0376
21861W        W42141   8.787   7.773   5.740 -0.0389  0.1591  0.3932
21862W        W42142   1.498   1.918   4.056 -0.2525 -0.1536  0.3174
21863W        W42143   1.667   3.665  11.855 -0.2744 -0.0051  0.2084
21864W        W42144  11.256   2.290   2.633  0.0092  0.2184  0.0198
21865W        W42145   8.713  10.766  11.853  0.0743  0.2478 -0.0905
21866W        W42146   5.663   6.809  12.870  0.1645 -0.1119 -0.1957
21867W        W42147  15.168  12.825  13.491  0.2649  0.1771  0.2186
21868W        W42148  13.072  18.156  15.369  0.0532  0.4471 -0.0480
21869W        W42149   0.526  18.100  13.131  0.1213  0.0993  0.1513
21870W        W42150  14.830   6.660   2.641  0.1645 -0.3598  0.0923
21871W        W42151   3.455   1.852  14.639 -0.0273 -0.1588  0.1060
21872W        W42152  12.971  11.557  14.521  0.0733  0.2017  0.1297
21873W        W42153  17.312   2.774  11.255 -0.0164  0.0642  0.1428
21874W        W42154  12.800  13.985   2.399  0.1587  0.1922  0.2354
21875W        W42155   2.922  12.107   0.221 -0.0582  0.0615  0.3717
21876W        W42156   4.001   0.477   1.662 -0.1180  0.1427  0.0232
21877W        W42157   9.785   0.940   2.722 -0.4486  0.0186 -0.0201
21878W        W42158  18.118  14.087  11.887  0.0757  0.0709 -0.2395
21879W        W42159  18.138   2.094   3.476 -0.2672  0.1164  0.2933
21880W        W42160   3.987   5.300  14.327  0.0233 -0.0203 -0.0073
21881W        W42161   9.859   0.231   2.170  0.0314  0.1350 -0.2321
21882W        W42162   7.951  17.933   0.538  0.3058 -0.2022  0.2275
21883W        W42163  13.817   8.442   1.575  0.3096  0.0396  0.0907
21884W        W42164   6.704  15.611   2.007  0.0391  0.2320  0.0954
21885W        W42165   2.553  16.482   0.058  0.6571  0.0940  0.2194
21886W        W42166  15.418   3.704  14.856  0.0300 -0.2779  0.1514
21887W        W42167  15.513   8.597   0.411 -0.4327 -0.0527  0.3366
21888W        W42168   5.749   8.546  11.957 -0.2021  0.0455  0.3231
21889W        W42169  18.654   5.320   1.308 -0.0015 -0.2399 -0.1336
21890W        W42170   6.647   3.778   4.071  0.0602  0.2215  0.0177
21891W        W42171   2.920  12.797  11.999  0.0582 -0.2493  0.0059
21892W        W42172   2.232   1.618   3.367 -0.1106  0.1587  0.0926
21893W        W42173   7.588   0.126  13.178 -0.2757  0.2104  0.2060
21894W        W42174  12.790  14.921   1.223 -0.2272 -0.1406  0.3722
21895W        W42175   7.208   5.240   3.209  0.4319  0.1925  0.0939
21896W        W42176   0.788  17.021   2.197 -0.0106 -0.0330 -0.0811
21897W        W42177  12.250  11.432   4.016  0.0972 -0.1005 -0.0741
21898W        W42178  14.824   5.150  12.693 -0.2431  0.0028 -0.0752
21899W        W42179   4.074   9.131   0.206  0.1473  0.1887  0.2142
21900W        W42180  18.342   3.320  11.640  0.0569  0.0856  0.2370
21901W        W42181  15.233  11.351   5.421  0.0182 -0.1925  0.0791
21902W        W42182  16.155   3.787  13.826  0.3476 -0.2486 -0.1033
21903W        W42183  14.783  11.507  13.700  0.1468 -0.0319  0.0756
21904W        W42184  16.424   8.696   4.535  0.0702 -0.2434  0.1686
21905W        W42185  16.941   7.203  15.223 -0.1296 -0.0324  0.0288
21906W        W42186   3.341   3.404  13.032  0.0697 -0.1583 -0.1143
21907W        W42187   8.294   3.735  15.094 -0.1129 -0.3661 -0.2375
21908W        W42188   9.567   2.645  13.453 -0.1928  0.0527  0.0658
21909W        W42189  13.250   3.183  15.150 -0.0604 -0.1426 -0.1324
21910W        W42190   1.834   1.917  13.184  0.0531 -0.2256  0.3115
21911W        W42191  11.990   0.345   0.496  0.2710  0.1565 -0.0422
21912W        W42192  15.155  14.560  10.307  0.1172  0.2889  0.0060
21913W        W42193   1.646  17.560  13.416 -0.2512  0.0465  0.1546
21914W        W42194  10.612   1.815   0.950  0.0745  0.1286  0.1443
21915W        W42195  18.340  15.515  14.873 -0.0340 -0.0906  0.0784
21916W        W42196   1.462  16.181  13.144 -0.1612  0.4871 -0.2380
21917W        W42197  13.641  10.988  12.610  0.0695  0.0923 -0.0669
21918W        W42198   9.664   4.329  12.321 -0.0949  0.0105 -0.1442
21919W        W42199   5.646   6.226   0.755 -0.5704  0.2416 -0.0425
21920W        W42200   6.281   2.546  11.395  0.2193  0.3499 -0.2061
21921W        W42201  11.326  17.859  10.900 -0.0545 -0.0636 -0.0485
21922W        W42202   6.763   9.172  12.207  0.2004 -0.4026  0.0276
21923W        W42203  13.312   6.826  13.403  0.0180  0.0594 -0.0548
21924W        W42204   8.348  13.926   2.524 -0.1316  0.3857  0.1225
21925W        W42205   4.564  10.924   0.168 -0.0860  0.2326 -0.0725
21926W        W42206   6.906   2.753  15.267  0.1377 -0.0724  0.0560
21927W        W42207   0.145  16.870   4.421 -0.1096  0.0956 -0.2888
21928W        W42208   8.047  13.288  14.175 -0.0509 -0.0185 -0.1635
21929W        W42209  17.160   3.648  11.535 -0.1507 -0.0604 -0.1409
21930W        W42210  15.142   9.781  12.496  0.0681  0.2793  0.1079
21931W        W42211  15.134  15.242   0.084 -0.2606  0.0317 -0.2858
21932W        W42212   2.958   2.853   1.901 -0.1023  0.0713  0.0239
21933W        W42213  11.511  15.426  11.456  0.1445 -0.1832  0.0375
21934W        W42214   0.311   4.766  13.121 -0.1338  0.1562 -0.0242
21935W        W42215  16.068   6.597   3.901 -0.0933  0.1858  0.0633
21936W        W42216   5.490   0.521  12.728  0.1624  0.1266  0.0770
21937W        W42217  10.205   7.215  10.575  0.1081 -0.1278 -0.2278
21938W        W42218  16.765  14.978  12.850 -0.1483 -0.0431  0.0993
21939W        W42219  14.006   7.814  13.964 -0.1268  0.0874  0.1269
21940W        W42220   6.492  17.807   0.710  0.0004  0.0236  0.2929
21941W        W42221  13.872  16.049   5.030  0.2655  0.0928  0.1093
21942W        W42222   8.935  17.751  13.692  0.1749 -0.1244 -0.0028
21943W        W42223  11.647   3.784   0.724 -0.1123 -0.0520  0.1324
21944W        W42224  15.795   6.203  11.587  0.1118 -0.2251  0.1736
21945W        W42225  18.236  10.411   1.722  0.0441 -0.0835  0.0842
21946W        W42226   3.212   0.793  12.498  0.0269  0.0612  0.4125
21947W        W42227   3.838  18.021  11.637 -0.0710 -0.2746  0.1474
21948W        W42228  17.976   1.289   0.582 -0.0258 -0.0664  0.0466
21949W        W42229   6.820  14.961  12.443  0.3243 -0.0771  0.0724
21950W        W42230   1.156  17.512  11.862  0.3040  0.2241  0.3750
21951W        W42231   2.752  13.566  13.081 -0.1887  0.2037  0.0313
21952W        W42232  11.371   8.172  13.501 -0.1024  0.0805 -0.1807
21953W        W42233  17.267   4.026  12.793  0.1403  0.1632 -0.0648
21954W        W42234  12.767  13.225  11.687 -0.3028  0.3381 -0.0722
21955W        W42235  11.145   3.558  11.745  0.0503  0.1185 -0.1801
21956W        W42236  15.318  10.558   4.474 -0.1322 -0.1808 -0.0402
21957W        W42237   8.922   1.672  15.329  0.1692  0.2076 -0.2100
21958W        W42238  10.353   7.775  12.460  0.1696 -0.2486 -0.1404
21959W        W42239   6.646   7.061  11.534  0.1464  0.2862  0.2321
21960W        W42240   3.476  11.222  13.364 -0.2095  0.0857 -0.2172
21961W        W42241   7.783   4.524   1.021 -0.3296 -0.0816  0.0283
21962W        W42242  14.919  12.858   0.602  0.1063  0.0062  0.0994
21963W        W42243   1.676  18.423  11.952 -0.0694  0.2625  0.0844
21964W        W42244   3.523  14.518  14.151 -0.1001  0.0291 -0.0103
21965W        W42245  11.127  13.831  13.963 -0.0125  0.0855 -0.1161
21966W        W42246  17.254   1.519   3.498 -0.5190  0.0286 -0.1507
21967W        W42247  15.599   1.015  12.552  0.1208 -0.1864  0.2743
21968W        W42248   8.266   9.296  14.743 -0.1809 -0.2658 -0.5872
21969W        W42249   5.195   8.701  12.719 -0.2002 -0.0836  0.2087
21970W        W42250  15.286   9.487  12.030 -0.1797  0.2202 -0.0257
21971W        W42251  16.100   1.309   2.321 -0.1143 -0.0391  0.3141
21972W        W42252   1.886  13.071   0.036  0.0468 -0.0552 -0.0541
21973W        W42253   8.710  15.025  14.098  0.0377  0.2608 -0.0935
21974W        W42254  12.803   9.264   3.938  0.0550  0.0052 -0.1376
21975W        W42255   2.602  15.453   3.105 -0.0791  0.1409 -0.3363
21976W        W42256  17.759  10.821   0.739  0.1190  0.2445  0.2562
21977W        W42257   8.543   2.789  15.349  0.0109  0.2757 -0.3077
21978W        W42258  12.590   3.557  14.580  0.3085  0.0810  0.1237
21979W        W42259   1.831   0.958   3.881  0.2077  0.1405  0.1826
21980W        W42260   9.025  13.271   1.579 -0.1861  0.0493  0.1474
21981W        W42261   1.473  12.328  12.815 -0.1167 -0.0164  0.0061
21982W        W42262   5.029   6.624  14.551 -0.0052 -0.1142  0.2004
21983W        W42263  12.353   8.605   2.769 -0.0654 -0.0991  0.1239
21984W        W42264  18.403   4.119  13.142  0.2578  0.1428 -0.1237
21985W        W42265   0.102  10.150   0.396  0.1664 -0.0558 -0.4711
21986W        W42266  12.228   2.576  11.124 -0.2007  0.1605  0.2015
21987W        W42267  14.311   1.581   0.998  0.4088 -0.1703 -0.1554
21988W        W42268  17.684   5.723  11.768  0.0765  0.0902 -0.1019
21989W        W42269   9.657  11.472   2.099  0.3698  0.0980 -0.1428
21990W        W42270  12.682  12.203   0.397  0.0400 -0.0538  0.4800
21991W        W42271  17.338  14.396   1.696 -0.0195 -0.3000  0.0783
21992W        W42272  14.455  12.251   0.941  0.0043  0.1952 -0.0330
21993W        W42273  17.790  16.567  13.074 -0.0002 -0.0504  0.0598
21994W        W42274  13.208   1.286   1.366  0.0082 -0.1887 -0.1367
21995W        W42275   3.015   4.571  12.314  0.3843 -0.0450 -0.0117
21996W        W42276  17.175  16.091  13.535  0.1261  0.1633 -0.1392
21997W        W42277  18.615   7.566   3.757  0.1285 -0.0432  0.1563
21998W        W42278   0.183  12.874  12.294 -0.2366 -0.0867 -0.0553
21999W        W42279  13.065   9.016   1.858 -0.1373  0.4904  0.1428
22000W        W42280  17.857   8.712   0.971  0.0441 -0.1219  0.0395
22001W        W42281   1.109  17.517   4.663 -0.3153  0.2694  0.0652
22002W        W42282  16.075   0.612  11.660 -0.1125 -0.0437 -0.2185
22003W        W42283  17.720   1.777   3.546  0.0195 -0.1389 -0.3056
22004W        W42284  18.167   4.890   2.876 -0.2608  0.2312 -0.1051
22005W        W42285   1.429  12.148   0.875 -0.0425  0.2238 -0.4242
22006W        W42286  18.508  11.396   1.279 -0.1390 -0.1539 -0.2617
22007W        W42287  17.906  14.444   3.316  0.0775  0.2024  0.3934
22008W        W42288  13.865   6.587  13.662 -0.0326  0.2163  0.0428
22009W        W42289   3.591  13.832   0.678 -0.0759  0.0994  0.1564
22010W        W42290   6.228   2.337  12.783  0.0324 -0.0838  0.0901
22011W        W42291   8.526   0.946  11.257  0.0486  0.3403 -0.1643
22012W        W42292  17.462   1.732  14.948  0.0837  0.0664 -0.3192
22013W        W42293   0.070   0.939   3.817  0.0648 -0.3502  0.1541
22014W        W42294   8.474   8.406  14.289  0.0908  0.0501 -0.1265
22015W        W42295   8.408   6.882  13.740 -0.2143 -0.0399 -0.4223
22016W        W42296  17.045   8.875  12.526  0.2147  0.1441  0.0076
22017W        W42297  17.407  13.170   4.259  0.2372  0.1713  0.3681
22018W        W42298   6.755  16.016  13.030 -0.0771  0.1415 -0.0008
22019W        W42299  15.191  16.325  13.304 -0.1511  0.1692  0.3321
22020W        W42300  11.816   9.042  13.950  0.2335 -0.0380 -0.0124
22021W        W42301   6.671   3.749  13.167 -0.1662 -0.2079  0.1232
22022W        W42302   3.212   4.532  14.200 -0.1405 -0.1428 -0.1353
22023W        W42303  17.740  13.790  14.267 -0.3206 -0.0119  0.1337
22024W        W42304  16.755   8.994   0.294  0.1645 -0.3883  0.0793
22025W        W42305  17.298  16.457  14.140  0.1498  0.0681  0.1499
22026W        W42306   3.489   9.440   1.711 -0.1327  0.0862 -0.2637
22027W        W42307   5.947  12.896  11.158  0.0608  0.1429  0.3172
22028W        W42308   8.616   5.430   2.060  0.1855 -0.2039 -0.1674
22029W        W42309   6.006  12.138   3.051 -0.0523 -0.1788  0.1395
22030W        W42310  16.745  15.870  13.613 -0.2826  0.0562  0.1739
22031W        W42311   5.505  11.146  14.557  0.0495 -0.0532 -0.3244
22032W        W42312  16.807  11.276  11.886  0.1245 -0.2178  0.0576
22033W        W42313  14.521  15.840  15.369 -0.1680 -0.0754 -0.2848
22034W        W42314   2.750   1.184   1.060  0.1250  0.2277  0.1678
22035W        W42315   4.398  14.347  11.501 -0.0484 -0.0357  0.2005
22036W        W42316   0.351   5.762   1.396 -0.1091  0.0711 -0.1609
22037W        W42317   0.464   9.090  14.812 -0.1723 -0.0293  0.2343
22038W        W42318  17.307  13.674  13.666  0.1494 -0.0432  0.1919
22039W        W42319   3.613   5.755   4.784 -0.1017  0.0285  0.0317
22040W        W42320  14.567  11.609  14.140  0.1456 -0.1552  0.0236
22041W        W42321   3.271  15.598  13.213 -0.2547 -0.0879  0.3936
22042W        W42322   3.786   6.243   0.333  0.0638  0.1283 -0.3239
22043W        W42323   6.595   9.118   0.997 -0.0782 -0.2995 -0.0556
22044W        W42324   7.729  12.921  12.262  0.2872  0.0953 -0.1063
22045W        W42325   0.446   5.517  11.635 -0.1906  0.1793  0.1982
22046W        W42326   5.580   2.751  13.218  0.0269  0.1857 -0.3885
22047W        W42327  12.830   4.297  12.908 -0.0894  0.0886  0.0083
22048W        W42328   6.039  15.506  14.107 -0.2278 -0.3996  0.0088
22049W        W42329   1.322   9.375  14.038  0.0104  0.1566 -0.1749
22050W        W42330   6.979   6.194   4.097 -0.0531 -0.1436 -0.2189
22051W        W42331  14.023  16.466   3.446  0.3003  0.1665  0.2529
22052W        W42332  12.668  12.704  10.455 -0.0877  0.1192 -0.0508
22053W        W42333   9.357   1.405   1.886  0.0260  0.0913  0.0063
22054W        W42334   0.980   8.481   0.992  0.1952  0.0275  0.3057
22055W        W42335   1.975  13.191  12.654  0.3161 -0.0870  0.3210
22056W        W42336  13.712   3.224   0.225 -0.0277 -0.1155  0.0094
22057W        W42337   1.492  16.554  11.884  0.0255 -0.2966 -0.0738
22058W        W42338  12.669  10.956  15.247 -0.1916 -0.1318 -0.1062
22059W        W42339   1.925   9.769  14.270 -0.0979  0.0375 -0.0401
22060W        W42340   5.650   8.281  13.341 -0.0705 -0.2475  0.1337
22061W        W42341  15.524  13.506  11.465 -0.1884 -0.0665 -0.1065
22062W        W42342   6.755   4.303  13.489 -0.0895 -0.3666 -0.1341
22063W        W42343   9.492  14.558   4.355  0.2684  0.1703 -0.2154
22064W        W42344   5.767   0.476  13.276 -0.1258 -0.0541  0.1105
22065W        W42345  14.093   0.151  14.045  0.0570 -0.0528  0.3547
22066W        W42346   5.156  13.287   0.506 -0.2918  0.2626  0.0562
22067W        W42347  11.275   8.624  13.273  0.2564  0.0723 -0.1347
22068W        W42348  11.762   1.124   1.816 -0.1152 -0.3636  0.2198
22069W        W42349   0.862   5.944   2.723 -0.0663 -0.0550 -0.0026
22070W        W42350  13.517   1.129  15.011  0.1543 -0.0098  0.1308
22071W        W42351   4.618   6.288  14.529 -0.0243 -0.0195  0.1852
22072W        W42352   5.639  17.328  14.390  0.1114 -0.2896 -0.0303
22073W        W42353   0.466   9.927   0.706  0.2826  0.1793 -0.2279
22074W        W42354   6.444   9.006   0.172 -0.2520 -0.3240 -0.1118
22075W        W42355  17.728  15.881   3.918 -0.0408 -0.0459  0.1495
22076W        W42356  17.076  16.793  11.347  0.2803 -0.2958  0.1185
22077W        W42357  14.212  16.004   1.180  0.1395  0.1365 -0.2082
22078W        W42358  12.455  11.787   2.980  0.1287  0.1578  0.1791
22079W        W42359   2.810  12.825  11.523 -0.0732  0.1869 -0.2233
22080W        W42360   6.682   4.903   2.333 -0.1245  0.4762  0.0394
22081W        W42361   8.416  17.228   2.118 -0.0993  0.0430  0.1947
22082W        W42362   0.431   7.546   1.427  0.1401  0.0086  0.0129
22083W        W42363  17.316   6.844  12.777 -0.3579 -0.1154  0.1680
22084W        W42364   3.073   9.720   1.623  0.0892 -0.1290  0.0260
22085W        W42365   1.054  10.958   0.819 -0.1947 -0.1649  0.1782
22086W        W42366  10.959  16.284  11.604 -0.2081  0.1405  0.0314
22087W        W42367   2.633  11.174   1.614 -0.0834  0.0651  0.0371
22088W        W42368  18.538  16.875   3.113  0.0763 -0.4671  0.0567
22089W        W42369   0.623   1.346  12.003 -0.1195 -0.0047 -0.1051
22090W        W42370  10.724  13.259  13.455 -0.2693 -0.2274 -0.0336
22091W        W42371  10.027   4.104   0.938 -0.0281  0.0325  0.2539
22092W        W42372  11.982   9.952   2.272 -0.2814 -0.0265  0.0145
22093W        W42373  14.457   0.987   3.762  0.1366 -0.0458 -0.0319
22094W        W42374  11.833  10.490   4.718 -0.1473 -0.1664 -0.2621
22095W        W42375   5.481   5.331  11.407  0.0466  0.0908  0.3213
22096W        W42376  10.143   3.783  11.628  0.1781 -0.2068  0.1969
22097W        W42377  11.875   8.062   0.312 -0.2307  0.0791 -0.0373
22098W        W42378   2.105  14.473  11.692 -0.1201 -0.0738 -0.0329
22099W        W42379   4.170   5.178   1.041 -0.0063  0.0951  0.0041
22100W        W42380   7.375  15.325  15.235  0.0481 -0.0366 -0.3501
22101W        W42381  12.731  18.516  13.076 -0.0572  0.1772 -0.2879
22102W        W42382  17.303  15.583  13.888  0.1341  0.1360 -0.1661
22103W        W42383  18.360  13.039   2.762  0.1514  0.2184 -0.0555
22104W        W42384   5.077   1.754  13.857 -0.0942 -0.0988 -0.2658
22105W        W42385  15.576  13.757  14.548  0.1258  0.0345  0.2914
22106W        W42386   3.926   0.050  14.339  0.3199 -0.1463  0.0071
22107W        W42387  12.929  12.869   0.881  0.1693 -0.0514 -0.1085
22108W        W42388  15.352  14.175  13.819 -0.2085 -0.2272  0.0213
22109W        W42389  11.548  14.835   3.603  0.2956  0.0473 -0.0688
22110W        W42390  14.744  13.501  13.052 -0.0698  0.2934  0.1834
22111W        W42391  11.585   2.407   2.278  0.1590 -0.0109  0.1841
22112W        W42392  17.655   8.308  14.788  0.0613 -0.0393 -0.1582
22113W        W42393  15.879   6.582   0.057 -0.3003  0.3447  0.2086
22114W        W42394  13.626  14.988   0.170  0.0951 -0.0635  0.0989
22115W        W42395   7.862   3.270   3.488  0.1926  0.0747 -0.1531
22116W        W42396   4.739  11.784   0.518  0.0043  0.0036 -0.1621
22117W        W42397   7.259   8.630   1.899  0.0720 -0.1615  0.1900
22118W        W42398  10.659   8.935   2.688 -0.2870 -0.1959 -0.0285
22119W        W42399   4.024   7.092   1.531 -0.1170 -0.2179 -0.2816
22120W        W42400  13.875   4.937  11.821  0.0037 -0.0618  0.1407
22121W        W42401  13.889  18.561  15.227 -0.0485 -0.2201  0.1798
22122W        W42402   6.151   0.900   2.845  0.2781  0.0404  0.0890
22123W        W42403  15.471   3.286  14.013 -0.0301  0.1038  0.2253
22124W        W42404  17.557   1.718   0.048  0.1347 -0.2469 -0.2566
22125W        W42405  15.707   4.873   0.217 -0.4622 -0.1881 -0.3447
22126W        W42406   0.958  12.122   3.970  0.0949  0.2371  0.0446
22127W        W42407  10.015   2.287   1.901 -0.0903  0.0821 -0.1872
22128W        W42408   9.014  14.721  10.747  0.2681  0.2185  0.3579
22129W        W42409  13.048  18.588  11.660  0.0613  0.4558 -0.1102
22130W        W42410  11.600   2.787  15.367 -0.2312 -0.2064 -0.0749
22131W        W42411  15.240  10.765   3.443 -0.1664  0.1533 -0.0761
22132W        W42412   5.777   7.499   0.867  0.1542 -0.0002  0.1289
22133W        W42413   2.227  13.367  11.333  0.1693 -0.2881 -0.1247
22134W        W42414   6.760   8.592   1.044 -0.1688 -0.2106  0.0165
22135W        W42415   9.870  12.460   0.354  0.0606  0.2321 -0.0122
22136W        W42416   5.652   4.062  13.221 -0.0240  0.0377 -0.1404
22137W        W42417  16.522   9.508   2.853 -0.4133 -0.0821 -0.0231
22138W        W42418  11.748   6.786  15.148 -0.0579 -0.1809  0.1252
22139W        W42419   3.943  14.791  10.783  0.1725  0.4540 -0.0483
22140W        W42420   6.909  13.398   4.170  0.1986  0.0325 -0.3533
22141W        W42421   9.543   7.551  14.636 -0.2242 -0.1670  0.1799
22142W        W42422  15.685  17.585   0.423 -0.1537 -0.1275 -0.0472
22143W        W42423   9.080  10.014   1.798  0.1473  0.1418 -0.0153
22144W        W42424   6.470  14.926  12.969 -0.1608 -0.1696  0.2488
22145W        W42425   4.096  17.136   3.010  0.0481  0.1188 -0.0846
22146W        W42426   2.741  10.840  13.207 -0.1104  0.1122  0.2756
22147W        W42427   7.172  18.722  12.347 -0.4189 -0.2060 -0.2150
22148W        W42428   4.992   5.962   1.265 -0.1805  0.1174  0.0619
22149W        W42429   1.189   9.554  14.539  0.1029  0.2145  0.3722
22150W        W42430   0.855   3.627  14.330  0.0462 -0.0917 -0.0637
22151W        W42431  13.067  12.370  12.934  0.2139 -0.2450  0.1290
22152W        W42432  12.891   9.750   2.808  0.0870  0.2380 -0.0872
22153W        W42433   5.934  17.260  10.632 -0.2089  0.0793  0.1740
22154W        W42434  17.614   4.012   4.722 -0.0288  0.0278  0.1805
22155W        W42435   9.792   6.866   2.181 -0.1490 -0.2096 -0.1880
22156W        W42436  17.020  18.291   2.950  0.2177  0.2474  0.0958
22157W        W42437   1.374   2.602  13.959  0.0530 -0.1497 -0.1944
22158W        W42438  10.242   1.662  14.091 -0.0774  0.0052  0.0981
22159W        W42439   4.486  14.680  14.000 -0.1131 -0.0440  0.0977
22160W        W42440   8.757   0.258   2.215 -0.0450 -0.2487  0.3931
22161W        W42441  16.339   2.843  11.108 -0.1794  0.1162 -0.4905
22162W        W42442  16.747  13.869   2.271  0.2538  0.2259  0.2170
22163W        W42443  18.589   1.397   3.609 -0.0096 -0.2941 -0.2209
22164W        W42444   3.700  13.684  11.135 -0.1391  0.0462  0.2709
22165W        W42445   7.929  12.000   0.115 -0.0794  0.1792 -0.0514
22166W        W42446   5.336  10.201  14.398  0.1204  0.1860 -0.2765
22167W        W42447  15.659  14.747   1.131  0.2698  0.0017  0.3053
22168W        W42448   3.124  11.791   1.060  0.3758 -0.1949  0.1600
22169W        W42449  11.771   5.883  11.757  0.0639  0.0489 -0.0120
22170W        W42450  16.555  15.805   4.334  0.3195  0.0619  0.0233
22171W        W42451   7.850   2.403   2.008 -0.0236 -0.3905 -0.0710
22172W        W42452  13.278  15.644  14.961 -0.1315  0.1459 -0.3386
22173W        W42453   4.088  11.547   1.675 -0.0426  0.0912  0.0267
22174W        W42454  16.202  13.120   1.778 -0.0492  0.2004 -0.1991
22175W        W42455   6.845   0.262  12.499  0.2276  0.0762 -0.0640
22176W        W42456  13.826   8.849  12.242 -0.2212  0.2315 -0.0450
22177W        W42457   6.431  11.302  13.424  0.0152 -0.1741  0.2323
22178W        W42458   4.110   9.835   3.714  0.0495 -0.1492 -0.0713
22179W        W42459  18.259  13.372   2.403  0.1230 -0.2440  0.1390
22180W        W42460   0.576  13.008   4.040 -0.2655 -0.0020 -0.1794
22181W        W42461  12.248  14.273  14.029 -0.0592 -0.1907  0.2045
22182W        W42462  17.483  11.299  14.583  0.0839  0.0672  0.2475
22183W        W42463   8.081   9.894  13.246 -0.0660  0.0726 -0.2817
22184W        W42464   3.705   1.617  13.267  0.1377 -0.0972  0.0880
22185W        W42465   5.246  18.334   0.979  0.0430 -0.0167 -0.2139
22186W        W42466  14.980  14.120  11.633 -0.2893 -0.2054 -0.1228
22187W        W42467  17.768   0.401  12.008 -0.0561 -0.1857 -0.0075
22188W        W42468  16.610  11.893   4.111  0.3016 -0.2282 -0.0743
22189W        W42469  18.497   6.357   1.055  0.0231  0.0650  0.0078
22190W        W42470   5.498   3.409  11.961 -0.1409 -0.0419  0.0782
22191W        W42471  18.195   1.014   0.203 -0.2236 -0.1679  0.1187
22192W        W42472  13.953   9.091   1.011  0.1634 -0.1038  0.1928
22193W        W42473   0.565   9.964  14.982 -0.0356 -0.1585  0.3403
22194W        W42474  16.417  16.524   1.081  0.2099 -0.2310 -0.0060
22195W        W42475   9.726   4.641   2.750  0.1329 -0.2144  0.1100
22196W        W42476   8.545  14.733   0.087  0.0213 -0.2862  0.1502
22197W        W42477   7.098   6.765   0.869 -0.3988 -0.2930 -0.2434
22198W        W42478  15.945  17.597  14.973 -0.0161  0.2886  0.1761
22199W        W42479   5.155   3.225   2.963  0.1581  0.2084 -0.1817
22200W        W42480   6.676  13.623  14.889  0.1988  0.3416  0.0215
22201W        W42481  14.291  16.458   2.999 -0.2575 -0.1550 -0.0281
22202W        W42482   1.876  17.662   1.386  0.1362  0.0473 -0.3097
22203W        W42483   7.937  12.410   3.929 -0.0029  0.1579 -0.0804
22204W        W42484   4.436   9.703  13.975  0.1663 -0.0497 -0.1102
22205W        W42485   9.165  10.229  13.086  0.3178 -0.3404  0.1660
22206W        W42486   9.656   8.152   0.048  0.0194 -0.0794 -0.0359
22207W        W42487   6.077   4.215   3.603 -0.3639 -0.0513  0.0324
22208W        W42488   5.571   6.940  15.161  0.3405 -0.1626 -0.2627
22209W        W42489   0.906  10.787   3.536 -0.3196 -0.1677  0.0139
22210W        W42490   4.270   0.523  11.831  0.1920 -0.1006  0.0703
22211W        W42491  11.633   8.618  13.637  0.1093  0.2891  0.2358
22212W        W42492  11.507  14.719  15.390  0.2728 -0.0960 -0.0935
22213W        W42493  13.637  12.900  15.106  0.0425  0.1727 -0.1972
22214W        W42494  13.736  15.199  11.008 -0.2366 -0.1676  0.0274
22215W        W42495  14.478   0.432   2.406 -0.1909  0.4041 -0.0490
22216W        W42496   2.050  15.073   3.973  0.2342 -0.3970  0.0245
22217W        W42497   9.194  10.949  14.908  0.0783 -0.4336  0.4125
22218W        W42498   2.318   8.711   2.741  0.0672 -0.1480 -0.1553
22219W        W42499   8.631  16.539  12.070  0.2602  0.2361  0.0545
22220W        W42500  12.177   7.202  14.335 -0.0989  0.0586 -0.1138
22221W        W42501  15.906   6.555  11.938  0.5545  0.0333 -0.0969
22222W        W42502  13.662  11.549  12.809 -0.2296 -0.1159  0.1405
22223W        W42503   1.348   0.480  12.587 -0.1078 -0.0015  0.2481
22224W        W42504   9.016   1.039   2.666 -0.0150 -0.1442 -0.1147
22225W        W42505   9.880   9.200   4.200 -0.1521  0.0082  0.0413
22226W        W42506  13.723   8.714   2.710  0.0489  0.3027  0.0466
22227W        W42507   7.875  11.749  11.368  0.0581  0.2440  0.0759
22228W        W42508  12.507  14.432  12.338 -0.2661  0.1550  0.1309
22229W        W42509   8.080   5.657  13.283 -0.2037  0.2935  0.1142
22230W        W42510   6.694  14.068  13.989 -0.1687  0.1480  0.0443
22231W        W42511   6.409   0.052   0.428 -0.0858 -0.1326 -0.1694
22232W        W42512   7.351  13.200  12.725 -0.1172  0.1555 -0.0322
22233W        W42513  18.382  10.830  11.383 -0.0668  0.1759  0.2558
22234W        W42514   8.292   2.778  13.247  0.0511  0.0762  0.0904
22235W        W42515   2.694   8.070   3.873  0.0690 -0.0933  0.1943
22236W        W42516   2.348  10.583  11.519  0.0974  0.0029 -0.2380
22237W        W42517   7.581  16.808  13.351 -0.0371  0.1077  0.2743
22238W        W42518  16.911   0.047   3.761 -0.3715 -0.2261 -0.1504
22239W        W42519  18.480  10.467   4.118 -0.0001 -0.1707 -0.1823
22240W        W42520   4.135   6.185   2.450  0.0407  0.1128  0.2289
22241W        W42521   0.511   9.097   1.819  0.1021 -0.3558 -0.2222
22242W        W42522  12.065   4.682   0.154 -0.0005  0.0282  0.3030
22243W        W42523   5.752   4.099  12.457  0.3212  0.2283  0.2299
22244W        W42524   9.225   8.607   3.189  0.0466 -0.0568 -0.0138
22245W        W42525  15.671   4.703  14.829 -0.0975  0.0954 -0.1017
22246W        W42526  10.481   9.722  15.120 -0.1315  0.0401  0.0585
22247W        W42527   0.989  17.478  15.136  0.0839 -0.0640  0.2926
22248W        W42528  17.511   6.059  13.169 -0.1312 -0.2838  0.1484
22249W        W42529   3.554  10.368  13.507  0.2037 -0.2349 -0.2132
22250W        W42530  11.429   9.119  11.432 -0.1199 -0.0433 -0.0084
22251W        W42531  16.934   8.495   4.454  0.1113  0.1413  0.1671
22252W        W42532  14.991   8.553   5.825 -0.2604 -0.1067  0.0908
22253W        W42533   3.428   1.486  11.705 -0.3153  0.1200 -0.1414
22254W        W42534  14.363   0.578   3.488  0.1267 -0.2650 -0.1430
22255W        W42535  18.716   9.657   0.863  0.0041 -0.1002 -0.0754
22256W        W42536  10.955   2.977  12.617 -0.1913 -0.1366  0.0764
22257W        W42537  11.974  18.011  12.061 -0.0874 -0.0981 -0.1691
22258W        W42538  15.482   1.155  11.786  0.4699  0.0801  0.2744
22259W        W42539   4.933   5.542  12.598  0.1982  0.2696 -0.1855
22260W        W42540  17.639  11.775  15.193  0.0146 -0.0894  0.0409
22261W        W42541  10.623   6.438   2.228 -0.5317  0.2517 -0.0473
22262W        W42542   7.599  18.027   0.172  0.0322 -0.0649 -0.0189
22263W        W42543   2.838  17.435  10.163 -0.0598  0.1449 -0.1235
22264W        W42544   3.090  10.122   0.172  0.0796  0.1692 -0.2015
22265W        W42545  16.228  16.846   2.048  0.0545 -0.2198  0.0896
22266W        W42546  15.173   6.972   4.392 -0.0737 -0.3538 -0.0207
22267W        W42547  15.906   6.104  15.208 -0.2157 -0.0780  0.1242
22268W        W42548  14.464  11.038   3.870  0.4125  0.1744 -0.0785
22269W        W42549  13.624   7.717   1.925  0.1895 -0.2142 -0.2050
22270W        W42550   6.667   5.393  14.105  0.2283 -0.1746 -0.1257
22271W        W42551   1.704  17.059   2.815  0.1538 -0.0348  0.1191
22272W        W42552   8.276   2.353  15.383  0.0853 -0.0131 -0.1063
22273W        W42553   3.532   3.447   2.019  0.1140 -0.2783  0.1992
22274W        W42554   9.197  11.386   3.706 -0.2116  0.0356 -0.3212
22275W        W42555   6.069   5.416   1.839  0.3293 -0.3730  0.0266
22276W        W42556   8.442   3.266   0.006  0.0908 -0.0472 -0.2695
22277W        W42557   7.303   8.164  15.122 -0.0453  0.1557 -0.1299
22278W        W42558  15.998  10.079   0.843  0.2273 -0.1969 -0.2693
22279W        W42559   9.902   7.230  12.912  0.1009  0.0240  0.0090
22280W        W42560  16.351   8.653   0.079 -0.2387 -0.0267 -0.1448
22281W        W42561   8.090   0.636  13.926 -0.0402  0.2509 -0.0556
22282W        W42562  13.737   1.941   3.585 -0.1482 -0.0162 -0.3528
22283W        W42563   4.867   8.011  14.050 -0.3694  0.0275 -0.2450
22284W        W42564  15.466  11.292   3.509  0.0401 -0.1033 -0.1236
22285W        W42565   1.865   2.835  13.948 -0.2128  0.0372  0.0261
22286W        W42566  17.705  16.035  14.935 -0.1114 -0.0708  0.0672
22287W        W42567   1.716   1.258  14.694 -0.1122  0.2785 -0.0103
22288W        W42568   8.470   6.618   1.087 -0.2217 -0.0128  0.0497
22289W        W42569  12.530   4.143   1.831  0.0932 -0.1077 -0.3975
22290W        W42570  16.652  17.474  12.525  0.3350 -0.1600  0.0865
22291W        W42571  10.910   6.105   1.269 -0.0759 -0.1247  0.1244
22292W        W42572  16.515  13.973   4.230  0.0720 -0.2894 -0.1268
22293W        W42573   7.140   9.088  13.851 -0.0085 -0.0015 -0.3492
22294W        W42574  12.361  13.938   1.106  0.3317  0.2119  0.1383
22295W        W42575  11.771   4.565  13.435  0.0228 -0.1486  0.0004
22296W        W42576   7.747   5.635  13.737 -0.2023 -0.1836 -0.3141
22297W        W42577   4.550   8.867  11.890  0.0871  0.0131 -0.0912
22298W        W42578  17.937  10.429   4.524 -0.2149  0.4341 -0.0350
22299W        W42579   9.279  11.540  12.901  0.3101  0.0423 -0.0068
22300W        W42580  11.991  15.597  11.313  0.0062 -0.0259  0.1070
22301W        W42581   7.382  11.008   3.382  0.0981  0.1736 -0.1538
22302W        W42582  15.311   8.348  12.446  0.1210 -0.0896 -0.1212
22303W        W42583  14.674   8.463   2.138  0.1581 -0.1005  0.2606
22304W        W42584  16.756   4.092  12.676  0.0473 -0.2244  0.0261
22305W        W42585  14.520  17.628   2.517 -0.4690  0.1915 -0.1934
22306W        W42586  12.263   2.318   1.204  0.2653  0.0321 -0.1000
22307W        W42587   4.567  15.890   2.498  0.0175  0.0286 -0.1257
22308W        W42588  17.204   4.708   0.622  0.1831  0.0535  0.4191
22309W        W42589  15.215   4.132  14.422 -0.1825 -0.0116 -0.1795
22310W        W42590   3.469   5.949   1.954  0.0760  0.0845 -0.0562
22311W        W42591  12.165  14.172   5.473 -0.2653  0.0065  0.1892
22312W        W42592  18.327  16.481   3.490 -0.0328  0.3778 -0.0506
22313W        W42593   7.164   8.773   3.896 -0.0240 -0.0161 -0.1027
22314W        W42594   4.790   7.802   2.786  0.0050 -0.2679 -0.1627
22315W        W42595   1.576   7.166   2.280 -0.0439  0.2083 -0.2646
22316W        W42596   4.886   3.043   4.066  0.2829 -0.3066  0.1577
22317W        W42597   8.993  12.901  10.662  0.0731 -0.2371  0.0035
22318W        W42598   6.471  10.285  13.737  0.0768  0.1043 -0.0416
22319W        W42599  12.416   1.006  11.311 -0.1535 -0.1301 -0.0363
22320W        W42600   8.545   3.185   1.657  0.1583  0.1395  0.0492
22321W        W42601  15.257  14.603   3.128  0.2467 -0.1026 -0.1600
22322W        W42602  10.334  11.741  14.591  0.0779  0.1088 -0.0396
22323W        W42603   7.110  16.179  11.102 -0.0223  0.1686  0.1469
22324W        W42604   1.711  17.881   0.187  0.0683 -0.0780  0.1828
22325W        W42605   5.223   3.015   3.721  0.1724  0.2348 -0.1130
22326W        W42606  15.253   7.558  13.046  0.0823 -0.3362  0.1066
22327W        W42607   8.896   3.641   2.520  0.0377 -0.4159 -0.2819
22328W        W42608   8.899   0.505   4.246 -0.0978  0.2225  0.1539
22329W        W42609  16.608   4.382   2.976 -0.0594 -0.3091  0.1340
22330W        W42610   6.702   4.439   2.520  0.3505  0.2258 -0.3474
22331W        W42611   6.658  16.714   4.116  0.0245 -0.0352  0.2901
22332W        W42612  13.250   9.274   4.141 -0.1384 -0.0284  0.1760
22333W        W42613  16.223  16.295   1.522 -0.1715 -0.0045 -0.3373
22334W        W42614   7.962   5.598  11.788  0.0408 -0.0708 -0.2168
22335W        W42615  11.652   8.311   3.610 -0.2538  0.0346 -0.0309
22336W        W42616  16.959   8.434  12.818 -0.0412  0.0721  0.0304
22337W        W42617   4.829  17.133  12.089  0.2195 -0.1621  0.0128
22338W        W42618  10.355   1.978   3.721 -0.1245  0.1226  0.3317
22339W        W42619   3.988   4.283   2.333 -0.1173  0.0458 -0.1228
22340W        W42620  11.245  17.499   0.629  0.0143  0.1562 -0.0561
22341W        W42621   9.869  14.105   3.837  0.0193 -0.4565 -0.2097
22342W        W42622   3.477  17.529   0.576  0.1157 -0.0649 -0.0187
22343W        W42623  13.972   3.900  13.747 -0.0314  0.2628 -0.1889
22344W        W42624   0.258   5.093   1.062 -0.0491  0.2503 -0.0549
22345W        W42625   7.784   4.542  13.203 -0.2350  0.0051 -0.1612
22346W        W42626  13.933  15.023   0.564 -0.0838 -0.1857 -0.0141
22347W        W42627   7.097  13.722   3.221 -0.4315  0.2738  0.2767
22348W        W42628  16.974  14.029  11.991  0.0823  0.3033 -0.1873
22349W        W42629  13.629  11.842   0.970 -0.1325 -0.0328 -0.1203
22350W        W42630   6.023  13.612  11.580 -0.0172 -0.0463 -0.1478
22351W        W42631  14.043   5.809   2.764 -0.2489  0.0843  0.0480
22352W        W42632   0.851   0.708  10.025  0.2758  0.0976  0.0668
22353W        W42633   0.095  14.606   3.404 -0.0688 -0.0900 -0.4067
22354W        W42634   0.458   0.492   4.436  0.0203  0.1169 -0.0886
22355W        W42635  11.151  11.218   1.382  0.2074 -0.0070 -0.0507
22356W        W42636   1.599  12.625   5.119 -0.0636 -0.0519 -0.1035
22357W        W42637   6.444  12.650   1.708 -0.1449  0.1534 -0.1494
22358W        W42638   4.765   6.672   2.399 -0.0395  0.1626 -0.0142
22359W        W42639   1.661  14.300  11.176 -0.0601 -0.1623  0.0197
22360W        W42640   0.681   0.607   0.431  0.0660 -0.0693  0.2064
22361W        W42641  13.115   3.360   2.754  0.1312  0.0518  0.0669
22362W        W42642   8.602   9.720   3.373  0.2502 -0.0204 -0.0879
22363W        W42643  12.036   1.547   2.129 -0.3307 -0.0180  0.2372
22364W        W42644  18.350   4.263   3.462  0.2362  0.0350  0.1250
22365W        W42645   4.950   5.176  11.331 -0.3257  0.0153 -0.1267
22366W        W42646   3.527  14.142  13.695 -0.0685 -0.0614 -0.1770
22367W        W42647  14.634   9.102   3.076 -0.0292  0.0674  0.1799
22368W        W42648  10.733  15.025   0.883 -0.3901  0.0399 -0.0082
22369W        W42649   8.325   1.039  11.839 -0.0373 -0.0640 -0.3011
22370W        W42650   9.456  17.454   4.083  0.3761 -0.3084  0.0663
22371W        W42651   6.479  16.136  10.601  0.3677  0.2270  0.1417
22372W        W42652   0.637   0.826   3.171  0.1049  0.3748 -0.1072
22373W        W42653   6.330  13.810  11.176  0.0095  0.0847 -0.1903
22374W        W42654  15.272  15.205   1.737 -0.1418  0.2418  0.0118
22375W        W42655   1.792   5.077  11.647  0.0303  0.1648  0.1110
22376W        W42656  16.140   4.748  15.327  0.0287 -0.0934  0.2033
22377W        W42657   5.224   7.976   1.905 -0.1006  0.1613  0.0937
22378W        W42658  14.465   5.663   2.974  0.2867 -0.0956  0.0534
22379W        W42659  10.678   5.071  11.190 -0.0330 -0.0192  0.0393
22380W        W42660  18.101  15.966   1.693  0.0965 -0.1409 -0.0139
22381W        W42661  10.483   7.871   4.078 -0.5999 -0.0190 -0.0725
22382W        W42662   2.529   5.772  13.821 -0.5000  0.0679  0.0405
22383W        W42663  15.132   7.073   2.485  0.0723 -0.1316 -0.1941
22384W        W42664  16.707   5.077   2.335  0.1568  0.2340 -0.1019
22385W        W42665  14.146   5.022  14.856 -0.0251  0.1306  0.2142
22386W        W42666   3.120   7.254   2.274 -0.1111  0.1152  0.0082
22387W        W42667   4.102   8.446  14.554 -0.3015 -0.0009 -0.1492
22388W        W42668  13.345   5.242   3.347 -0.0262  0.2015 -0.1229
22389W        W42669  13.326   1.854  12.611  0.0150 -0.0045  0.2492
22390W        W42670   6.232  16.414   2.570 -0.0532  0.1324 -0.2120
22391W        W42671   4.628   4.416   1.951 -0.1473 -0.0934 -0.1916
22392W        W42672  11.114  11.566   1.771 -0.1876  0.2471 -0.1575
22393W        W42673  13.994  13.852   4.588  0.2344  0.1746  0.4205
22394W        W42674   6.840  16.483   1.911  0.1601 -0.1593  0.1858
22395W        W42675  14.054   6.007   0.845  0.2186 -0.2068 -0.0939
22396W        W42676   8.997   7.906   4.265  0.0833  0.0284  0.1172
22397W        W42677  10.299   1.199  15.316  0.1282  0.2904  0.1209
22398W        W42678   2.333  11.123   2.498 -0.0845  0.0841  0.0373
22399W        W42679   4.803  13.549   1.084  0.2641 -0.0036 -0.3634
22400W        W42680  11.037   3.501   1.317 -0.0292 -0.0540 -0.0973
22401W        W42681  15.558   8.656   2.520  0.0487 -0.0720  0.1364
22402W        W42682   8.595  12.536  14.330 -0.4231 -0.1780  0.0511
22403W        W42683  14.064   9.557   4.157  0.0396 -0.0922 -0.1645
22404W        W42684  10.003  15.492  10.769 -0.2137  0.1303  0.1571
22405W        W42685  14.080   7.217  13.137 -0.2193 -0.0840 -0.0576
22406W        W42686  18.572   5.632  11.091 -0.0044 -0.2888 -0.0321
22407W        W42687   9.644  10.646  12.036 -0.0264  0.1130 -0.1967
22408W        W42688   5.175   8.416   2.148  0.0117  0.0803 -0.1878
22409W        W42689  12.474   0.503  13.281  0.1538 -0.1834 -0.1477
22410W        W42690  16.452   5.784   1.001 -0.0364  0.2437 -0.3448
22411W        W42691   1.886   3.107   1.633 -0.1554 -0.2518 -0.1173
22412W        W42692  11.539   6.484   1.897  0.0391 -0.1170  0.0947
22413W        W42693   8.385   8.850  11.883 -0.1732 -0.4164  0.2025
22414W        W42694  12.120  16.899   3.459  0.0688  0.3575  0.0429
22415W        W42695   6.043  12.923   1.427 -0.1941  0.2193  0.0664
22416W        W42696  14.512   2.656   2.667  0.0681  0.2059 -0.3590
22417W        W42697   5.181  11.182   0.870  0.1550 -0.0287 -0.0862
22418W        W42698  10.217   8.285   1.781  0.0756  0.1886 -0.0594
22419W        W42699   0.631   3.104   1.328  0.0270  0.0499 -0.0183
22420W        W42700   6.446   3.266   0.721  0.2939 -0.0610  0.3579
22421W        W42701  17.888   6.164   3.886 -0.0821  0.2486  0.0880
22422W        W42702   1.155  16.624   3.462 -0.3509 -0.0691  0.1365
22423W        W42703   0.236  15.922  11.780 -0.0783  0.0896  0.1945
22424W        W42704  17.392   8.102  15.124  0.0584 -0.0060 -0.2320
22425W        W42705   7.870   6.820   1.957 -0.0626  0.2523 -0.2522
22426W        W42706  14.436   6.902   3.406 -0.1992 -0.1679  0.0258
22427W        W42707   3.270   9.780  14.730  0.1982  0.0991  0.1708
22428W        W42708   1.929   7.852   1.724  0.2346  0.0060 -0.0975
22429W        W42709   9.591  17.628   1.848  0.2165  0.1709  0.1306
22430W        W42710   7.218   3.058  14.891  0.1266  0.2945 -0.0035
22431W        W42711  14.486  18.728  11.487 -0.2153  0.1171 -0.2117
22432W        W42712  18.460  16.150   4.369 -0.0838 -0.1496  0.2405
22433W        W42713   5.922   6.446   3.797  0.0855 -0.0922  0.2139
22434W        W42714   5.919   6.743  14.026  0.1861  0.1233 -0.4699
22435W        W42715  14.918  15.569   1.036 -0.1115 -0.0029 -0.3410
22436W        W42716  17.935   9.480  14.128  0.0311 -0.2468 -0.1365
22437W        W42717  18.557   7.592   4.253  0.1884  0.3168 -0.3530
22438W        W42718  14.405  16.579  14.442 -0.0639 -0.2272 -0.3280
22439W        W42719  12.641  15.343   3.695 -0.1349 -0.1453  0.0097
22440W        W42720   8.994  10.529  11.465  0.1520 -0.2192 -0.0429
22441W        W42721   3.618  15.318  11.641 -0.0882  0.2536  0.2792
22442W        W42722   6.066  10.426   9.971 -0.1082 -0.0269 -0.1985
22443W        W42723  15.071  16.663  13.823 -0.1983  0.2424  0.0170
22444W        W42724   1.455  10.045   0.867 -0.0221  0.0059 -0.1198
22445W        W42725   9.586   5.007   0.435 -0.0386 -0.0673 -0.2230
22446W        W42726   1.874   4.199  13.015  0.0353 -0.2416 -0.0362
22447W        W42727  10.850  12.074  11.555  0.4588  0.1424 -0.0779
22448W        W42728   3.849  12.317  10.111  0.0921  0.3214 -0.3471
22449W        W42729  16.208   4.673   2.828  0.1724 -0.1308 -0.1673
22450W        W42730  14.466  17.103  13.128 -0.1896 -0.0876  0.2938
22451W        W42731   5.680   9.350  14.041 -0.0300  0.2567  0.5000
22452W        W42732   8.127  16.213  13.667 -0.0888 -0.2662 -0.0896
22453W        W42733   7.494   1.587  15.386  0.2355  0.2112 -0.2044
22454W        W42734   3.131  16.524  12.736  0.0150 -0.3368  0.2491
22455W        W42735   1.146   2.276   4.040  0.3055 -0.0167 -0.2022
22456W        W42736   7.377   6.277  11.799  0.2514 -0.0731  0.2850
22457W        W42737  10.688   3.628  11.811 -0.1932  0.2179  0.1547
22458W        W42738  13.086   4.084   1.612 -0.0047  0.1389 -0.0500
22459W        W42739  13.201   4.520   3.676  0.1304  0.0421  0.0423
22460W        W42740  10.413   6.145  11.802 -0.2056  0.0523 -0.0126
22461W        W42741  15.461  16.637   2.208  0.4215 -0.1799 -0.1441
22462W        W42742  15.903  12.415  14.076  0.1825  0.2414  0.2088
22463W        W42743  12.513  10.639  14.031 -0.0160 -0.0488 -0.0451
22464W        W42744  10.920   9.897   1.949  0.3058 -0.0063  0.2118
22465W        W42745  18.224   5.393  11.766 -0.0674  0.3177  0.0660
22466W        W42746  14.454  16.669   2.053  0.1017 -0.2103 -0.3112
22467W        W42747   6.148   4.213  14.510  0.0261 -0.1537 -0.0774
22468W        W42748   6.991  10.916   1.121 -0.0455 -0.0926  0.1924
22469W        W42749  13.869  16.274  14.507  0.0696 -0.0255 -0.1769
22470W        W42750   5.468   0.762   4.176 -0.0272 -0.0215 -0.1435
22471W        W42751  12.592  16.760   0.088 -0.1336  0.0736 -0.2085
22472W        W42752  16.330   8.768   3.263  0.1547  0.1479 -0.0027
22473W        W42753   5.849  12.305   3.494  0.1501 -0.0887  0.0432
22474W        W42754  14.420   9.184   1.238  0.1262  0.0248  0.0924
22475W        W42755   1.615  15.794   2.057 -0.2283  0.0981 -0.0077
22476W        W42756  12.678  14.880  14.025  0.0998  0.0627  0.2492
22477W        W42757  10.500   3.951  15.340 -0.0285  0.1764  0.2369
22478W        W42758   1.982  11.918  13.012 -0.1630 -0.0006  0.1707
22479W        W42759  10.726   9.697  12.552  0.2237 -0.0767 -0.1830
22480W        W42760  16.045  11.030  13.995  0.0653  0.0467 -0.0143
22481W        W42761  12.912  14.097   0.936 -0.0027 -0.0417  0.1934
22482W        W42762   3.078   9.013   3.402 -0.0980  0.0182  0.3166
22483W        W42763   2.393   9.896   3.823  0.1241  0.0264  0.2541
22484W        W42764   6.382  14.772  12.436  0.1012 -0.0644 -0.0784
22485W        W42765  10.814  11.036  11.849  0.0586 -0.0445  0.1654
22486W        W42766  10.188   1.115   0.388 -0.1473 -0.0836 -0.0902
22487W        W42767   9.748   0.326   4.053 -0.0719  0.0743  0.0206
22488W        W42768   9.897   1.773  13.787  0.0589  0.1957  0.2266
22489W        W42769  12.316   7.043   1.680  0.0407 -0.1699 -0.1957
22490W        W42770  13.070  16.583   0.269  0.1312  0.0312  0.3045
22491W        W42771  17.885   3.329   4.128  0.0006  0.2424  0.1750
22492W        W42772   1.683  13.412   0.801  0.2210  0.2111  0.2100
22493W        W42773  13.478  16.001   1.260 -0.0613 -0.1386  0.0513
22494W        W42774  15.483  11.484   4.056  0.1585 -0.0138 -0.1204
22495W        W42775   6.348  16.363   1.608 -0.1508  0.0898 -0.1108
22496W        W42776   7.845   2.071   0.167  0.2805 -0.0807 -0.0415
22497W        W42777   4.493   5.214   2.123  0.0791 -0.0002  0.0925
22498W        W42778  12.918  10.118  14.151 -0.3933 -0.0748 -0.4650
22499W        W42779  12.197   7.896  13.762 -0.2114  0.2632  0.3938
22500W        W42780  15.794  12.981   2.113  0.0170 -0.2342 -0.3017
22501W        W42781   3.023   0.560   0.459  0.1457  0.2006 -0.1622
22502W        W42782  17.371  18.691   2.771 -0.2215 -0.0256  0.0267
22503W        W42783   9.262   2.201   0.904 -0.0083  0.0548  0.0112
22504W        W42784   6.022   6.808   4.156 -0.1138  0.0825 -0.2453
22505W        W42785  14.463   2.408  14.383 -0.3466 -0.0042 -0.0711
22506W        W42786   1.070  14.129   0.783  0.2100 -0.0653  0.0170
22507W        W42787  16.808  16.965   1.227  0.0690 -0.0058  0.1070
22508W        W42788  16.872   5.089  13.610 -0.1141 -0.0599  0.1966
22509W        W42789   6.908  10.820   2.174  0.2594  0.0797 -0.1161
22510W        W42790  14.404   4.385   4.629 -0.1109 -0.0578  0.0567
22511W        W42791  11.435  11.083   2.322 -0.0821 -0.0428  0.2977
22512W        W42792   5.645  17.018   0.203 -0.1350 -0.1453  0.2045
22513W        W42793  14.126   4.527  13.514 -0.1507  0.0837 -0.0563
22514W        W42794   5.272  10.807   3.399  0.1707  0.1695 -0.3690
22515W        W42795   6.703   9.453   4.604  0.1748  0.1305 -0.0725
22516W        W42796   3.050   8.581  13.539  0.1277 -0.0853 -0.0244
22517W        W42797  16.072  10.123  12.197  0.0589  0.1077  0.0490
22518W        W42798   3.527   6.944   2.119 -0.2473  0.0840 -0.2666
22519W        W42799   0.494   1.123  10.194  0.0702 -0.4226 -0.3407
22520W        W42800   8.331   1.349   2.923 -0.0513 -0.0126 -0.0965
22521W        W42801   8.064  13.785  12.618  0.3069  0.0884 -0.0177
22522W        W42802   0.215  11.753  11.099  0.3412  0.1040 -0.0206
22523W        W42803   8.141   4.630   1.402 -0.3478  0.1140  0.1675
22524W        W42804  15.765   8.221   1.466  0.3548  0.1348 -0.2105
22525W        W42805   6.977   9.477  13.015  0.0813  0.0025 -0.1325
22526W        W42806  11.601  13.113  14.461 -0.0234  0.2609  0.2705
22527W        W42807   0.405  18.545   1.560  0.4124  0.0415 -0.0820
22528W        W42808   3.872   4.034   3.569 -0.1847  0.2256  0.1152
22529W        W42809   9.775   2.422  13.030  0.1666  0.0820  0.2751
22530W        W42810  12.846  17.392  11.271 -0.2662 -0.1706  0.3005
22531W        W42811   8.446   1.870  15.149 -0.2890  0.0845  0.2144
22532W        W42812  12.817   8.291  15.257 -0.0871  0.0658 -0.3417
22533W        W42813   0.660   1.384  14.041 -0.1917  0.0432  0.2268
22534W        W42814  12.340  11.536  11.036  0.2207  0.2717  0.1810
22535W        W42815   2.967   1.815   1.454  0.1831 -0.0243  0.0160
22536W        W42816   8.652   0.220  10.775 -0.0049  0.2403  0.3713
22537W        W42817   8.003  11.606   0.524  0.1741  0.2050  0.4007
22538W        W42818   2.064   1.698  13.631  0.1553  0.2320 -0.2407
22539W        W42819   6.906  17.172  14.912  0.0390  0.1973 -0.3797
22540W        W42820  10.328  15.833   1.663 -0.2146  0.1056 -0.2619
22541W        W42821   0.744   2.226  10.922  0.1384  0.0763  0.2246
22542W        W42822   7.230   2.163   2.603  0.1203  0.0851 -0.4296
22543W        W42823   1.585  16.054   3.016  0.0911 -0.3282  0.0056
22544W        W42824  10.213   2.437  11.762 -0.0312 -0.3158  0.3138
22545W        W42825  18.464   2.464   3.417  0.0345 -0.3428  0.0752
22546W        W42826  15.984   1.970  12.197 -0.0637 -0.1027 -0.2727
22547W        W42827  15.765  15.246   1.398  0.1138  0.2444  0.0881
22548W        W42828  13.261   5.964  11.997  0.0859  0.1280  0.0377
22549W        W42829  17.393  17.268   1.934  0.0196  0.0861  0.0891
22550W        W42830  12.303   0.130  13.988 -0.0492 -0.1195 -0.0838
22551W        W42831   5.302   6.337   3.681 -0.0956  0.0511  0.1086
22552W        W42832  16.318  13.157   0.271 -0.0243 -0.1382  0.2489
22553W        W42833   1.718  14.722   1.754 -0.0379  0.1239 -0.1341
22554W        W42834   9.775   5.988  12.492 -0.2046  0.2379  0.0755
22555W        W42835  14.571   5.902  13.361 -0.0310  0.0390  0.0948
22556W        W42836  11.896   8.575   2.641 -0.0941 -0.3306  0.1843
22557W        W42837   1.076   2.326   1.064  0.1614  0.0232 -0.0866
22558W        W42838  14.905  13.333   4.807  0.1835 -0.0173  0.2259
22559W        W42839  17.552  10.970  11.901  0.2239  0.1716  0.0852
22560W        W42840   2.741   3.810  15.358  0.0315  0.1210 -0.0574
22561W        W42841   9.420  15.724   2.550  0.2540 -0.1652  0.1423
22562W        W42842  12.002   4.855   2.439 -0.0577 -0.0524 -0.3121
22563W        W42843   9.670   1.474  15.007 -0.0978  0.0918  0.0481
22564W        W42844   3.112   6.420   0.745  0.2559 -0.2965 -0.0528
22565W        W42845  12.777  13.823   4.754  0.1505  0.0154 -0.1174
22566W        W42846   7.967  13.565  11.492  0.0362  0.2174 -0.1742
22567W        W42847   6.197  10.813   3.732  0.0086 -0.1582  0.2079
22568W        W42848  18.599  11.925   0.585 -0.0303  0.1220  0.1303
22569W        W42849   0.027   6.739  11.220 -0.2270  0.4119  0.1854
22570W        W42850  12.915   7.678   3.082  0.0146 -0.3480  0.2578
22571W        W42851   8.009  17.410  10.348  0.0787  0.1195 -0.2662
22572W        W42852   4.183  13.982   0.547 -0.2042  0.0542  0.0844
22573W        W42853   5.631  18.006   1.192  0.0043 -0.0478  0.0375
22574W        W42854   4.052   0.971   3.698 -0.0103 -0.0531  0.1116
22575W        W42855  16.805   7.659   1.045  0.3919  0.0081  0.3273
22576W        W42856  11.332  12.874   0.121  0.0084 -0.0287 -0.3881
22577W        W42857   0.703   5.592   4.514  0.2366 -0.0940 -0.1723
22578W        W42858  18.408   7.944   3.548 -0.2313 -0.0967 -0.0071
22579W        W42859  18.080   2.398   3.050  0.2097  0.4636 -0.2397
22580W        W42860  16.901  12.953  12.936  0.1005  0.2903  0.2048
22581W        W42861   7.315   9.310   0.415  0.0072  0.0601  0.0271
22582W        W42862   9.826  11.033   3.155  0.0165  0.2430 -0.1049
22583W        W42863  10.283   3.234  13.560  0.0100  0.0574  0.0253
22584W        W42864  12.351   5.052  13.998  0.1116  0.0681  0.1702
22585W        W42865   6.862  15.479   0.710  0.2450 -0.0469  0.2620
22586W        W42866  17.922  14.562   2.441  0.2761 -0.0617  0.1955
22587W        W42867   3.417   8.229  13.264 -0.0822  0.2831 -0.3810
22588W        W42868  12.319   2.637   0.563 -0.1183 -0.0546 -0.0206
22589W        W42869  17.448  15.260   2.092  0.0729  0.0707 -0.0456
22590W        W42870   2.484   6.518   2.950  0.2158 -0.0125  0.2078
22591W        W42871   5.860  12.662  12.515 -0.0078 -0.0622 -0.0580
22592W        W42872  15.609  14.510   3.537  0.0579  0.0263  0.0430
22593W        W42873   9.080  14.096  11.818  0.0899 -0.2060 -0.1249
22594W        W42874  18.387   7.190   2.736  0.1799 -0.4100 -0.1030
22595W        W42875   4.610  10.059   1.445 -0.0017 -0.1376  0.1043
22596W        W42876  18.627  12.347   1.551  0.0744 -0.0334  0.2208
22597W        W42877  16.374   0.426   5.449  0.0531 -0.1184  0.1951
22598W        W42878  12.903   4.701  11.789 -0.0630 -0.0584  0.1374
22599W        W42879   6.937  11.144   2.629 -0.0644  0.2736 -0.1976
22600W        W42880  17.226   9.789   3.332 -0.1458 -0.1573 -0.0359
22601W        W42881   3.370   7.187  15.102  0.0116 -0.1405  0.2108
22602W        W42882   0.406   3.645  14.198  0.1476  0.0392 -0.0650
22603W        W42883   6.908  12.319   2.649 -0.1826 -0.1668 -0.0030
22604W        W42884   6.499   7.543  11.348 -0.0939 -0.1878 -0.0661
22605W        W42885   2.340   7.952   3.138 -0.4755 -0.1351  0.1649
22606W        W42886   7.401  15.551  14.633  0.0318 -0.1041  0.2365
22607W        W42887  17.315   1.886   4.313  0.1650  0.2382  0.0690
22608W        W42888  11.339   5.663  13.531 -0.1335  0.0006 -0.0252
22609W        W42889  15.624  10.422  12.092  0.0938 -0.0371 -0.0072
22610W        W42890   6.665   6.403  12.324 -0.1121 -0.1483  0.0173
22611W        W42891  11.465  14.258   3.624  0.1171  0.1068 -0.2399
22612W        W42892   3.759  10.670   4.036  0.2225 -0.0542 -0.1373
22613W        W42893  14.692   1.347   1.337 -0.0207  0.3126  0.0766
22614W        W42894  17.904  18.079  13.193  0.3527 -0.1338  0.1583
22615W        W42895  15.377   8.615   4.623  0.1874 -0.2451 -0.0989
22616W        W42896  15.761   5.156   3.566  0.0885  0.1889 -0.0407
22617W        W42897  15.149  12.320  13.554 -0.1315 -0.0598 -0.0683
22618W        W42898   9.068   3.133   1.800 -0.2212 -0.1056 -0.2730
22619W        W42899  12.169   9.182   0.173  0.2329  0.1295  0.1124
22620W        W42900   0.875   7.688  14.593 -0.3400 -0.1274  0.2322
22621W        W42901   2.732  15.254   0.869  0.2799  0.1505  0.0804
22622W        W42902   6.444   3.937  13.537  0.1854  0.0435 -0.2797
22623W        W42903  15.887  14.722   4.794 -0.2865  0.0922 -0.0992
22624W        W42904   2.850  15.801   0.800 -0.0272 -0.1054 -0.2405
22625W        W42905   9.931  16.947  12.293 -0.1873  0.1263 -0.0098
22626W        W42906  15.646  13.665   0.586 -0.0516  0.3180  0.1179
22627W        W42907  12.604  15.050   3.160  0.2140 -0.1230  0.1035
22628W        W42908   6.833   6.949   2.675 -0.0389  0.0966 -0.0461
22629W        W42909   6.068  11.567  10.780 -0.2109  0.0723  0.1404
22630W        W42910  17.275   3.979  11.151 -0.4611 -0.0702  0.2031
22631W        W42911   0.824   6.838   3.699 -0.2643  0.1271  0.2520
22632W        W42912  14.758   1.471  11.382 -0.0526  0.0960  0.2464
22633W        W42913   8.517  13.387   3.468  0.2696  0.1291 -0.2820
22634W        W42914   2.368   0.391   1.472 -0.0699 -0.0518  0.0217
22635W        W42915  12.948  14.901  14.936 -0.0663  0.0386  0.0665
22636W        W42916   1.738   1.888  15.102  0.2201  0.1284 -0.2011
22637W        W42917  12.170  18.276  12.464  0.1409 -0.1468  0.2080
22638W        W42918  11.083  18.248   1.960  0.1806  0.0968  0.1221
22639W        W42919   0.502   6.281   2.543 -0.0453  0.0319  0.5144
22640W        W42920  14.980   4.566  14.192 -0.1021  0.0551 -0.1304
22641W        W42921  17.837   0.073   1.955  0.1338  0.1391  0.1753
22642W        W42922  15.872   8.942  14.182 -0.2174  0.3157 -0.1467
22643W        W42923  13.173  13.170  15.135 -0.0563 -0.1192  0.0218
22644W        W42924   3.214   7.240   3.688  0.1279  0.1300  0.1396
22645W        W42925  18.246  17.952   2.534 -0.1890 -0.1852  0.2496
22646W        W42926  18.463  16.914   0.495  0.0404 -0.2213  0.0958
22647W        W42927   5.074  16.278   2.811  0.0781  0.2587 -0.1801
22648W        W42928   6.349  18.215   3.372  0.0922  0.3183 -0.0313
22649W        W42929   8.454   0.667   4.457 -0.0894  0.0905  0.0865
22650W        W42930  16.463   4.761  13.946  0.1997  0.1474 -0.0772
22651W        W42931  18.033   5.213  12.332  0.0047  0.1660 -0.1041
22652W        W42932  11.805   1.868   2.982 -0.0252  0.0668  0.0334
22653W        W42933   2.612  13.416   3.350  0.1709 -0.1512 -0.1963
22654W        W42934   5.122   6.192   4.186  0.0436 -0.0923  0.2020
22655W        W42935   8.033   2.398  10.127 -0.0957  0.1124  0.1463
22656W        W42936   9.227  17.125  12.580  0.1488 -0.0063 -0.0331
22657W        W42937   5.974   8.794  14.282  0.3493  0.0610  0.3474
22658W        W42938  15.567   0.126   0.439  0.0962 -0.1558  0.0070
22659W        W42939   5.107   1.470  14.273  0.0262 -0.1102  0.2018
22660W        W42940  15.019  10.860   0.757 -0.2004  0.1439 -0.0587
22661W        W42941   2.563   4.877  11.371 -0.2077  0.0408 -0.2867
22662W        W42942   6.817   0.722  12.191 -0.1680  0.0115  0.1092
22663W        W42943   7.633  13.111   4.154  0.0220  0.0337 -0.1416
22664W        W42944   1.511   5.604   2.906  0.0160 -0.1871  0.2686
22665W        W42945  10.549   1.096   2.266  0.1130  0.0147 -0.0942
22666W        W42946   6.942  18.371   0.842  0.2511  0.0891 -0.0170
22667W        W42947  14.567   1.934  15.062  0.2663  0.1518 -0.1754
22668W        W42948   0.586   2.159   4.124  0.1784  0.3466 -0.0167
22669W        W42949   9.528  16.133   3.033 -0.0027  0.0181  0.0175
22670W        W42950   4.623   0.226   4.012  0.3264 -0.1179 -0.0867
22671W        W42951  14.898  16.563   0.190 -0.0002  0.2475 -0.2591
22672W        W42952  11.749  18.643  15.206 -0.0568  0.0274 -0.1631
22673W        W42953  13.475  15.737   1.998  0.0516  0.2803 -0.0620
22674W        W42954   0.195  12.593  14.451 -0.1227 -0.0817 -0.0721
22675W        W42955   8.375   0.239   1.273  0.1080  0.1168  0.0293
22676W        W42956   3.797   5.041  13.480  0.0414 -0.1755 -0.0743
22677W        W42957   2.440  13.712   1.570  0.1547  0.1501  0.0360
22678W        W42958  14.465  15.920  12.754  0.2261  0.1137  0.1563
22679W        W42959   8.661   4.578   0.704 -0.1849 -0.1278  0.2461
22680W        W42960   8.828  12.771  11.563  0.1820  0.0467 -0.2645
22681W        W42961   7.633  13.919  14.184  0.0428 -0.1641  0.1218
22682W        W42962  18.386   7.397  12.446  0.0309  0.1969 -0.1338
22683W        W42963   9.048   7.049   1.854  0.1600  0.2978  0.3430
22684W        W42964   6.161  14.209  14.561  0.2747 -0.3981  0.2561
22685W        W42965  17.550   2.338  11.985 -0.1895 -0.0684 -0.3991
22686W        W42966   9.452   4.607  14.742 -0.1831  0.1455 -0.0779
22687W        W42967   8.585   8.520  11.536  0.0527  0.1542 -0.1225
22688W        W42968   2.084  18.522  12.847  0.1746 -0.2404  0.0975
22689W        W42969   0.719  13.003  12.579 -0.1033  0.3298 -0.0457
22690W        W42970   8.337  16.238   0.795  0.3799  0.0689  0.2311
22691W        W42971   5.731   1.543  12.079 -0.0753  0.0485 -0.2530
22692W        W42972  12.119   2.974   0.225 -0.0658  0.0269  0.0898
22693W        W42973   0.493  14.885   3.202  0.1374  0.2940  0.2236
22694W        W42974  16.325  11.993  12.426 -0.2422  0.0723 -0.0208
22695W        W42975  15.504   0.969   1.543 -0.1290 -0.0776 -0.4013
22696W        W42976   5.161  11.672   0.704 -0.2205 -0.1081  0.3142
22697W        W42977   3.612  11.661   3.136 -0.0725 -0.1586  0.2035
22698W        W42978   8.911   8.186   3.243 -0.1031 -0.2443 -0.0517
22699W        W42979  10.160  15.915   2.998 -0.2709  0.0781  0.0177
22700W        W42980  12.923  13.450   2.252 -0.0345  0.3069 -0.0045
22701W        W42981  17.840   4.849   3.558 -0.0873  0.0246  0.3081
22702W        W42982   2.931  17.704   2.938  0.0388 -0.0570 -0.0451
22703W        W42983   9.551  15.847  11.889  0.3577 -0.0929 -0.0300
22704W        W42984   1.040   6.753  12.815  0.0372 -0.1010  0.1240
22705W        W42985   6.726   1.739   3.796  0.0639 -0.0186 -0.2473
22706W        W42986  15.984  10.014  11.552  0.0070 -0.0281 -0.0893
22707W        W42987  18.381  11.135  14.268 -0.0949 -0.1854  0.2575
22708W        W42988   1.854  12.890  12.256 -0.1373 -0.1216  0.1500
22709W        W42989   4.398  15.328  14.786  0.1157 -0.0238  0.1702
22710W        W42990  16.884   9.740  13.314  0.1736  0.1081 -0.2312
22711W        W42991  10.444  12.667  11.280  0.1756 -0.0349 -0.0503
22712W        W42992   9.778   2.092  11.573 -0.1726  0.3434  0.2369
22713W        W42993  12.595  11.049  14.728 -0.1350 -0.0083 -0.0945
22714W        W42994   2.708   2.851   3.887 -0.0537 -0.0714 -0.1150
22715W        W42995  12.807  16.067  11.546 -0.1328  0.1481  0.2212
22716W        W42996   0.593  13.103  11.466 -0.0847 -0.1496 -0.0118
22717W        W42997   9.003   1.701  14.276  0.1259 -0.2444  0.0161
22718W        W42998  15.999  18.541  12.180  0.3145  0.1237 -0.0975
22719W        W42999   5.690   8.746  15.123 -0.2168  0.0794  0.1929
22720W        W43000   3.926   3.421  14.804  0.1921 -0.1349 -0.1841
22721W        W43001   5.719  15.343  12.433 -0.0162  0.2530 -0.0167
22722W        W43002  16.499  11.298   2.763  0.0011 -0.1447 -0.2049
22723W        W43003  15.923   0.494   1.891  0.2105 -0.1517  0.1006
22724W        W43004   6.959   4.037   1.742  0.0335 -0.3855  0.1437
22725W        W43005   1.968  13.905  14.943  0.1522  0.1794 -0.2651
22726W        W43006   7.708  15.479   0.819 -0.0745 -0.0594 -0.0501
22727W        W43007   9.750  13.149   2.144  0.1838 -0.0980  0.2751
22728W        W43008   1.138  10.702   1.477 -0.1781 -0.2299 -0.0426
22729W        W43009  13.395   9.216  12.236 -0.2208  0.1020 -0.0778
22730W        W43010   3.680  12.901   0.029  0.0199  0.0653  0.2949
22731W        W43011  16.848  15.346  13.777  0.4250 -0.0723  0.0832
22732W        W43012   9.810   7.557   4.292  0.0346 -0.0331 -0.1577
22733W        W43013   0.719   5.829  15.053  0.0107  0.1133 -0.0231
22734W        W43014   2.343   7.622   0.181  0.0940 -0.5057 -0.0790
22735W        W43015   5.185   4.404  14.441  0.1371  0.1706 -0.0626
22736W        W43016  18.693  12.520   0.005  0.0922 -0.2684 -0.2046
22737W        W43017  12.380   0.007  12.195 -0.1246 -0.1231  0.0150
22738W        W43018   8.672  15.805  10.928  0.0647  0.1632  0.0537
22739W        W43019  16.386  14.987   0.056 -0.1330  0.3951 -0.1646
22740W        W43020  15.921   0.204  11.340  0.0589  0.0499  0.0278
22741W        W43021   6.582  14.045   0.752  0.1137 -0.1183  0.2932
22742W        W43022   6.875   1.957  13.412  0.1784 -0.1451 -0.1675
22743W        W43023   1.586  17.810  11.762 -0.1056 -0.2287 -0.0768
22744W        W43024  16.251   3.848   0.686 -0.0344  0.0705 -0.1183
22745W        W43025   8.690  10.745  12.319  0.1707 -0.3130  0.0751
22746W        W43026   7.070   7.729  11.408 -0.1306  0.4063 -0.1427
22747W        W43027   7.197   1.694   2.111 -0.0643  0.0850 -0.2032
22748W        W43028   1.933   6.399   1.756 -0.0628  0.0509  0.1474
22749W        W43029  12.771   5.953   0.301 -0.0607 -0.0615  0.1262
22750W        W43030   2.703  12.320  13.705  0.0737  0.2232 -0.2125
22751W        W43031   4.438   7.149  13.092 -0.1549 -0.1732  0.1113
22752W        W43032   7.812  13.930   1.455 -0.2204  0.2407  0.1442
22753W        W43033   1.157   7.425  10.053  0.0632 -0.1173 -0.0166
22754W        W43034   4.309   5.349  12.598 -0.1191  0.0016 -0.2822
22755W        W43035   5.199   2.185   0.194 -0.0174  0.0710  0.1253
22756W        W43036  14.143  18.656   1.623  0.2140 -0.5646 -0.0502
22757W        W43037  12.821   8.814   3.737  0.0664  0.1072  0.0081
22758W        W43038  16.528  16.165  15.351 -0.0246  0.1980  0.3076
22759W        W43039  15.228  17.849   4.094  0.3424 -0.2969  0.2198
22760W        W43040  16.921  13.788   0.947  0.2747 -0.1281  0.0135
22761W        W43041   3.486  15.826   1.816 -0.0031 -0.0485  0.0018
22762W        W43042  11.050  18.326   0.035 -0.3441  0.0097 -0.2504
22763W        W43043   0.727   5.329   0.715 -0.3271 -0.1428  0.2991
22764W        W43044  10.905   0.922   2.623  0.1700 -0.0619 -0.0754
22765W        W43045   2.451  10.829   1.993  0.2039  0.1247 -0.0975
22766W        W43046   8.687   5.738   2.949 -0.1670  0.0051 -0.1129
22767W        W43047  15.649  16.777   2.643  0.0552 -0.2942  0.0001
22768W        W43048   7.018  10.007   0.659  0.0778 -0.1394 -0.0615
22769W        W43049  15.081   6.651   0.425  0.1911 -0.1620 -0.2387
22770W        W43050  15.584   8.188  14.750 -0.1583  0.1111 -0.1933
22771W        W43051  16.339  12.325  12.926  0.1177  0.0616  0.1581
22772W        W43052  15.048   4.294  13.573 -0.3289 -0.0103  0.0259
22773W        W43053  13.053  14.793  11.699 -0.1526 -0.0119  0.4677
22774W        W43054  18.578   2.852  14.607 -0.2464 -0.2853  0.0022
22775W        W43055   2.189   0.875   0.236  0.0021  0.1972 -0.0123
22776W        W43056   7.769   4.010  13.271 -0.3917 -0.0416 -0.4098
22777W        W43057   0.382   7.898   3.791  0.3492 -0.0774 -0.1698
22778W        W43058  18.355  10.347   1.126 -0.3724 -0.0404 -0.1348
22779W        W43059   5.791  13.893  11.975  0.2307 -0.1094 -0.5020
22780W        W43060   3.542  16.323   1.146 -0.0341  0.1135 -0.0089
22781W        W43061  15.567  10.487   2.550  0.2577 -0.5112 -0.0236
22782W        W43062   3.737   2.341  14.669 -0.0637 -0.1640 -0.0307
22783W        W43063   2.355   0.935   1.264  0.0758  0.0582  0.1110
22784W        W43064  17.947   1.497  13.964  0.1946  0.4332 -0.0554
22785W        W43065  10.427  13.179   0.297  0.3478  0.1887 -0.1557
22786W        W43066   0.240   9.307  12.480 -0.0053 -0.1118 -0.2138
22787W        W43067  13.859  15.289  13.211  0.0462 -0.0284 -0.0778
22788W        W43068   0.992   2.976  13.925 -0.0724 -0.4648  0.3751
22789W        W43069  10.862  12.852   2.935  0.0594  0.0154 -0.1644
22790W        W43070  12.058   6.445  13.531 -0.1829 -0.0811  0.1830
22791W        W43071  11.116   6.923  11.651  0.2128  0.1557 -0.2783
22792W        W43072  17.268  17.309   3.128 -0.2207  0.0047 -0.0316
22793W        W43073  18.540   9.209   0.570  0.0133 -0.1358 -0.0164
22794W        W43074   5.429   9.837   1.163 -0.2060  0.0557 -0.0031
22795W        W43075   3.391  16.880   2.168  0.2815 -0.0648 -0.0686
22796W        W43076   5.612   2.593   0.886 -0.0676 -0.0126 -0.0839
22797W        W43077   2.320  13.862   0.042  0.0291  0.0184 -0.0800
22798W        W43078   7.239  12.536   2.334 -0.1627 -0.2402  0.0754
22799W        W43079   8.126   0.096  10.755 -0.3685  0.0547  0.0891
22800W        W43080   1.793  12.000  13.479 -0.2038  0.0829 -0.1786
22801W        W43081  11.728   0.487   3.212  0.1004 -0.3158  0.3010
22802W        W43082  15.941  17.638  11.790  0.1144  0.0928  0.1163
22803W        W43083   9.348  15.671   2.063  0.0576 -0.0690 -0.0729
22804W        W43084   0.990  16.632  11.829  0.2094 -0.2791  0.1710
22805W        W43085   7.842  15.821   0.489 -0.1673 -0.2292 -0.0401
22806W        W43086   3.728  16.322  11.919 -0.2274 -0.2488 -0.0699
22807W        W43087  16.342  17.618   0.544  0.1585  0.1150  0.1395
22808W        W43088   7.452  17.133  14.888  0.3206 -0.0362  0.2184
22809W        W43089   2.164   9.664  14.696 -0.0682 -0.3090  0.2959
22810W        W43090  13.678   8.102   5.822  0.0759  0.1207 -0.1568
22811W        W43091   9.742   9.590  14.637 -0.3175  0.2759 -0.1462
22812W        W43092  14.807   7.464  11.688  0.0476 -0.0044 -0.1269
22813W        W43093  18.136   8.268  14.534 -0.1172 -0.0649  0.0134
22814W        W43094   9.145   1.917   0.378  0.2165 -0.2477  0.1772
22815W        W43095   1.317  15.595   0.714 -0.1740  0.1062  0.1215
22816W        W43096  11.396   1.547   3.076  0.6463 -0.2516  0.0107
22817W        W43097  11.994  10.417  14.692  0.1031  0.1294 -0.1237
22818W        W43098   2.956  16.791   2.691  0.1526  0.2465  0.0844
22819W        W43099  14.740  12.938   4.583  0.1075  0.0477 -0.0941
22820W        W43100  12.769  14.539  15.256  0.1107 -0.0072 -0.1963
22821W        W43101  10.811  10.891  15.130 -0.3572 -0.0281  0.2153
22822W        W43102  17.323  12.081  14.234 -0.1983 -0.3954 -0.1392
22823W        W43103   9.486   5.900  11.557 -0.0700 -0.1453 -0.2544
22824W        W43104  17.994   6.576   2.375  0.1173 -0.0943  0.0648
22825W        W43105   0.845   5.486  11.343 -0.0403 -0.1686  0.3066
22826W        W43106   5.676   8.359  12.450 -0.2726  0.2136 -0.0867
22827W        W43107   1.986   2.803   2.602  0.3749 -0.2033  0.2513
22828W        W43108   9.531  14.771  13.744  0.3683 -0.0192  0.1649
22829W        W43109  15.642   9.425  12.963 -0.1682 -0.0532 -0.0264
22830W        W43110   3.464  14.646   0.470 -0.0905  0.1551  0.0627
22831W        W43111  13.058   7.485  12.193  0.1712  0.0730  0.2885
22832W        W43112  18.478   2.287   4.676 -0.2461 -0.2319 -0.0936
22833W        W43113  16.352   9.267   0.488 -0.4055  0.0283  0.0106
22834W        W43114   5.223   0.281  10.573  0.0082 -0.0370 -0.1021
22835W        W43115   0.995  15.811   2.191 -0.3357  0.0640  0.3102
22836W        W43116  18.260  11.568  11.501 -0.0327 -0.3410 -0.2139
22837W        W43117  13.622  10.622   3.722 -0.1506 -0.0099 -0.1438
22838W        W43118   8.050   3.322   2.749  0.0529 -0.0082 -0.0757
22839W        W43119   1.623  14.349   0.306  0.2637 -0.0035 -0.2271
22840W        W43120  17.503   7.084   3.731  0.1388 -0.0570  0.0970
22841W        W43121  16.802   7.957  11.520  0.0807  0.0640 -0.0560
22842W        W43122   9.367  16.224  11.331  0.4404  0.0542 -0.0869
22843W        W43123   6.285  13.200  11.977  0.3028  0.0719 -0.1359
22844W        W43124  12.581   4.796   3.548 -0.3234 -0.2538 -0.2871
22845W        W43125   7.879  12.985  10.710 -0.0101 -0.0019 -0.1176
22846W        W43126  11.043   3.624  14.534 -0.1362 -0.2875 -0.0511
22847W        W43127   8.547   1.400  14.138 -0.1679  0.0905  0.0475
22848W        W43128  11.815   6.016   0.052 -0.1476  0.1528 -0.2375
22849W        W43129   6.180   7.006  11.423 -0.1780  0.1477 -0.1045
22850W        W43130  10.581   1.722   2.248 -0.0441 -0.3018  0.0394
22851W        W43131  15.168  16.742   3.322 -0.0293  0.1479 -0.1492
22852W        W43132   5.835   7.009  12.055  0.0272 -0.0205 -0.0721
22853W        W43133  14.270  16.811  15.314  0.3797  0.0550 -0.0701
22854W        W43134   9.308   5.612  13.845 -0.0066 -0.1562 -0.4339
22855W        W43135   8.433  11.802   0.327  0.0039  0.1435 -0.3413
22856W        W43136  12.858  15.988  12.951  0.2616  0.1230 -0.0615
22857W        W43137   9.650  10.122  13.267 -0.0058 -0.0823 -0.1184
22858W        W43138   5.009  11.355  14.494 -0.1625 -0.1702 -0.2352
22859W        W43139   8.409  14.719  14.651 -0.0466  0.1882  0.0606
22860W        W43140   1.690  16.816   0.292  0.2053  0.0093 -0.0056
22861W        W43141   7.444   2.945  12.514 -0.4781  0.1995 -0.0257
22862W        W43142   0.460  10.839   2.358 -0.0526  0.0452 -0.2321
22863W        W43143   1.291  12.811   0.526 -0.0387  0.1111 -0.0825
22864W        W43144  18.261  17.166  12.453  0.0860 -0.1316  0.3646
22865W        W43145  14.571   1.023   4.262  0.0169 -0.3005 -0.0918
22866W        W43146  16.346  15.500  13.633 -0.2385 -0.0374  0.1831
22867W        W43147   7.096  15.265   0.340  0.0443  0.3629  0.2483
22868W        W43148   1.374   2.920   3.734 -0.3970 -0.3810  0.0110
22869W        W43149  17.836  17.630   2.461  0.0081 -0.1041 -0.4770
22870W        W43150  14.468   6.436  12.075  0.0508  0.2691 -0.0916
22871W        W43151  13.149  18.593   1.885 -0.1062  0.0838 -0.0466
22872W        W43152   6.353  11.701   5.409 -0.2626  0.0787 -0.1532
22873W        W43153  15.877  13.996  14.881  0.0372 -0.0375 -0.1707
22874W        W43154  10.851  10.506  12.319  0.4492  0.0235 -0.3074
22875W        W43155  17.663   8.042   4.644 -0.2011 -0.2080  0.2373
22876W        W43156   6.420  14.573   0.545  0.0425  0.0404 -0.0363
22877W        W43157   9.530   2.372   0.151  0.0340  0.0512 -0.3685
22878W        W43158   9.704   1.071  13.114  0.1585  0.2345  0.1886
22879W        W43159   1.445   8.666  13.703 -0.2735  0.4831 -0.0357
22880W        W43160  15.422   4.671   3.362 -0.2465  0.3801  0.0915
22881W        W43161   8.800   0.198  14.655  0.1931  0.0658 -0.2675
22882W        W43162  17.821  13.225  14.403 -0.0281 -0.0763  0.0169
22883W        W43163  15.408   5.095  14.926  0.2281  0.2610  0.0821
22884W        W43164  15.500  17.843  11.600 -0.1534  0.0833 -0.2075
22885W        W43165  13.747   1.934  11.435 -0.0612 -0.0094 -0.2459
22886W        W43166  16.283   3.957   4.289 -0.2191 -0.1502 -0.4450
22887W        W43167  14.193  16.502   0.945  0.0529  0.1827 -0.1827
22888W        W43168  11.701  18.740  13.497  0.0384  0.2033 -0.1410
22889W        W43169   2.865  16.660   0.675 -0.0944  0.0260  0.1573
22890W        W43170   2.302  11.979   1.943 -0.1257  0.0479 -0.5439
22891W        W43171  13.540  10.106   2.125 -0.0695  0.0926 -0.1038
22892W        W43172   5.288   5.273  13.386  0.1226  0.0424 -0.0679
22893W        W43173  10.531  16.763   3.171 -0.0818 -0.2701  0.1051
22894W        W43174   3.513  18.580  12.270  0.0292 -0.2231 -0.0707
22895W        W43175   4.760  14.031   1.268 -0.0433 -0.0701 -0.1636
22896W        W43176   0.810   9.009  10.487  0.0038  0.1927 -0.0428
22897W        W43177   3.166  15.649  14.941  0.1211  0.1776 -0.1031
22898W        W43178   8.217   4.479   3.708  0.0281 -0.0977 -0.0636
22899W        W43179  10.139   3.223   0.005 -0.1548 -0.1109 -0.4706
22900W        W43180   0.134  10.104   4.814  0.0312  0.1930 -0.2085
22901W        W43181   9.121  17.170  13.518  0.0969  0.0391  0.1867
22902W        W43182   5.824  14.378   4.606  0.0714 -0.0009  0.3222
22903W        W43183  18.212  17.671   2.079  0.1697  0.1229 -0.1449
22904W        W43184   4.384  13.355  13.725 -0.0465 -0.0600  0.0029
22905W        W43185   6.567   4.440  14.368  0.0219 -0.2922  0.0625
22906W        W43186  12.372   8.072   1.128  0.2428  0.2161  0.1207
22907W        W43187   3.966  15.103   1.495 -0.2727 -0.0681  0.0398
22908W        W43188  16.897  15.755   1.661 -0.1539 -0.0424 -0.1268
22909W        W43189   8.096  16.231   2.137 -0.0275  0.0219  0.2445
22910W        W43190   1.190  16.100  12.211 -0.2843 -0.1114 -0.0137
22911W        W43191  11.318   8.936   3.415 -0.0475 -0.3611 -0.0816
22912W        W43192  14.713  12.407   1.756 -0.0942  0.1423 -0.0196
22913W        W43193   3.201   3.193   2.225  0.1505  0.0059 -0.3556
22914W        W43194  15.719   2.337  11.954  0.2466  0.0174 -0.3204
22915W        W43195  15.402   8.395  13.652 -0.0761 -0.0906  0.2504
22916W        W43196  16.447  18.259  14.285 -0.0269 -0.2934  0.0473
22917W        W43197   5.709  17.896  14.641  0.4158 -0.0644  0.0820
22918W        W43198  13.697  14.435  13.422 -0.0189 -0.0622  0.3468
22919W        W43199   1.807   7.812  14.470  0.0765  0.0506 -0.2620
22920W        W43200  17.088   1.178   3.867  0.0171 -0.0403 -0.2004
22921W        W43201  10.109  11.248  13.961 -0.2466  0.0756 -0.1280
22922W        W43202   5.693   0.864   3.675 -0.0452  0.0328 -0.0381
22923W        W43203   5.787   0.810  11.442 -0.0068  0.0088 -0.0773
22924W        W43204   9.203   3.246  14.313  0.0605 -0.0605  0.1268
22925W        W43205   2.443   7.950  11.865 -0.0122 -0.0730 -0.2230
22926W        W43206   3.801   5.615  12.171  0.0737  0.0907 -0.1067
22927W        W43207   5.356  15.826  12.298  0.0399 -0.0587 -0.0628
22928W        W43208  15.969   6.005   3.874  0.0098  0.1545 -0.3859
22929W        W43209   4.094   8.779  11.521 -0.0712  0.0718 -0.0580
22930W        W43210  13.019   2.999  14.037  0.1592  0.2727 -0.1307
22931W        W43211   0.500  10.784   1.015  0.1207  0.2298  0.2078
22932W        W43212  16.082  11.592   2.838  0.2370  0.1350 -0.0160
22933W        W43213   9.493   4.927   2.408 -0.0451 -0.3453  0.2326
22934W        W43214  16.217  16.639   2.511 -0.1120  0.1701  0.3196
22935W        W43215   0.441   4.294  11.241  0.2829 -0.4580 -0.0771
22936W        W43216  12.289  13.789   2.949 -0.0335 -0.1103  0.0984
22937W        W43217  17.467   6.777   0.546  0.3261 -0.0894 -0.0959
22938W        W43218  11.067  12.139   1.039  0.1135  0.2159 -0.0244
22939W        W43219   6.698  10.192  12.042 -0.0529 -0.1789  0.2229
22940W        W43220   1.852   9.178  11.674  0.0312 -0.0537 -0.0802
22941W        W43221   0.741  12.932  14.420  0.0238  0.1944  0.3867
22942W        W43222   0.181  10.712  11.606 -0.1867  0.0271  0.0046
22943W        W43223  13.633  12.050  11.087  0.1457 -0.3189 -0.0756
22944W        W43224   5.017   4.812  13.372  0.2005 -0.2566 -0.0465
22945W        W43225   5.997  16.363   3.580  0.1659 -0.0054 -0.0739
22946W        W43226   6.914   8.797   1.491  0.1311 -0.1321  0.1682
22947W        W43227  17.795  15.594   1.431  0.1068  0.1220 -0.0883
22948W        W43228  15.466   0.955  13.922  0.1575  0.0008  0.1646
22949W        W43229  13.005  12.722  13.521  0.0651 -0.0361 -0.1135
22950W        W43230   3.851   7.645  11.998 -0.0252 -0.3350  0.0680
22951W        W43231   6.469  10.288   3.493 -0.0528  0.0356 -0.1887
22952W        W43232  14.567  15.550  12.075  0.0451 -0.2451  0.1436
22953W        W43233  15.449   9.924  12.891  0.2105  0.1268  0.1499
22954W        W43234   4.122  13.939  11.724 -0.1516 -0.1817  0.1028
22955W        W43235  13.632  18.126   0.486  0.0011  0.0830 -0.0718
22956W        W43236  11.751  10.048  11.284 -0.0273 -0.1715  0.1407
22957W        W43237  14.724   0.936  12.460 -0.1563 -0.0595 -0.2835
22958W        W43238   9.251   5.031   1.498 -0.0936 -0.0329 -0.3544
22959W        W43239   5.606   0.825   0.196 -0.1865  0.0332  0.1407
22960W        W43240  11.202   0.199   0.930 -0.0004 -0.2113 -0.2083
22961W        W43241  15.172  16.129  12.828  0.0906 -0.0321  0.3387
22962W        W43242  17.408   4.047   2.110 -0.0924  0.1435 -0.1443
22963W        W43243   8.503   2.609   3.257 -0.0652  0.3619 -0.0230
22964W        W43244  16.059   1.260   0.637 -0.1524  0.1264  0.0255
22965W        W43245  12.398   5.533   4.767  0.0844  0.0751  0.3239
22966W        W43246   3.330   2.006  13.173 -0.0444  0.0594 -0.1519
22967W        W43247   2.806  12.684   3.604  0.0011 -0.0216  0.3178
22968W        W43248   9.477   8.598   0.343 -0.0064  0.3472  0.1073
22969W        W43249  18.505  13.030  12.024  0.0501  0.1607 -0.3676
22970W        W43250   6.748  12.482  15.305  0.1999 -0.2775  0.1551
22971W        W43251   1.210   6.322  11.691  0.3925  0.2552 -0.1648
22972W        W43252  10.585  16.945   0.388  0.1432 -0.2434  0.0191
22973W        W43253   9.132   4.069   3.796  0.1117 -0.0973  0.2973
22974W        W43254   1.872   4.257  15.322  0.0975 -0.1827 -0.0065
22975W        W43255   0.410  13.383   1.786  0.2768  0.1164 -0.0567
22976W        W43256   2.983   5.582  13.426 -0.1207  0.1419 -0.0152
22977W        W43257  17.832   6.040   0.068 -0.1740 -0.0455  0.0641
22978W        W43258   9.410  10.874   2.927  0.0991 -0.0443 -0.2835
22979W        W43259   2.522   4.281  12.433  0.0102  0.1106  0.1150
22980W        W43260  15.490  10.359   0.050 -0.2933  0.0488 -0.1077
22981W        W43261  16.874   4.908   4.304  0.1097 -0.0908 -0.2416
22982W        W43262  13.075  11.529   3.449  0.0361  0.0379 -0.1778
22983W        W43263  11.739   3.283  11.443 -0.2049 -0.0625 -0.2216
22984W        W43264   0.661  15.215  12.656 -0.1104  0.1613  0.1742
22985W        W43265   8.573  13.663  13.802  0.0629  0.2854 -0.3253
22986W        W43266  15.601  12.627  12.695  0.0205 -0.1523 -0.1601
22987W        W43267   4.718   6.754  12.885 -0.2769  0.1711  0.1532
22988W        W43268  10.555   9.424   2.690  0.0310 -0.0233  0.1750
22989W        W43269   0.828   8.583   4.190  0.4495 -0.4232  0.0822
22990W        W43270   1.018  10.320  14.174  0.1102 -0.3629  0.0579
22991W        W43271  17.901   2.010  11.616 -0.3156  0.2863  0.0525
22992W        W43272   9.756   5.307  12.122 -0.1515 -0.1259 -0.2871
22993W        W43273   9.124   5.494  13.356  0.0865  0.0556 -0.0801
22994W        W43274   6.930  11.610   4.598  0.0584 -0.2333  0.3396
22995W        W43275   3.568  10.589  13.086  0.2039  0.2893  0.0402
22996W        W43276  14.042   8.205   1.964  0.3618  0.3540  0.0441
22997W        W43277  18.114   0.792   1.938  0.1486 -0.0104  0.0645
22998W        W43278  12.668   2.726   0.866 -0.0114  0.1490 -0.0338
22999W        W43279  12.612   6.150   3.854  0.1441  0.1470  0.2186
23000W        W43280   5.581  13.861  13.291 -0.2214  0.1316 -0.0353
23001W        W43281  15.708   8.675  11.342 -0.1497  0.2513  0.1390
23002W        W43282   3.781  12.610   3.556 -0.0444 -0.1886 -0.3625
23003W        W43283   0.740   2.447  14.648  0.0547  0.3093 -0.1292
23004W        W43284  17.590  10.183   0.015  0.2035 -0.0023  0.2789
23005W        W43285   4.927  16.653   3.996  0.2852  0.3353 -0.0997
23006W        W43286   7.268   0.782   2.826 -0.0131  0.1232  0.0582
23007W        W43287   9.465  17.153   4.542 -0.1768  0.0353  0.2660
23008W        W43288  12.680  18.140   3.161  0.4129  0.1469  0.1164
23009W        W43289   1.920   1.035  15.225 -0.1869 -0.0907  0.0982
23010W        W43290   0.795   6.736   1.066  0.0813 -0.0109  0.2726
23011W        W43291   9.669   9.300  12.399  0.1646  0.2429  0.1243
23012W        W43292   1.050  14.516   1.134 -0.1124 -0.0544 -0.2449
23013W        W43293  17.474   7.162  13.134 -0.1393 -0.4244 -0.2985
23014W        W43294   2.252   6.198  13.367  0.1135 -0.0624  0.4189
23015W        W43295  13.783  18.088   3.090 -0.1248 -0.0380 -0.2670
23016W        W43296  15.246  11.937   1.411 -0.0175 -0.2047 -0.0967
23017W        W43297   0.715  13.773   0.973 -0.0268  0.4617  0.2856
23018W        W43298  15.946   3.609   4.129 -0.3100 -0.2248 -0.0117
23019W        W43299   4.923   9.883   0.948 -0.2125 -0.1342 -0.0680
23020W        W43300   6.988   0.615  10.814  0.1677 -0.0307 -0.4280
23021W        W43301   5.028  18.701   2.298  0.2891 -0.1447 -0.0996
23022W        W43302  10.160  11.304   0.424  0.0255  0.0651  0.1557
23023W        W43303   8.072  11.743   2.229 -0.2428  0.2142 -0.0090
23024W        W43304  10.633   5.912  14.954 -0.1358  0.0615  0.3312
23025W        W43305  18.477  17.017   3.673 -0.0767 -0.1208  0.3592
23026W        W43306  11.879  13.668   2.129 -0.1804 -0.2263  0.0148
23027W        W43307  15.733   7.397  11.980 -0.1465 -0.2042 -0.2345
23028W        W43308   3.499   9.267   4.418 -0.0754 -0.3457 -0.1058
23029W        W43309   1.872  17.729  13.021 -0.0348  0.0127 -0.2149
23030W        W43310   8.002   9.265   1.490 -0.0461  0.0137 -0.0280
23031W        W43311   1.691  16.818  13.193 -0.0216  0.1379 -0.0787
23032W        W43312   3.785   3.044   1.023 -0.0664  0.1610  0.2799
23033W        W43313   2.154  14.647   1.381  0.1041 -0.1295 -0.0039
23034W        W43314  11.703  16.352  13.604 -0.1712  0.0824 -0.1400
23035W        W43315  10.078  18.249  12.319  0.1490 -0.0006  0.2309
23036W        W43316  14.564   3.613  13.132  0.1063 -0.0198  0.0861
23037W        W43317  17.337  10.881   0.397 -0.1662 -0.0732 -0.4507
23038W        W43318   2.585   9.646   1.915 -0.4305 -0.0855 -0.0355
23039W        W43319  13.293  15.740  11.977  0.0654 -0.4340 -0.4982
23040W        W43320  15.065  17.288   1.024  0.2756 -0.1332 -0.1094
23041W        W43321  16.878   8.243  14.329  0.2409  0.2292 -0.1465
23042W        W43322  13.815   0.315   1.580  0.0418 -0.1526  0.0013
23043W        W43323   0.129   1.306   2.000 -0.4656 -0.1262  0.2417
23044W        W43324   4.578  18.491   3.878 -0.0024 -0.0997  0.3227
23045W        W43325   1.065   9.937   2.676 -0.1078 -0.1526  0.0321
23046W        W43326   6.541   0.771   3.588  0.0970 -0.0043 -0.4460
23047W        W43327  12.848   0.867  15.286 -0.1467 -0.0567  0.2655
23048W        W43328   7.591  15.343  12.957 -0.2588 -0.0787  0.2480
23049W        W43329   7.544   9.376  11.560 -0.4044  0.1817  0.0362
23050W        W43330  11.418   6.808   0.736  0.1623 -0.2062 -0.4021
23051W        W43331   9.727  10.052   0.941 -0.0655 -0.1665 -0.1717
23052W        W43332  12.740   7.347   2.430 -0.3636 -0.0277 -0.2063
23053W        W43333  13.217  10.764   2.840 -0.2053  0.0845  0.0100
23054W        W43334  17.485   4.107  15.251 -0.1554  0.1464 -0.2377
23055W        W43335  15.377   1.879  15.004  0.2354  0.1094  0.2241
23056W        W43336  16.897   3.298   2.261  0.1573  0.1501  0.3463
23057W        W43337   6.836   0.461  14.694 -0.2836 -0.2481 -0.2543
23058W        W43338  18.435   2.662  12.410  0.1381 -0.2793 -0.2981
23059W        W43339   0.192   6.274  12.402  0.2202 -0.1683  0.1134
23060W        W43340   3.277   5.331  15.019 -0.0162 -0.0262 -0.0382
23061W        W43341   7.468  13.600   2.493  0.3433 -0.1685  0.3207
23062W        W43342   1.229   4.001  13.633 -0.0260  0.0958 -0.0191
23063W        W43343   1.201  11.698  13.646  0.0748  0.3015 -0.1677
23064W        W43344   4.529  14.732  14.524 -0.0723  0.5746  0.0660
23065W        W43345   0.475   9.362  15.209 -0.1940 -0.1296 -0.0075
23066W        W43346   1.809   4.108  13.481 -0.2674  0.2637 -0.1870
23067W        W43347   7.995  17.342   1.324  0.0223 -0.1823 -0.1876
23068W        W43348   9.508  18.732   3.669  0.0260 -0.2782  0.0474
23069W        W43349  17.505   9.479   2.985 -0.1685 -0.3099  0.0847
23070W        W43350  16.113   5.424   1.272 -0.2906  0.5178  0.1030
23071W        W43351  13.614  14.409  12.858  0.0390  0.0906  0.0365
23072W        W43352  15.922   6.526   2.821 -0.2641 -0.0371  0.0715
23073W        W43353  10.518  16.207  10.770 -0.0869  0.1095 -0.0453
23074W        W43354  18.055   1.199  11.573  0.1465  0.4362 -0.2966
23075W        W43355  13.195   0.408  14.609 -0.0412  0.0904  0.0619
23076W        W43356   2.934   4.268   0.077  0.2142  0.0828  0.1669
23077W        W43357  15.628   8.183   4.593  0.2650 -0.1274 -0.2400
23078W        W43358   5.287   4.020  13.689  0.0311 -0.1673 -0.1631
23079W        W43359   4.840   0.808  13.868  0.1251  0.1255  0.0521
23080W        W43360   6.117   7.255   3.813 -0.1287  0.0369  0.2726
23081W        W43361   8.666   1.302   4.235 -0.0992 -0.0750  0.2298
23082W        W43362   0.693  12.496  13.664  0.1461 -0.2774  0.3388
23083W        W43363  18.185  14.754   1.289 -0.2141  0.2153  0.1673
23084W        W43364  15.942   3.149  13.828  0.0976  0.2083  0.0764
23085W        W43365  10.660   9.194  14.282 -0.1813 -0.0220 -0.0199
23086W        W43366   5.031   0.729   0.812  0.2443  0.3273 -0.0737
23087W        W43367   1.769  17.907   0.944 -0.0099  0.0918 -0.1485
23088W        W43368  13.156  14.964  14.469 -0.0549  0.1375  0.1824
23089W        W43369  15.816   5.116  12.574 -0.0494 -0.1520  0.1200
23090W        W43370  13.490  14.365   1.277 -0.1098 -0.0031  0.1465
23091W        W43371   2.812  10.587  12.221  0.3787 -0.0156  0.1190
23092W        W43372   5.516   7.584   4.350  0.0959  0.1196 -0.3732
23093W        W43373  15.244  17.101  12.182 -0.2856 -0.0704  0.1785
23094W        W43374  18.112   8.950   1.352 -0.0245  0.0274  0.3830
23095W        W43375   8.066  14.265  13.113 -0.1999 -0.1706  0.0783
23096W        W43376  16.142   8.323   4.417  0.2808  0.1266 -0.0562
23097W        W43377  14.024   5.857  14.218  0.2908  0.0971  0.1213
23098W        W43378  13.401  18.374  11.970 -0.2301 -0.0198  0.0154
23099W        W43379   9.209  16.636   1.960  0.2783  0.2372  0.0222
23100W        W43380   1.636  15.694  11.706 -0.3682 -0.0250 -0.1977
23101W        W43381   3.705  10.962  11.697  0.1858  0.0761  0.0745
23102W        W43382  13.490  14.930  13.489  0.2436 -0.0121 -0.0666
23103W        W43383   6.127  18.104   4.223 -0.2385 -0.3716 -0.3801
23104W        W43384   8.182   4.021   3.490 -0.0023  0.0990  0.0802
23105W        W43385   4.893   2.342   1.371 -0.0784 -0.2885 -0.0782
23106W        W43386  16.035   2.758  12.148 -0.1625  0.2025  0.1356
23107W        W43387  18.613   7.184   3.437  0.1682 -0.0990  0.0473
23108W        W43388   4.951   6.667  11.960  0.0594  0.1539  0.2504
23109W        W43389   8.590   1.666  14.550  0.0135 -0.3186  0.4487
23110W        W43390   3.568   4.952   1.406  0.1155  0.1084  0.0102
23111W        W43391   7.311   0.287   3.802 -0.0978  0.4267 -0.0767
23112W        W43392  10.258   1.780  12.499  0.1021 -0.0715 -0.1136
23113W        W43393  18.156  11.478   1.707 -0.0489 -0.2490 -0.2052
23114W        W43394   3.574  16.729  12.666 -0.0709 -0.2538 -0.0220
23115W        W43395  11.470   9.448  13.147  0.0445  0.2614  0.0960
23116W        W43396   8.475  10.225  15.116  0.1900 -0.2315  0.0579
23117W        W43397   6.447  13.956   2.618 -0.0262  0.0061  0.0643
23118W        W43398   9.948  10.952   2.083 -0.2902  0.3038  0.1880
23119W        W43399  11.272   6.010   3.471  0.1127 -0.1044 -0.0315
23120W        W43400   8.772   7.595  13.631  0.1679  0.0377 -0.2079
23121W        W43401   9.695   6.561  12.418 -0.0033  0.2141 -0.2525
23122W        W43402   2.445  11.989   2.873  0.1595 -0.4186  0.3043
23123W        W43403  12.276   9.999  14.821 -0.0209  0.3442  0.0943
23124W        W43404  11.758   8.699  11.523  0.1102  0.4438  0.0167
23125W        W43405   0.498  11.507  11.394 -0.1009  0.2903  0.1878
23126W        W43406   5.733  14.018   1.604 -0.1906 -0.0710 -0.3043
23127W        W43407  11.862   6.913   0.381  0.2322  0.1722 -0.0695
23128W        W43408  16.758  12.259   4.903  0.3182  0.2833 -0.1347
23129W        W43409  17.822  17.782   4.040  0.1136  0.2255 -0.1737
23130W        W43410  14.495  18.368   0.871 -0.0029  0.0900  0.1328
23131W        W43411  16.387   0.911  14.215  0.0255 -0.0081  0.1682
23132W        W43412   7.681   2.880  13.018 -0.1571  0.0963 -0.0874
23133W        W43413  10.977  13.747  15.186 -0.0251 -0.1839  0.1365
23134W        W43414   6.565  16.919  12.777 -0.1226 -0.4388  0.0679
23135W        W43415  17.794  10.544   3.326  0.1686  0.0736 -0.0856
23136W        W43416   7.834  14.374   3.006  0.2582  0.2951  0.0160
23137W        W43417  10.954  15.779  15.247  0.0256 -0.0127 -0.1217
23138W        W43418  13.915  13.322  14.786  0.1380  0.2544  0.2840
23139W        W43419  16.293  16.236   4.305 -0.0017 -0.1079  0.1450
23140W        W43420   4.834   3.655  11.673 -0.0081  0.0785  0.0321
23141W        W43421   6.481  13.469   3.488 -0.0259  0.5940 -0.1881
23142W        W43422   1.818   5.664  12.333 -0.1520 -0.0818 -0.2335
23143W        W43423  16.739   5.615  14.298 -0.1483 -0.0352 -0.2050
23144W        W43424   6.630  10.092   1.022  0.0093  0.1206 -0.2969
23145W        W43425  17.881  11.694  13.751  0.3110  0.0403 -0.2471
23146W        W43426  18.283   8.910   1.861  0.2839 -0.0846  0.3788
23147W        W43427   5.189   0.967   3.161  0.1421 -0.1234 -0.0957
23148W        W43428   7.859   3.407   1.135 -0.1270 -0.0413  0.1998
23149W        W43429  11.880  10.417   0.639  0.1786 -0.0736  0.3078
23150W        W43430   2.149  12.914  13.070  0.1207 -0.1599  0.1072
23151W        W43431   2.944   9.425  14.856 -0.0280  0.0472  0.2439
23152W        W43432  11.464  10.196   0.808  0.0719  0.0246  0.1476
23153W        W43433  10.571   3.035   2.538 -0.1430  0.4990  0.0513
23154W        W43434   5.975  18.247  11.526 -0.3778  0.0446 -0.1619
23155W        W43435  17.947   2.673  12.203  0.1739  0.4409 -0.1184
23156W        W43436  12.538  18.239  13.479 -0.1215  0.1654  0.0790
23157W        W43437   4.150   3.423   1.164 -0.2020  0.0170  0.1622
23158W        W43438  10.822  16.709  15.303  0.5297 -0.2301  0.1619
23159W        W43439   9.043   6.590  13.896  0.0080 -0.0797 -0.1453
23160W        W43440   7.631   5.705  15.221  0.0906 -0.2730 -0.0238
23161W        W43441  18.388  17.334   1.293 -0.2286  0.2675 -0.2337
23162W        W43442   7.763   9.269   4.565 -0.3481  0.0567  0.1709
23163W        W43443   9.730  11.424  12.500 -0.1256  0.1053  0.0178
23164W        W43444   6.950  17.468   1.437  0.1835  0.1190  0.0291
23165W        W43445   1.754  14.416   2.833 -0.2283  0.0590 -0.0224
23166W        W43446  16.683   5.553   3.717 -0.0155 -0.0400 -0.0781
23167W        W43447   5.316   4.801  11.276 -0.0252  0.0588 -0.0942
23168W        W43448   5.190   8.930  14.944 -0.2689 -0.0500 -0.2751
23169W        W43449   8.354   7.908  15.115 -0.2370 -0.0401  0.3362
23170W        W43450   7.773   3.731  12.365 -0.0374 -0.0558 -0.0205
23171W        W43451  18.127  16.734  12.726 -0.1696  0.0272  0.4692
23172W        W43452   0.253  18.539  14.042  0.0842 -0.3196 -0.0613
23173W        W43453   9.658  14.034  11.840  0.0764  0.0425 -0.0734
23174W        W43454   6.033   2.400  13.230  0.0863 -0.3493 -0.1972
23175W        W43455  13.945   9.721  13.262 -0.2511  0.1813  0.0319
23176W        W43456   1.405   4.380  11.289  0.0621 -0.0087  0.0866
23177W        W43457  18.506   4.174   3.918 -0.2778  0.0027 -0.1213
23178W        W43458  10.197   0.965  10.816  0.2210  0.1200 -0.2251
23179W        W43459   3.576  15.956  12.205 -0.2873  0.0683 -0.1984
23180W        W43460  14.043   4.231   4.328  0.1117 -0.2692  0.1830
23181W        W43461  18.682  18.714   0.820 -0.0445  0.1547 -0.3107
23182W        W43462  10.126  13.869  15.170  0.1422 -0.0566 -0.3299
23183W        W43463   5.838  14.876   4.357  0.1977  0.1365  0.0702
23184W        W43464   9.639  13.735  13.701 -0.1292 -0.2586 -0.0184
23185W        W43465   5.431  15.242  10.590 -0.1785 -0.0044  0.2599
23186W        W43466  13.380  17.714  11.930 -0.0691  0.0322  0.1583
23187W        W43467   5.514  15.088  14.123 -0.2162 -0.4212 -0.1757
23188W        W43468   4.001  12.984   0.853  0.3304  0.0336 -0.0659
23189W        W43469  15.316   4.304  11.373  0.0363 -0.3683 -0.1568
23190W        W43470  17.267   6.182   2.811 -0.0683 -0.3337 -0.0369
23191W        W43471  15.004   0.066   1.430 -0.1050 -0.0779 -0.3829
23192W        W43472  14.733  12.660   0.106 -0.2199  0.0148  0.1430
23193W        W43473  10.512  16.003   2.591  0.0102  0.1226  0.1341
23194W        W43474   7.778   6.533   0.016  0.0035  0.0520  0.1432
23195W        W43475   8.112   1.455   2.216 -0.2870 -0.0579  0.1042
23196W        W43476   3.778   9.262   2.520  0.0463  0.2170  0.0305
23197W        W43477   7.558   9.723  14.014 -0.2253 -0.0613  0.1038
23198W        W43478   1.388  14.752   0.145 -0.2523 -0.1554  0.0556
23199W        W43479  18.672  15.120  13.213  0.0645  0.1646 -0.2044
23200W        W43480  15.602  13.571   2.392 -0.3289  0.1272  0.3237
23201W        W43481   0.293  13.136   0.477  0.1222  0.1946  0.0241
23202W        W43482   7.189   4.675   2.372 -0.1235 -0.2684  0.0968
23203W        W43483  12.935   5.369   4.697  0.3468  0.1012  0.1988
23204W        W43484   2.092   5.792  11.221 -0.2529  0.0408  0.1919
23205W        W43485  17.913   9.564   2.397 -0.2284  0.0297 -0.0251
23206W        W43486   0.952  18.505  13.699  0.3332 -0.3812 -0.0072
23207W        W43487   7.062  11.319   3.047 -0.1476  0.0630 -0.0656
23208W        W43488   2.091  16.499  14.500 -0.1823 -0.0577  0.2925
23209W        W43489   9.049   6.008  14.608  0.1228 -0.1109  0.0489
23210W        W43490  12.257  11.330   1.279  0.3054  0.0401  0.0727
23211W        W43491   0.092  11.923   2.269 -0.0676 -0.0545  0.0073
23212W        W43492  10.942   1.276  11.900 -0.1439  0.3066  0.0359
23213W        W43493  18.230   3.330   5.696 -0.1964  0.2515  0.0103
23214W        W43494  14.994   8.852   0.122  0.0118  0.0292 -0.0974
23215W        W43495   1.556   8.208   2.391 -0.2217 -0.0415  0.3085
23216W        W43496   3.065   3.766   1.287  0.2573 -0.0232  0.0373
23217W        W43497   5.882  16.199  15.285 -0.0854 -0.2738 -0.1097
23218W        W43498  11.794  11.922   3.833  0.0097  0.2020  0.1145
23219W        W43499  12.034  18.136   0.482 -0.0042 -0.1369 -0.0834
23220W        W43500  13.631   4.127   2.903 -0.1350 -0.2466  0.1106
23221W        W43501  12.012  16.382   1.005  0.1231 -0.1770 -0.2024
23222W        W43502  17.218  11.445   0.945  0.0230 -0.1735 -0.0886
23223W        W43503  14.889   3.857  12.779 -0.1404 -0.0339  0.0053
23224W        W43504  11.495  16.159   0.540 -0.2391  0.1746  0.2187
23225W        W43505   7.586   8.349  12.672 -0.1486 -0.0298 -0.0451
23226W        W43506  18.561   6.310   4.513  0.1503  0.2866  0.0767
23227W        W43507   5.183   3.386   1.279 -0.1086 -0.0547  0.1630
23228W        W43508   4.067   3.069   3.527  0.1498  0.1036 -0.0571
23229W        W43509   3.063  13.890  13.501  0.2255 -0.0845 -0.2801
23230W        W43510   2.944   5.046  12.529 -0.1605 -0.0343  0.0870
23231W        W43511  10.912  10.568   0.184  0.1242  0.0091 -0.0751
23232W        W43512  17.034   5.693   1.687  0.2171 -0.0578 -0.0021
23233W        W43513  12.630   2.722  14.047  0.2089  0.2104 -0.0805
23234W        W43514  15.069  12.080   2.770 -0.1880  0.1902 -0.1021
23235W        W43515  11.663  12.702   4.285 -0.0742 -0.0660 -0.0623
23236W        W43516   0.128   9.838   3.732  0.0561 -0.3637  0.2060
23237W        W43517  10.925  14.515   1.711 -0.0304 -0.0267 -0.1411
23238W        W43518  14.163   8.206   1.284  0.3436 -0.2037  0.0958
23239W        W43519  14.599  11.116  12.445 -0.0031 -0.2724  0.1062
23240W        W43520  16.444   0.564   1.872 -0.0810 -0.0956  0.0515
23241W        W43521   5.617  17.522   1.407  0.0548  0.0495  0.1294
23242W        W43522   5.718   2.883   0.413  0.3319 -0.1228 -0.0681
23243W        W43523  14.671   7.495  12.174  0.1177 -0.2383 -0.1319
23244W        W43524   9.661   3.389   1.478 -0.0088  0.0499  0.0688
23245W        W43525   6.268  11.208  11.170  0.3275 -0.0612 -0.2028
23246W        W43526   6.419   0.839   0.500 -0.1061  0.2093 -0.3543
23247W        W43527   0.393  12.896  13.419  0.1004  0.0878  0.0313
23248W        W43528  14.112   3.923   2.812  0.2683  0.3277  0.0271
23249W        W43529   2.931  17.411  14.249  0.1104  0.0636 -0.1871
23250W        W43530  12.535   5.443   1.954 -0.1077 -0.1718 -0.0540
23251W        W43531   3.039   5.199   3.220 -0.1240 -0.1274  0.0738
23252W        W43532   1.620   7.077  13.653  0.0469  0.1935 -0.0985
23253W        W43533  12.010  14.951  14.582  0.2305  0.2321  0.0861
23254W        W43534   3.306  12.351  12.375  0.1203 -0.1945  0.2257
23255W        W43535  12.145   7.512   4.187 -0.0720 -0.1679 -0.1955
23256W        W43536   9.320   7.525   3.556  0.0827 -0.0661  0.0377
23257W        W43537   6.165  12.450  11.127  0.2281 -0.0664 -0.0677
23258W        W43538   0.567   7.394   4.461  0.1478 -0.0693 -0.1338
23259W        W43539  15.066  10.389   2.501 -0.0483 -0.1341 -0.1462
23260W        W43540   6.160   9.671  12.661  0.1268  0.0548 -0.0953
23261W        W43541   8.315   7.671   3.710  0.1450 -0.0020  0.1473
23262W        W43542  14.965  12.448  14.172  0.0398  0.0378  0.0059
23263W        W43543   6.996   3.168  10.855 -0.2450  0.3045 -0.0961
23264W        W43544  18.617   1.931   3.477 -0.0577  0.1428  0.0598
23265W        W43545  18.572   5.324   3.544 -0.0724 -0.3620 -0.0594
23266W        W43546   0.678  13.328  13.099  0.2979 -0.1109  0.3772
23267W        W43547  12.466   9.801   3.619  0.1421  0.0209  0.1053
23268W        W43548   9.672   5.411  11.625 -0.2527 -0.1740 -0.0073
23269W        W43549  14.389  12.584   4.401  0.1503 -0.2611  0.0763
23270W        W43550  13.608  13.939  11.937 -0.1652  0.1911 -0.2148
23271W        W43551   4.797  12.208  12.911 -0.1279 -0.3952 -0.0000
23272W        W43552   2.899  16.851  12.169 -0.2762 -0.0485 -0.2175
23273W        W43553   8.082  15.682  14.810  0.0432  0.1114  0.1783
23274W        W43554  10.370  14.317   2.439  0.0529 -0.1217 -0.2890
23275W        W43555   4.797  17.809  14.813 -0.0333  0.1251  0.0604
23276W        W43556  17.759   3.454   0.366  0.1224 -0.1735 -0.2646
23277W        W43557   3.903   6.712   1.864  0.2066 -0.1442  0.3237
23278W        W43558   3.044   7.792   1.175  0.1012 -0.3195  0.0998
23279W        W43559  12.257   8.672   1.449  0.1802 -0.0201 -0.1127
23280W        W43560   1.070   0.276   2.152 -0.1146  0.0063  0.0455
23281W        W43561  11.225   4.696  12.646 -0.2364  0.3432 -0.0969
23282W        W43562  16.858   5.846  12.885  0.3479  0.1765 -0.2625
23283W        W43563  12.621  12.277  12.698 -0.0595  0.1092 -0.1952
23284W        W43564   6.558  17.607  13.196 -0.1022 -0.2398  0.0204
23285W        W43565  11.686   5.780   1.714  0.0552  0.1572 -0.1809
23286W        W43566   4.082   2.324   2.286 -0.1796 -0.1168 -0.0171
23287W        W43567   2.414   3.591   1.285  0.0548 -0.1091  0.1686
23288W        W43568   6.402   3.165  12.606  0.0810  0.0666  0.1913
23289W        W43569  10.244  11.236   3.020 -0.0772  0.1073  0.2691
23290W        W43570  16.071   8.750   2.388  0.0017 -0.0776  0.0084
23291W        W43571   1.033  12.524   0.075  0.3918 -0.0682 -0.1320
23292W        W43572   2.228  16.386  11.945  0.1429 -0.0682 -0.0966
23293W        W43573  13.944  15.875  15.381 -0.0703 -0.5480  0.0450
23294W        W43574   9.095   4.183  12.860 -0.1098  0.2572  0.0578
23295W        W43575   1.607   2.145   0.428 -0.0571 -0.1840  0.1806
23296W        W43576   7.947   1.169   2.731  0.0309 -0.1747  0.0595
23297W        W43577  13.261  10.309  13.740  0.2715 -0.2231  0.1463
23298W        W43578  14.884   7.127  13.210 -0.1963  0.3766  0.0076
23299W        W43579  14.773   5.927   1.374  0.2240  0.2720  0.0046
23300W        W43580   7.399   8.840   4.870  0.0094 -0.1839  0.2693
23301W        W43581   8.164  17.531  13.290 -0.1117  0.2321  0.2260
23302W        W43582   0.903   9.861   2.009  0.0288 -0.1135 -0.0521
23303W        W43583   8.227  15.719   0.813  0.1205 -0.1456  0.0774
23304W        W43584   2.859   0.437   4.787  0.2892 -0.2336 -0.2964
23305W        W43585   2.466  10.279  15.301 -0.0093 -0.0746  0.1488
23306W        W43586   2.927  13.690  11.911 -0.2314 -0.0993 -0.2371
23307W        W43587   8.908   1.640  13.737 -0.0226  0.0211 -0.1168
23308W        W43588  17.846   8.208   0.530 -0.0054 -0.1465 -0.0560
23309W        W43589   8.103  17.121   3.571  0.0339 -0.1417 -0.1913
23310W        W43590  10.177   7.611  15.316  0.0625 -0.0682  0.1810
23311W        W43591  17.801   4.358   2.094 -0.1198  0.0290 -0.1018
23312W        W43592   3.543  15.898   2.924 -0.0471 -0.2827 -0.1767
23313W        W43593  12.149  15.659   0.435  0.1525 -0.3452  0.2935
23314W        W43594  12.912   5.351  14.653  0.0054  0.2007 -0.3212
23315W        W43595   2.146   0.191   2.933 -0.0191 -0.2425  0.1636
23316W        W43596   9.554  13.084   1.687  0.0711 -0.0062  0.0809
23317W        W43597   5.539   0.576  11.819 -0.0649 -0.0660  0.1025
23318W        W43598   8.917   9.815  12.865  0.0051  0.1746  0.0560
23319W        W43599   4.228  12.771  13.938  0.1101  0.0355  0.0958
23320W        W43600   4.535  18.099  13.217 -0.0842 -0.1797  0.2425
23321W        W43601   9.596  10.247  12.750  0.0275 -0.0606  0.1992
23322W        W43602  13.404   0.056  13.544  0.0110 -0.0200 -0.2712
23323W        W43603   6.641  18.267  13.900  0.0162  0.0061 -0.2485
23324W        W43604  12.377   7.700   2.305  0.0229 -0.0440  0.1397
23325W        W43605  14.133  14.952   4.341 -0.3457 -0.3882  0.0920
23326W        W43606   8.602   9.583  11.434  0.5228  0.2726  0.0760
23327W        W43607  13.987   3.178   4.579 -0.2101 -0.0544  0.1296
23328W        W43608  13.547   4.734  12.222 -0.0691 -0.0914  0.2047
23329W        W43609  18.152  13.493   4.611 -0.1615  0.1868  0.2683
23330W        W43610   7.931   9.412   0.733  0.0504  0.3692 -0.0334
23331W        W43611   2.970   3.006  10.728  0.0787  0.2672 -0.3014
23332W        W43612   0.880   9.896  12.043 -0.1560 -0.0089 -0.2258
23333W        W43613  16.379   6.482   0.129 -0.0079  0.0224  0.0747
23334W        W43614   1.147   3.116  15.241 -0.0740  0.0496  0.0787
23335W        W43615   2.747   0.368   2.881  0.1108  0.2079  0.1507
23336W        W43616  12.870   7.773   2.231  0.2462  0.0373  0.3537
23337W        W43617   0.151   9.144   3.206 -0.1474  0.0949 -0.0811
23338W        W43618  11.182  13.726   1.964 -0.1002  0.0226 -0.0090
23339W        W43619   8.057  15.160   2.437  0.0180 -0.1299 -0.0772
23340W        W43620  10.670   4.009   0.764 -0.1184  0.0313 -0.2305
23341W        W43621   2.275  12.753  11.514  0.2648 -0.1102  0.1944
23342W        W43622   7.801  17.677  11.133  0.3699  0.3463 -0.1933
23343W        W43623   6.336  15.658  11.922 -0.0284  0.0341 -0.0830
23344W        W43624  11.490   0.530  12.141 -0.2940  0.0204  0.2037
23345W        W43625  15.361   9.008   1.855  0.1873 -0.0480  0.2493
23346W        W43626  15.044  14.001  14.855 -0.0791  0.1178  0.1118
23347W        W43627   4.404   3.479  11.953  0.0399 -0.1297 -0.1440
23348W        W43628   4.694  16.410   1.511 -0.0937  0.0791 -0.2370
23349W        W43629  14.531  11.293  14.539  0.0349  0.1828 -0.2676
23350W        W43630  15.247   1.163   2.434 -0.0666 -0.1520 -0.0745
23351W        W43631  11.704  15.425   2.916  0.0162  0.0953 -0.2196
23352W        W43632  12.801   1.696  14.612 -0.1151  0.2141 -0.1656
23353W        W43633   7.075  16.138   0.300 -0.1663 -0.0032  0.0174
23354W        W43634   4.293  15.559  13.059  0.2518 -0.0204  0.3665
23355W        W43635   6.271  17.891  14.816  0.2346 -0.1200 -0.0548
23356W        W43636  14.584  18.557   0.411  0.1229 -0.0500 -0.3533
23357W        W43637   8.209  14.691   3.137  0.2206 -0.2372 -0.0401
23358W        W43638   0.481   0.090  14.917 -0.2277  0.0153  0.0465
23359W        W43639   5.769   4.460   0.096 -0.1864 -0.0349  0.0818
23360W        W43640  14.891   4.345   4.483  0.0088  0.0070  0.0807
23361W        W43641  18.394  10.435  11.712  0.0608 -0.4422  0.0606
23362W        W43642   1.283  14.816  14.522  0.0595 -0.0175  0.0800
23363W        W43643   6.067   1.785  11.757  0.1098  0.0776 -0.2083
23364W        W43644   8.570  17.826  13.318  0.1181 -0.2228  0.0915
23365W        W43645   2.822   5.299  12.141  0.0361  0.0117 -0.2922
23366W        W43646   6.752  16.380  11.359 -0.3335  0.2370  0.2883
23367W        W43647   9.503   3.859   1.619 -0.0318 -0.1352 -0.0819
23368W        W43648  15.438   9.014  15.266  0.0158 -0.0302  0.0147
23369W        W43649   8.337  14.006   9.617 -0.0508  0.2954 -0.1169
23370W        W43650   1.964  16.968  15.286 -0.2139  0.2063 -0.1187
23371W        W43651  17.373  11.074  14.986 -0.1011 -0.0431 -0.2380
23372W        W43652   0.206   6.148  13.424 -0.1578  0.1152 -0.0033
23373W        W43653   9.280  11.501   1.664  0.1786  0.0133  0.1846
23374W        W43654   3.625  12.215  11.517  0.0292 -0.3333 -0.2235
23375W        W43655  15.164   9.984   0.024 -0.1851  0.2678  0.0355
23376W        W43656  15.369   7.329   3.957 -0.1746 -0.0784  0.2034
23377W        W43657  15.827  17.121   1.109  0.0349  0.2593  0.0460
23378W        W43658  10.611  13.532  11.995  0.1467  0.0106 -0.0597
23379W        W43659  18.537   9.113   3.718 -0.0074 -0.0497  0.1998
23380W        W43660  16.150  14.718   2.753  0.0536 -0.0021  0.0617
23381W        W43661   6.927   5.954  13.974  0.0621 -0.0262  0.1049
23382W        W43662   1.367   3.419   3.639  0.1358 -0.0778  0.0456
23383W        W43663  17.354  15.871   5.012 -0.2578 -0.1691 -0.3671
23384W        W43664   7.390  12.853   1.947 -0.0196 -0.1687  0.2130
23385W        W43665  17.837  11.093   0.122  0.5394 -0.1619 -0.1333
23386W        W43666   6.442   7.748  14.223 -0.0620  0.0177  0.1016
23387W        W43667   5.092  16.823  11.775  0.0384  0.1926 -0.0813
23388W        W43668   7.859   5.636   0.312 -0.3545 -0.1420  0.1035
23389W        W43669   8.245   1.226  12.433 -0.2437  0.2341  0.0790
23390W        W43670  17.236   7.895   1.674 -0.0638  0.1072 -0.0634
23391W        W43671   2.491  17.654   2.725  0.3064 -0.1884  0.3277
23392W        W43672  15.386  12.231  14.202  0.0190  0.4361  0.1842
23393W        W43673   2.869   0.649  14.933  0.1189 -0.2146 -0.1858
23394W        W43674  13.971  13.196  13.446  0.1201 -0.3550  0.1016
23395W        W43675  17.847  17.102  12.969 -0.2077  0.0395 -0.3263
23396W        W43676  16.469   7.707  11.763 -0.1684  0.1157  0.3013
23397W        W43677   3.679  16.946  11.520 -0.2171  0.0548 -0.3795
23398W        W43678   9.136  13.470   4.227  0.1665 -0.4598 -0.3888
23399W        W43679   2.163   9.762   3.391 -0.0717  0.0008  0.0528
23400W        W43680   4.902   1.304  10.764  0.1667  0.0403  0.2775
23401W        W43681   8.249   7.254   2.455 -0.2983 -0.1173 -0.1733
23402W        W43682  15.157  10.214   3.431 -0.3971  0.2935 -0.1446
23403W        W43683  13.852  13.620   0.154 -0.0954  0.2283 -0.0447
23404W        W43684   9.497   1.921  12.855  0.0646 -0.2874  0.0905
23405W        W43685   4.200  17.009  11.934 -0.0385 -0.1975  0.0323
23406W        W43686  10.918   6.979  14.002  0.2911  0.0243 -0.3039
23407W        W43687  11.875  16.179   2.358 -0.0178  0.3853 -0.0559
23408W        W43688   9.418   7.866  13.394 -0.0359 -0.0222  0.0386
23409W        W43689  14.507   5.785   4.912 -0.1340  0.0364 -0.0845
23410W        W43690   2.509   8.636   0.126 -0.2148  0.1690  0.2241
23411W        W43691  15.047  13.762   4.490 -0.3345  0.2734 -0.0173
23412W        W43692   9.270   3.274   2.759  0.1180  0.0850 -0.0909
23413W        W43693   3.428   5.071  12.849  0.1605 -0.3429 -0.0804
23414W        W43694  16.867  13.167   4.323 -0.2078  0.0479  0.0392
23415W        W43695  11.782  11.759  14.159  0.3762  0.1052 -0.1691
23416W        W43696   6.544   9.858  12.991 -0.1117 -0.3274 -0.0976
23417W        W43697   4.365  12.927  11.074  0.2069 -0.0713  0.1433
23418W        W43698   1.107   0.527  14.909 -0.0932 -0.1462 -0.0746
23419W        W43699   0.792  12.737   0.697  0.0119 -0.0100 -0.1166
23420W        W43700   8.155  12.717  13.642 -0.0771 -0.0100 -0.0485
23421W        W43701   5.013  14.542  13.327 -0.2100  0.1850  0.2849
23422W        W43702   0.056   3.759   0.029  0.0605  0.1612  0.1884
23423W        W43703   6.109  16.793  13.152 -0.3587  0.0786  0.2953
23424W        W43704   7.975  11.538   4.317 -0.0080  0.0628  0.1161
23425W        W43705  10.958   3.153   3.539 -0.1879 -0.0715  0.3017
23426W        W43706   9.403   3.699  14.357  0.0802  0.3156  0.0216
23427W        W43707  18.095  11.888   3.402 -0.4318  0.2260 -0.0035
23428W        W43708   8.202  11.338   1.507 -0.3590 -0.2171 -0.1508
23429W        W43709   9.861   8.650   4.271  0.1435 -0.0669 -0.0107
23430W        W43710  13.912   0.084  13.550  0.1363 -0.0767 -0.0094
23431W        W43711   7.307   2.400  14.055  0.1023  0.0047 -0.1703
23432W        W43712   1.596   9.739  14.827 -0.1258  0.0667 -0.1164
23433W        W43713   3.724   0.625   2.035 -0.0093 -0.1252  0.0972
23434W        W43714  11.963  10.094  11.763  0.2715  0.1486  0.1912
23435W        W43715   9.493  14.720  10.600  0.0721  0.2239  0.1898
23436W        W43716  10.479  11.788  11.646 -0.0687  0.0161 -0.1233
23437W        W43717  14.345   9.661  13.986 -0.1584  0.1396 -0.0638
23438W        W43718   5.783   0.672   2.496  0.0678  0.1694 -0.0399
23439W        W43719   7.680   7.080  14.166 -0.3298  0.1429 -0.1310
23440W        W43720  16.580  16.798   2.869 -0.1563 -0.3587  0.0831
23441W        W43721   6.283  17.261   2.592 -0.0911  0.3888 -0.1096
23442W        W43722   3.791  12.689  13.337 -0.1215  0.0085  0.0588
23443W        W43723   8.410   5.520  12.417 -0.0420 -0.0786  0.1383
23444W        W43724  13.707   3.896  13.210 -0.1407  0.2153  0.0895
23445W        W43725   7.530  18.044  12.383 -0.0435 -0.2097  0.1332
23446W        W43726   6.270  14.826   1.728 -0.0170 -0.2190 -0.1343
23447W        W43727  14.695   9.806  13.645  0.2003  0.3380 -0.2838
23448W        W43728  12.745  11.826  12.524 -0.2245 -0.1998  0.2432
23449W        W43729  17.914   6.124  12.317 -0.2433  0.0338 -0.2106
23450W        W43730   5.319  10.694   4.657  0.1500  0.1186  0.2125
23451W        W43731  14.214   4.539   1.572  0.3266  0.1383  0.2545
23452W        W43732   1.441  14.706   2.212  0.1026  0.2387  0.1146
23453W        W43733  16.545  13.214   2.129 -0.1227 -0.2199  0.0876
23454W        W43734  12.224   3.183  14.211 -0.2625  0.1000 -0.2972
23455W        W43735  16.513  14.488  14.265 -0.1195  0.2063  0.0239
23456W        W43736   8.264   2.964  10.429 -0.0914 -0.1332  0.0664
23457W        W43737  16.823  13.046   0.325  0.1450 -0.3611  0.2484
23458W        W43738  13.768  15.169   4.610 -0.0936 -0.0473 -0.1724
23459W        W43739  17.035   7.086  12.384 -0.2303  0.3342  0.0940
23460W        W43740   6.129   4.681  14.642 -0.0862  0.0605 -0.0936
23461W        W43741   4.996  16.336  14.045 -0.0623 -0.0026 -0.1385
23462W        W43742   2.759   3.688   0.891 -0.1499 -0.1969  0.1922
23463W        W43743   9.029   5.331   1.834 -0.0856  0.0511  0.1759
23464W        W43744  16.584   0.892   4.103  0.2261  0.1036 -0.0183
23465W        W43745  13.073   5.000  12.199 -0.1237  0.4263 -0.0931
23466W        W43746  13.818   6.333   0.512  0.1721 -0.2433  0.1774
23467W        W43747  16.993   1.468   4.518  0.1404  0.1885 -0.4737
23468W        W43748  12.952   0.300  10.856  0.2386  0.0741  0.0483
23469W        W43749  12.016   9.647   3.738  0.3498 -0.0681  0.1955
23470W        W43750  17.801  13.984   0.916 -0.2584 -0.0992  0.3517
23471W        W43751   6.353   5.556   3.877  0.1063 -0.0129 -0.0949
23472W        W43752  14.112  14.071   0.332 -0.0504  0.1075  0.0544
23473W        W43753   6.901   9.125  14.681 -0.2963 -0.0642 -0.0727
23474W        W43754   5.804   6.261  12.699  0.1113 -0.1073  0.1423
23475W        W43755   4.960  11.981   0.176 -0.4423  0.1743  0.0456
23476W        W43756   6.098  17.737   1.125  0.2582 -0.4490 -0.0904
23477W        W43757   3.654   1.837   2.745  0.3490 -0.0313  0.1165
23478W        W43758   4.206   8.829  14.200  0.0884 -0.0223  0.1645
23479W        W43759  15.725  13.183   1.510  0.0051 -0.0087  0.3993
23480W        W43760  15.839   2.327  14.873  0.0544 -0.1397 -0.1827
23481W        W43761   1.023   2.980   2.790 -0.1376 -0.1890 -0.2308
23482W        W43762  11.251   9.275   0.290 -0.4986  0.0808  0.0250
23483W        W43763  14.396  14.186   0.857  0.1831 -0.0126  0.4046
23484W        W43764  12.940   8.895  15.021 -0.2622 -0.0708 -0.2796
23485W        W43765  17.009   4.316  15.233 -0.1053  0.2245  0.0009
23486W        W43766   1.539   0.301  11.993 -0.0460 -0.0128 -0.4774
23487W        W43767   2.684  12.219   1.671 -0.0210  0.2041 -0.3247
23488W        W43768   8.738   5.398  12.045  0.2344  0.0785  0.1354
23489W        W43769   6.443   9.453   3.048  0.2475  0.1578  0.1048
23490W        W43770   3.341   5.285  12.357 -0.2147 -0.1601 -0.0810
23491W        W43771   8.648  11.489  13.119 -0.0006 -0.1888  0.2886
23492W        W43772   3.752  13.393   1.650  0.2155  0.0565 -0.3446
23493W        W43773   7.547  11.884  12.259 -0.1568  0.1805 -0.2481
23494W        W43774   7.510   1.666  13.005  0.2807 -0.0474 -0.2297
23495W        W43775  13.393  15.178  13.946  0.0220 -0.2264  0.0985
23496W        W43776  10.629   2.369  11.426 -0.1332 -0.2055 -0.0448
23497W        W43777  13.094  17.704   0.933  0.0904 -0.1413  0.0901
23498W        W43778  15.673   5.991   1.552  0.1527  0.2332 -0.2307
23499W        W43779  13.694  10.797   0.132 -0.0077 -0.2573 -0.2316
23500W        W43780   8.829  18.329   3.256 -0.5046  0.0888 -0.0810
23501W        W43781   4.084   9.276   2.996 -0.1006  0.1583 -0.3030
23502W        W43782  12.599  14.806   1.753  0.2425  0.2630 -0.0463
23503W        W43783  13.606  13.423  13.741 -0.1065  0.3225 -0.2224
23504W        W43784   9.699  14.795   3.917 -0.1183  0.3585  0.0190
23505W        W43785   3.886  13.349  14.692  0.1489  0.0843 -0.0524
23506W        W43786  11.784  10.815  12.410 -0.2763  0.1073 -0.3192
23507W        W43787   6.065  11.169  14.421 -0.1845  0.3290 -0.1950
23508W        W43788   7.358   6.854   3.206 -0.1316 -0.2265  0.0084
23509W        W43789   4.194  14.450  15.154 -0.1659  0.1649  0.1307
23510W        W43790   0.240   1.117  10.628  0.1582 -0.0788 -0.0475
23511W        W43791  10.163  11.976   3.142 -0.4371  0.2534  0.0811
23512W        W43792   7.111   2.331  15.368  0.0915  0.0254  0.0538
23513W        W43793  16.739  16.259   1.449 -0.1339 -0.2544  0.1527
23514W        W43794  14.067  13.111  12.040 -0.0102 -0.2838 -0.1797
23515W        W43795   9.484  18.615  11.578  0.2754 -0.0677  0.1784
23516W        W43796   1.197   1.496  14.013 -0.0195 -0.3009  0.2053
23517W        W43797   5.137   6.993  10.401 -0.3582  0.2411 -0.0463
23518W        W43798  18.215   3.497   0.466 -0.1219  0.0132 -0.1783
23519W        W43799   5.694  11.038  13.730 -0.0761 -0.0628 -0.1236
23520W        W43800   7.123  15.960  14.839  0.0674  0.3591 -0.2851
23521W        W43801   0.061   6.311   2.781  0.1961  0.0472 -0.2726
23522W        W43802   7.668   6.373   2.613  0.2300  0.0262 -0.4199
23523W        W43803   1.876  15.459   1.682 -0.0778  0.1728 -0.1121
23524W        W43804  16.183  10.578  11.891 -0.5002  0.1219  0.2304
23525W        W43805   3.163   8.260   1.168  0.2543 -0.3401 -0.0393
23526W        W43806   6.189  10.985  15.348 -0.0616  0.2396 -0.2962
23527W        W43807   5.381   9.430   3.435  0.3077 -0.2685  0.2193
23528W        W43808  17.669  14.723   0.417 -0.0123 -0.1037  0.0476
23529W        W43809  13.988   7.475   0.152  0.1363  0.0687  0.0992
23530W        W43810   0.465   6.513   3.452  0.1181 -0.2849  0.0671
23531W        W43811  17.552   9.220   2.219 -0.2260  0.1176 -0.1474
23532W        W43812   0.585  17.821  14.989  0.0195  0.2555  0.0632
23533W        W43813  16.360  14.891  11.575  0.0210  0.0099 -0.0400
23534W        W43814  17.845  10.788  14.914 -0.1575  0.1956  0.0904
23535W        W43815   7.614  10.708  14.817 -0.4956 -0.1814  0.0011
23536W        W43816  10.080   1.764  15.045 -0.5775 -0.1505  0.0086
23537W        W43817   0.594  17.371   3.728  0.0242 -0.0999 -0.2612
23538W        W43818   5.278  13.091   2.654  0.3405 -0.0342 -0.1175
23539W        W43819   8.851  17.416   2.353 -0.2477 -0.0593 -0.1928
23540W        W43820   4.478  16.329  11.324  0.2222 -0.1114 -0.0804
23541W        W43821   4.000  17.864  14.794  0.2517  0.0351  0.2681
23542W        W43822  14.302  12.287   2.993 -0.1556  0.1443  0.1987
23543W        W43823   0.003   8.140  14.616  0.0511  0.2662 -0.2117
23544W        W43824   6.666  14.157  11.451 -0.1841 -0.2875  0.1142
23545W        W43825   6.014   2.422  11.010 -0.0310  0.2573 -0.1591
23546W        W43826   6.695   7.088   3.594 -0.2392  0.2598 -0.1179
23547W        W43827  13.294  18.506   0.397 -0.1013  0.3598 -0.0091
23548W        W43828   1.348   9.718  12.732  0.3044  0.0051 -0.1023
23549W        W43829   3.757  10.183   3.539 -0.0355 -0.0971 -0.0660
23550W        W43830  14.797  18.022  13.581 -0.1951 -0.2973  0.2616
23551W        W43831   0.338  18.729  12.809  0.3744 -0.0011  0.1737
23552W        W43832   2.694   3.798   1.652  0.2462  0.0022  0.2265
23553W        W43833   8.159  12.590  15.223 -0.1012 -0.0362  0.1698
23554W        W43834   0.813  15.625   5.199 -0.0548 -0.0143 -0.3973
23555W        W43835  17.279  16.518  13.069 -0.2960  0.0757  0.0140
23556W        W43836  11.215   6.521   4.265  0.0904  0.2728 -0.1737
23557W        W43837   0.987  10.309  11.630 -0.3758  0.2198 -0.1693
23558W        W43838  17.046   9.216  11.593 -0.2367 -0.3576  0.0201
23559W        W43839   8.466  18.554  13.331  0.0039 -0.0451 -0.1566
23560W        W43840   0.401  13.427   0.095 -0.3187 -0.2989  0.1355
23561W        W43841   0.149   9.801   1.377 -0.4474  0.0528 -0.1019
23562W        W43842  13.356  10.626   0.959  0.1210 -0.0818  0.0184
23563W        W43843  10.184   4.181   3.930  0.1660 -0.0094 -0.3478
23564W        W43844   0.305   8.329   4.945 -0.0132 -0.0637 -0.1331
23565W        W43845  11.191  18.366  11.896 -0.0311 -0.0625 -0.1012
23566W        W43846   4.863  13.540  14.504  0.3597  0.3458  0.2652
23567W        W43847  11.766  18.556  14.155  0.0693 -0.1943 -0.2431
23568W        W43848   3.285  10.262  14.988 -0.1869  0.1490 -0.0891
23569W        W43849  18.029   2.463   0.512  0.2335  0.2289 -0.1605
23570W        W43850   8.395  11.495   3.046 -0.1290  0.1581  0.1147
23571W        W43851  14.346  13.075   3.384 -0.5221  0.1300 -0.0379
23572W        W43852  17.235  14.767   5.061 -0.1176 -0.1347 -0.2519
23573W        W43853   8.247  11.537  14.663  0.0291  0.0774 -0.5309
23574W        W43854   6.950   6.353  11.456  0.0684  0.2037 -0.1875
23575W        W43855   7.124   7.604   1.775  0.2227 -0.2209  0.1398
23576W        W43856   1.231  15.169  13.487 -0.2781  0.0557 -0.0488
23577W        W43857  11.593   9.139   5.009 -0.0006  0.0621 -0.2020
23578W        W43858   9.151  13.800   2.753  0.0188 -0.0173 -0.0907
23579W        W43859  16.619  15.182   1.008 -0.0344  0.2337 -0.1607
23580W        W43860   5.763   2.332  10.561 -0.2613  0.0743 -0.0061
23581W        W43861   3.117  10.202   1.790 -0.1193 -0.0999 -0.0459
23582W        W43862   4.349   7.948  12.244 -0.1813  0.0674  0.2268
23583W        W43863   9.589  15.268   2.224  0.0247 -0.0385  0.4090
23584W        W43864  17.022   5.075   0.378  0.2100  0.0709  0.2370
23585W        W43865   6.676   2.778   1.458  0.2629  0.0129 -0.0708
23586W        W43866   6.753   8.218   0.683 -0.1610  0.1216 -0.0090
23587W        W43867   3.852  18.648  12.687  0.2821 -0.0529 -0.0081
23588W        W43868  15.876  15.157  10.312  0.1434 -0.0165 -0.1637
23589W        W43869   4.458   5.152   1.481  0.1745 -0.1316 -0.1193
23590W        W43870  14.634  17.738  15.134  0.1232 -0.2472  0.1194
23591W        W43871  10.144  18.398   1.664  0.0467 -0.3695  0.0112
23592W        W43872   3.108   0.224   3.160 -0.0410 -0.0887 -0.2406
23593W        W43873   6.926   3.031   2.292 -0.0679  0.0806 -0.1316
23594W        W43874   8.082   9.785   3.199  0.0241  0.2878 -0.1123
23595W        W43875  18.432  14.406  11.609 -0.2052 -0.1088  0.0736
23596W        W43876   5.724   1.202   2.924 -0.2615 -0.1273 -0.0520
23597W        W43877  16.457  18.131  13.470 -0.2578  0.2054  0.2453
23598W        W43878   8.054   5.751   3.636 -0.0695  0.0266  0.0577
23599W        W43879  11.097   9.284  12.637 -0.2758 -0.1699 -0.0163
23600W        W43880   5.227   2.506  12.630 -0.0149  0.0875  0.1951
23601W        W43881  16.730   6.931   0.230 -0.1057 -0.0971  0.0295
23602W        W43882   4.743   3.968   0.491 -0.1982 -0.1597 -0.0085
23603W        W43883   0.414  17.295  15.054  0.0175 -0.2629 -0.1890
23604W        W43884   6.928  11.139  11.907  0.2827 -0.1430  0.3886
23605W        W43885   3.315  16.308   0.648  0.0561 -0.1348  0.1241
23606W        W43886  15.659  16.705  13.398  0.2170  0.1041 -0.4050
23607W        W43887  16.506   7.404  14.966  0.1235 -0.0489  0.2167
23608W        W43888   7.044  18.642   3.468 -0.1013 -0.0102 -0.4426
23609W        W43889   2.189   8.320   1.432 -0.1883 -0.0465 -0.0548
23610W        W43890   2.593  11.843  12.012  0.1917  0.0815 -0.1394
23611W        W43891  16.190   5.366   2.279 -0.0181 -0.2197 -0.0777
23612W        W43892  16.741   9.420  14.120  0.1359  0.4615  0.0675
23613W        W43893  12.290   6.029  13.177  0.0215 -0.2265  0.3068
23614W        W43894   2.027  15.894   1.370  0.0270  0.0369  0.0773
23615W        W43895  15.656  16.856  12.913  0.1337 -0.0650  0.2779
23616W        W43896  16.183   6.723   1.199 -0.0356  0.0534  0.0488
23617W        W43897  12.199   8.691   4.355 -0.1161  0.0732 -0.2718
23618W        W43898  17.225  13.436  15.020  0.0509 -0.0462  0.0953
23619W        W43899  12.673  16.588   3.874 -0.1010 -0.2681  0.0545
23620W        W43900   6.313  16.702  13.618  0.0451  0.3173  0.0074
23621W        W43901   7.831  14.856  13.589 -0.1513  0.1790 -0.3264
23622W        W43902   7.092   4.282  14.328  0.0271  0.2417 -0.1241
23623W        W43903   4.165   1.811   0.019 -0.0598 -0.1616 -0.0952
23624W        W43904  13.592  17.995  12.682 -0.0372 -0.1712 -0.1514
23625W        W43905  15.729   9.462   0.276  0.2675 -0.2700 -0.2305
23626W        W43906   4.189  12.363   0.563  0.0399 -0.4524 -0.1160
23627W        W43907  17.465  10.060  12.521 -0.1214 -0.2988 -0.1387
23628W        W43908  13.195  16.405  13.927  0.2039  0.1242  0.1050
23629W        W43909  11.048  13.875   1.498 -0.1337 -0.1388 -0.0703
23630W        W43910   6.756   3.624   0.305  0.1487  0.0218  0.0434
23631W        W43911   8.380   6.401  12.895 -0.0742 -0.0831  0.2152
23632W        W43912   4.084   0.893   0.241  0.2367  0.2597 -0.3655
23633W        W43913   9.524  17.114  11.268 -0.1071 -0.0751  0.1233
23634W        W43914   5.810   7.011   2.461 -0.1509 -0.2433 -0.2032
23635W        W43915   8.668   6.661   2.922  0.0003 -0.0151  0.0696
23636W        W43916   0.776  15.392  13.459  0.3277  0.2269 -0.0291
23637W        W43917  16.814  14.097  14.349 -0.0268  0.0908 -0.1545
23638W        W43918  14.724   6.999  11.999  0.0997  0.0277 -0.0953
23639W        W43919   7.242  17.978   2.232  0.0872  0.1201 -0.0397
23640W        W43920   7.215  14.734   2.280  0.1274  0.2508 -0.1118
23641W        W43921  13.232  11.304  12.747  0.1854  0.1729  0.0540
23642W        W43922   4.839   2.391  10.946  0.1273 -0.4441  0.1801
23643W        W43923   9.087  18.559  14.751  0.0273 -0.0330  0.0096
23644W        W43924  17.922   0.135   1.078 -0.3691  0.2190  0.0100
23645W        W43925   7.470  12.381  13.216 -0.0761 -0.4663  0.0554
23646W        W43926  10.723   7.279  14.533 -0.1062  0.1759 -0.0646
23647W        W43927   8.148  13.817   3.699  0.0742  0.0583  0.0506
23648W        W43928   1.395   8.498  12.429  0.1953  0.3047 -0.0869
23649W        W43929  13.909  10.626  12.868 -0.1405 -0.2372  0.1251
23650W        W43930   4.354  12.484  13.056  0.0779  0.2201 -0.2686
23651W        W43931  15.772  12.650   1.603  0.0988 -0.1858 -0.3286
23652W        W43932  15.493  12.385   2.866 -0.1490  0.0165  0.2586
23653W        W43933   3.363   5.678  14.183 -0.2671  0.1093  0.0674
23654W        W43934  15.423   6.311  12.592  0.1343 -0.0409  0.2640
23655W        W43935   6.610  15.365   2.545 -0.0920  0.3318  0.0039
23656W        W43936   5.932  12.702  13.239 -0.1443 -0.2755  0.0204
23657W        W43937  17.789   8.014   2.625 -0.1569 -0.0581 -0.1410
23658W        W43938  17.520   3.874   1.144  0.3324  0.4873 -0.3919
23659W        W43939   6.200   9.487   1.874  0.0459 -0.0918 -0.1573
23660W        W43940  14.081   9.295   0.167  0.2496 -0.1182  0.4105
23661W        W43941  17.626  16.986   0.025 -0.0973 -0.0626 -0.0615
23662W        W43942   9.354   0.355   2.107  0.0168  0.1459 -0.0826
23663W        W43943  13.508  11.638   4.422  0.0327  0.0419  0.4490
23664W        W43944  18.180   1.786   0.618  0.1895  0.1269 -0.0890
23665W        W43945  16.468   4.239   3.836  0.0212  0.0108  0.1176
23666W        W43946  18.705  13.865  14.578 -0.1825  0.1976 -0.0056
23667W        W43947   8.096  12.110  14.963  0.0349  0.0609 -0.2408
23668W        W43948  10.263   8.322   2.249  0.0162 -0.1618 -0.1842
23669W        W43949  13.154   4.929   4.516  0.0632  0.1970  0.0570
23670W        W43950  17.950  11.806  14.835 -0.0192 -0.1727  0.1116
23671W        W43951   8.269   5.185  13.087 -0.1479 -0.0892 -0.2660
23672W        W43952   5.245   5.756   2.524 -0.1951  0.3928 -0.2539
23673W        W43953   4.713   3.912   2.023  0.0751  0.0523 -0.0075
23674W        W43954  14.533   1.768   3.475  0.1372  0.1334  0.1292
23675W        W43955  16.431  12.694   0.443 -0.0426  0.3086 -0.0336
23676W        W43956  10.299  13.895  13.023  0.2150 -0.1882  0.3723
23677W        W43957   3.475  18.455  14.303 -0.0821 -0.3494  0.0826
23678W        W43958   5.692  11.773   1.350 -0.0102 -0.1215 -0.1022
23679W        W43959   8.488  17.667  11.274 -0.0542 -0.0183 -0.1267
23680W        W43960   0.654  13.284  11.012  0.0628 -0.4094  0.2244
23681W        W43961  11.385  11.798   4.226 -0.0746 -0.1301  0.2268
23682W        W43962  16.703   6.681   2.535  0.2988 -0.2211 -0.0139
23683W        W43963   5.989   5.206   2.739  0.0880 -0.0593  0.1384
23684W        W43964   9.158  11.080  12.595  0.1441  0.0383 -0.2109
23685W        W43965  12.312   4.547  13.817  0.0949 -0.0650 -0.0655
23686W        W43966   5.412  15.311   1.413 -0.1055 -0.0153  0.0719
23687W        W43967   0.272  12.330  13.923  0.1897 -0.1316 -0.1518
23688W        W43968  12.087   3.578   3.823 -0.1742  0.3091  0.1217
23689W        W43969  16.178   4.068  14.837  0.2855  0.0464 -0.0651
23690W        W43970   8.885   0.775  13.726 -0.1613  0.0951 -0.1561
23691W        W43971  16.474   5.880  11.149  0.1883 -0.2357  0.0973
23692W        W43972   1.469   0.194  15.014 -0.1372  0.2597  0.0631
23693W        W43973   9.035   7.378   0.936 -0.1179 -0.5365  0.1331
23694W        W43974   8.217  10.212  14.143  0.1464 -0.3342  0.1644
23695W        W43975   7.020  13.800   2.670  0.1179 -0.2806 -0.2027
23696W        W43976  10.095   6.223  12.188 -0.1199 -0.0345 -0.0291
23697W        W43977  13.776   1.466  13.783 -0.0547  0.0842 -0.1403
23698W        W43978  18.506   2.870  15.346  0.1573 -0.1913 -0.0065
23699W        W43979   3.029  16.358  14.450 -0.0419  0.1665 -0.2518
23700W        W43980  16.497  14.040   0.620 -0.2662 -0.0897  0.2125
23701W        W43981  10.570   8.794   0.523 -0.0834 -0.1723 -0.0841
23702W        W43982  17.135   8.370  12.222 -0.2261  0.2752  0.0382
23703W        W43983   1.969   6.220   4.005  0.0297 -0.0053 -0.0656
23704W        W43984   5.666   6.100   3.453  0.3217  0.1973  0.3270
23705W        W43985  11.329   3.071  11.676 -0.1118  0.0477  0.3006
23706W        W43986   3.986   8.674   3.846  0.2585 -0.1361 -0.1577
23707W        W43987  18.136  15.615   3.910 -0.0000  0.2610  0.1254
23708W        W43988   9.331   0.652  15.235 -0.2811  0.2304  0.1018
23709W        W43989  11.437  17.577  12.509 -0.0062  0.0588  0.0054
23710W        W43990   4.158  10.639  12.137 -0.1462  0.2766  0.1936
23711W        W43991  12.556  16.284   0.252  0.5925  0.0664 -0.4152
23712W        W43992   2.538  18.071   0.461 -0.2363 -0.2924  0.5859
23713W        W43993  12.482  11.942   2.028 -0.1262  0.0616  0.1670
23714W        W43994   3.464  11.317   3.523 -0.3185 -0.2637  0.0313
23715W        W43995  17.541  12.629  15.021  0.1271  0.1715  0.2335
23716W        W43996  17.059  14.512   4.680 -0.0117 -0.3146 -0.0192
23717W        W43997  13.649   4.181  14.879  0.0922  0.2228  0.0599
23718W        W43998   4.787   7.529  13.151 -0.0140  0.0122 -0.0802
23719W        W43999  17.590   3.217  13.262  0.1928 -0.0024 -0.0138
23720W        W44000  14.324  14.095  14.003  0.2338 -0.0963  0.1856
23721W        W44001   8.307  18.392  13.847  0.1311 -0.0375  0.0720
23722W        W44002  13.905  16.725   4.271 -0.1889  0.1098 -0.0773
23723W        W44003   6.174  11.498  12.508  0.0153  0.1871 -0.0783
23724W        W44004  17.785  13.806  12.175  0.0469 -0.3421 -0.1947
23725W        W44005   9.992  12.342   2.378  0.1684 -0.0223 -0.3961
23726W        W44006   9.322  13.204  14.019 -0.2503  0.0243 -0.1561
23727W        W44007   4.274  15.709  15.171 -0.2964 -0.0394  0.0781
23728W        W44008   9.017   4.801   1.014 -0.0491  0.0308  0.1340
23729W        W44009   7.515  10.433   2.793 -0.0344  0.0108 -0.0411
23730W        W44010   1.395  10.978  14.678 -0.1285 -0.0519  0.1278
23731W        W44011  16.220   5.713   4.795  0.1436  0.2102  0.0112
23732W        W44012  15.098   8.899   0.694 -0.0803 -0.1792  0.1067
23733W        W44013  15.524  14.679   4.466 -0.0736 -0.0039 -0.3292
23734W        W44014  11.054  15.042   1.839  0.0555  0.3228 -0.0912
23735W        W44015  15.000   5.660   2.876 -0.2987  0.1839  0.1094
23736W        W44016   1.028  14.309   2.109 -0.4911  0.0159 -0.0059
23737W        W44017   4.042  16.305  13.389  0.2347 -0.0793  0.0918
23738W        W44018   0.507   7.058  12.990 -0.2046  0.1763  0.1503
23739W        W44019   1.676  10.728  15.086  0.0517 -0.2365 -0.2786
23740W        W44020   6.053  14.632  15.138  0.2372 -0.0628  0.1006
23741W        W44021   3.893   1.860   4.006 -0.1027  0.0508  0.1593
23742W        W44022   4.082  16.464  11.026  0.2584  0.0211 -0.2130
23743W        W44023  10.441   8.496   2.713 -0.1733 -0.0121  0.5935
23744W        W44024  17.295   9.586  11.861 -0.2161  0.1159 -0.2749
23745W        W44025   2.759   1.114  13.034 -0.0178  0.0291  0.1930
23746W        W44026   0.955   5.425   2.826 -0.0036 -0.1053 -0.1371
23747W        W44027  14.929  18.612  10.669 -0.1182 -0.0046  0.0790
23748W        W44028   4.155  11.965  11.352 -0.0821  0.2230 -0.3747
23749W        W44029   2.804   6.573   1.699 -0.3748  0.1673 -0.0749
23750W        W44030   3.959   4.020   1.384 -0.0121 -0.2273 -0.0093
23751W        W44031  11.247  18.335   1.056 -0.1037  0.0302 -0.1293
23752W        W44032  12.605   6.960   0.177 -0.3706  0.0477  0.0360
23753W        W44033  12.889  10.549   1.175  0.1647  0.2280 -0.0720
23754W        W44034   0.747   6.168   3.135 -0.0175  0.3495 -0.2196
23755W        W44035  16.044   4.518  12.705 -0.3309 -0.1612  0.2483
23756W        W44036   5.514   9.939   1.699  0.1398  0.2203  0.3312
23757W        W44037   2.446  15.295  13.493 -0.2537 -0.1970  0.0819
23758W        W44038  14.768   1.352   0.500  0.0741 -0.2451 -0.1723
23759W        W44039   8.417   1.066  12.923  0.0103 -0.2070  0.1177
23760W        W44040  13.304   1.130  12.272  0.1105 -0.0468 -0.0387
23761W        W44041  10.360   3.285  11.568 -0.2382  0.1091 -0.1167
23762W        W44042   1.207   1.311  11.060  0.1256 -0.0810 -0.5201
23763W        W44043   8.857   1.359   3.724 -0.1770 -0.1554  0.2472
23764W        W44044   8.287  14.662  13.359  0.1365 -0.2821 -0.1723
23765W        W44045  16.298   7.767  12.939  0.0321 -0.0196  0.1313
23766W        W44046  11.453  17.451   0.071  0.1735 -0.1316  0.1522
23767W        W44047   9.420   0.166  13.243 -0.1841 -0.1815  0.0024
23768W        W44048   6.027  16.564  14.937 -0.3653 -0.0844  0.3510
23769W        W44049  17.483   5.066  15.098  0.0170  0.1530 -0.1084
23770W        W44050   6.700  10.341   0.534 -0.2566  0.1222 -0.0337
23771W        W44051   2.110  13.007   2.238  0.3311  0.3611 -0.0191
23772W        W44052  14.550   8.718  11.719  0.0945 -0.1423  0.2007
23773W        W44053  12.340  10.973   4.250  0.1649  0.0721  0.2937
23774W        W44054   2.245  12.182  13.900 -0.0560 -0.0881  0.2673
23775W        W44055   7.904   8.445  14.126 -0.0139  0.0308  0.1685
23776W        W44056  17.318  18.670   3.277 -0.0231 -0.1395  0.0989
23777W        W44057   0.219   9.946  11.809  0.2220 -0.0565 -0.0341
23778W        W44058  16.144   9.362  12.747 -0.0148  0.0829  0.0674
23779W        W44059   3.651   7.304  14.710 -0.0970 -0.2932  0.0265
23780W        W44060   2.348  10.692   3.425  0.4355  0.1238  0.1370
23781W        W44061   6.119   1.443   2.220  0.2368  0.2593 -0.0108
23782W        W44062   4.534  13.700   1.556  0.1269 -0.0430 -0.1510
23783W        W44063   1.757   4.727   1.388  0.2169 -0.3008 -0.3075
23784W        W44064   3.574   4.145   0.857  0.0291  0.0141 -0.1040
23785W        W44065   8.033   1.769  13.152  0.0638  0.1785 -0.3075
23786W        W44066  11.764  14.370  10.671  0.0253 -0.3024  0.0068
23787W        W44067   8.952  17.229  12.062  0.1518 -0.1089 -0.0904
23788W        W44068  11.693   4.075   3.971  0.2748 -0.3201 -0.0285
23789W        W44069   8.613  11.247  12.674  0.0225  0.0618  0.1655
23790W        W44070   9.884   6.523  14.516 -0.0239 -0.0197  0.0626
23791W        W44071   0.288   0.718  11.589  0.1708  0.0742 -0.0038
23792W        W44072   4.374  10.441  11.737 -0.0300 -0.0987 -0.1421
23793W        W44073   6.639   6.274   1.048 -0.1924  0.3615  0.2026
23794W        W44074   2.297   0.412   4.318  0.1468  0.0093  0.0064
23795W        W44075   0.779  16.617  13.884 -0.0382  0.0262 -0.2817
23796W        W44076   8.413   3.617   2.384 -0.2044  0.4861 -0.0052
23797W        W44077  16.980  11.635  14.051 -0.0514 -0.1483  0.0836
23798W        W44078   2.796   1.770  11.490  0.0980  0.1399  0.0724
23799W        W44079  17.804   2.265  14.296 -0.0513 -0.0154  0.2562
23800W        W44080   9.649  18.697   2.547  0.0784 -0.1231 -0.0545
23801W        W44081   9.862   8.694   1.519  0.0611  0.0827  0.0997
23802W        W44082  16.110   6.684  11.531  0.4193  0.1538  0.1532
23803W        W44083   2.979  12.246   2.552 -0.2326  0.1250 -0.0531
23804W        W44084  13.572  15.703   0.821 -0.0107 -0.0361 -0.2556
23805W        W44085  12.007  10.706  14.251 -0.0307 -0.1928 -0.3843
23806W        W44086   2.293   4.709  14.113 -0.3516  0.0315 -0.1037
23807W        W44087   9.512  16.808   3.202 -0.1546 -0.1908 -0.0366
23808W        W44088  12.761  10.231   2.535  0.2866 -0.0642 -0.0464
23809W        W44089   4.069  13.937   1.594  0.0040  0.2169  0.0812
23810W        W44090   8.727  11.462  11.771 -0.0266  0.1990  0.0953
23811W        W44091   2.838   9.981  15.106  0.1124  0.0367  0.2132
23812W        W44092   2.009   4.652  12.206 -0.1345  0.1840 -0.0172
23813W        W44093   4.293  11.640   0.863  0.0694 -0.4369 -0.0128
23814W        W44094   1.650  11.219  15.080 -0.1199 -0.0574  0.0530
23815W        W44095  17.820  14.918   3.466 -0.0476 -0.2371  0.1233
23816W        W44096  11.902  17.098   2.612 -0.3841 -0.0038  0.0246
23817W        W44097  11.568   8.067   1.681 -0.2206  0.0025  0.0398
23818W        W44098  15.813  15.540  13.605  0.2200  0.4192 -0.3123
23819W        W44099   8.275   7.222  12.065 -0.6026 -0.0242  0.2821
23820W        W44100   2.962   3.447  13.515 -0.0680 -0.2086  0.2724
23821W        W44101   5.249   1.821  13.287 -0.0532 -0.2230  0.0203
23822W        W44102  11.219   5.980   0.498  0.1832  0.1402 -0.3053
23823W        W44103  11.008  14.800  15.318 -0.0153  0.0113  0.1929
23824W        W44104   0.816  11.084   2.629  0.2025  0.0007 -0.0641
23825W        W44105  18.713  18.390   1.177 -0.0469  0.2566 -0.0453
23826W        W44106   8.980  18.672  14.225 -0.3151  0.1203 -0.1628
23827W        W44107  17.018   2.134   2.662 -0.0502  0.2266  0.2824
23828W        W44108   1.764   7.745   3.820  0.0179  0.1613  0.3336
23829W        W44109  16.698  11.925   3.643  0.1073  0.0771 -0.1350
23830W        W44110   8.856  10.155   3.472 -0.0861  0.4498  0.1414
23831W        W44111  15.541   7.899  11.678  0.2076 -0.1329  0.1440
23832W        W44112   2.735  11.848   2.147  0.0946 -0.1901 -0.2615
23833W        W44113  14.961  14.052  12.127 -0.1276 -0.0920  0.0346
23834W        W44114   0.167   5.095   0.011  0.0678 -0.0157 -0.1781
23835W        W44115  11.206   2.295  12.086  0.0573  0.1710  0.1582
23836W        W44116   1.434   3.594   2.808 -0.0788  0.0412  0.1973
23837W        W44117   0.602  14.514  15.017  0.0873  0.0060  0.0885
23838W        W44118   8.518  10.506  13.747  0.1055  0.2943 -0.2676
23839W        W44119   9.678  17.512  14.364 -0.2499 -0.0888 -0.1661
23840W        W44120   7.451  12.104  12.832  0.0105 -0.1066  0.2546
23841W        W44121   5.883   9.625   1.570 -0.0750  0.0239 -0.0846
23842W        W44122   4.508   5.784   2.087 -0.2865  0.0269 -0.0875
23843W        W44123   0.398   7.995   1.309  0.1094 -0.0059 -0.1972
23844W        W44124   9.275  14.248   0.787  0.1179 -0.0306  0.0200
23845W        W44125   2.474   6.289  13.757 -0.0158  0.2520  0.0252
23846W        W44126   5.281  15.947  13.988 -0.2043 -0.0148  0.0562
23847W        W44127   6.871   3.720  13.637 -0.3442  0.0545 -0.0031
23848W        W44128  18.548  10.065  14.512  0.0645 -0.1077  0.0074
23849W        W44129  14.991   7.991  13.893 -0.0853 -0.3996 -0.3982
23850W        W44130  16.389  12.512   4.571  0.1671 -0.0135 -0.0140
23851W        W44131  18.410  16.833  10.928 -0.0895 -0.1398 -0.0978
23852W        W44132   9.863  16.626  11.848 -0.0158  0.3886  0.0064
23853W        W44133   9.419  14.363  12.673  0.1518 -0.0772 -0.1184
23854W        W44134  10.565  10.587  13.540  0.0361 -0.2410 -0.0754
23855W        W44135   2.214  12.860   2.864 -0.0804  0.0230  0.1099
23856W        W44136   4.972  13.454   1.605  0.3746  0.0402 -0.4130
23857W        W44137   1.246  12.226  13.744  0.2506  0.0582  0.0341
23858W        W44138   0.311  11.942  13.577  0.1155  0.1259 -0.0255
23859W        W44139   9.064   7.550   2.036  0.4180  0.0765 -0.1588
23860W        W44140   7.682  14.369   0.180 -0.0735  0.2812  0.2344
23861W        W44141   2.077  17.512   0.899 -0.0722 -0.0225 -0.0009
23862W        W44142  12.143   6.897  12.693 -0.1011 -0.0770  0.0925
23863W        W44143   8.452   6.685   2.454  0.0319  0.1297 -0.0707
23864W        W44144  13.017   4.754   0.006 -0.1088  0.1497  0.3557
23865W        W44145  12.238   0.758   0.162 -0.2398  0.0946  0.0343
23866W        W44146   1.839   5.157   0.771  0.0732 -0.0623 -0.0142
23867W        W44147  15.067  11.150  12.331  0.0836  0.0685  0.1514
23868W        W44148   4.685   4.677   1.421  0.0303 -0.0981  0.0570
23869W        W44149   5.270  13.506  14.792  0.2210 -0.1689  0.2612
23870W        W44150   8.320   3.997  11.524  0.0220  0.1650 -0.1951
23871W        W44151   3.943  10.190   4.041 -0.0469 -0.1116 -0.3511
23872W        W44152   6.242  18.012   0.306 -0.1693  0.0880 -0.0848
23873W        W44153   6.322  11.310   0.363 -0.1627 -0.1930  0.1407
23874W        W44154  14.002   2.375  12.154 -0.2282 -0.1902  0.1442
23875W        W44155   2.875  14.468   0.759  0.1572  0.0813  0.2759
23876W        W44156  15.964   2.660  15.244 -0.3220  0.1456  0.0917
23877W        W44157  16.966   3.083   0.878 -0.0656 -0.0762  0.2973
23878W        W44158   7.061  12.272   1.838  0.0767  0.1993  0.2524
23879W        W44159   9.250  13.031  13.155  0.3556 -0.0267  0.2184
23880W        W44160   1.749   2.272   0.938  0.0370  0.2504 -0.0234
23881W        W44161   2.381   9.385  13.164 -0.0897  0.1665 -0.1045
23882W        W44162   3.344   7.875  14.187  0.1378  0.1810 -0.2378
23883W        W44163  16.337   7.997   2.072  0.2070 -0.1524  0.2748
23884W        W44164   6.990  11.227   3.681  0.2007  0.0093 -0.0397
23885W        W44165  10.420  15.237   2.911  0.3553  0.1252 -0.1904
23886W        W44166  14.882   4.371   3.724 -0.1423 -0.4309 -0.2931
23887W        W44167   6.021   6.314   2.115  0.1239  0.2053 -0.1510
23888W        W44168   7.729  14.758  11.047 -0.3081  0.0254 -0.1428
23889W        W44169   4.291   7.787   4.176 -0.1699 -0.3287  0.0770
23890W        W44170  12.057   2.763  13.908 -0.0969  0.2100 -0.0079
23891W        W44171   5.003  16.404   1.984  0.1347 -0.1031 -0.0528
23892W        W44172  14.573  10.051   1.178 -0.1337  0.2136 -0.1685
23893W        W44173  16.974   9.140   1.592  0.3199 -0.1686 -0.0322
23894W        W44174  14.961  10.284   3.973  0.0886 -0.0121  0.2137
23895W        W44175   8.983   5.200  11.608  0.0726  0.3191  0.0888
23896W        W44176  10.171   8.208  15.281  0.0352  0.1185  0.2697
23897W        W44177  17.236  13.853  14.086 -0.2215 -0.1849 -0.1964
23898W        W44178  18.701   9.577   2.890 -0.2749  0.2506 -0.1054
23899W        W44179  14.176   3.385   1.055  0.0753 -0.3016  0.2682
23900W        W44180  16.582  16.870  14.850 -0.1253 -0.3074 -0.1686
23901W        W44181   3.775   6.194  14.872 -0.3624 -0.3060 -0.1121
23902W        W44182  14.178   5.138  15.322  0.1331 -0.0246  0.1989
23903W        W44183   3.189  17.163   1.225  0.1706  0.1095  0.1406
23904W        W44184  15.902   8.729   2.963  0.1140  0.1346 -0.0701
23905W        W44185   1.079  13.845   3.902 -0.1710 -0.1010  0.0844
23906W        W44186   8.831   3.269   1.215 -0.1349 -0.0063 -0.0027
23907W        W44187   5.057  12.850  12.259  0.0747  0.2216  0.1487
23908W        W44188  15.274  13.534  12.847 -0.0170 -0.1739 -0.1424
23909W        W44189   7.066  13.326  11.703  0.0633 -0.1480 -0.1828
23910W        W44190  11.412  13.941   2.349  0.0228 -0.0975  0.0997
23911W        W44191  12.396  11.283   5.296  0.2591  0.0531  0.0504
23912W        W44192   6.411   7.815   0.243  0.0802  0.1507  0.1318
23913W        W44193  12.038   9.539  12.039 -0.2833 -0.0729 -0.1257
23914W        W44194   7.870   0.246  11.834 -0.0491  0.0633  0.1761
23915W        W44195  10.425  15.109  12.466  0.2824  0.1251 -0.3458
23916W        W44196   1.071  18.661  13.194 -0.2983  0.2759 -0.1066
23917W        W44197  15.695  12.152   1.550 -0.1431 -0.1094  0.0509
23918W        W44198   4.378  10.535  10.862 -0.2687  0.1764  0.2856
23919W        W44199   7.296  12.635   1.479  0.0639  0.3813 -0.0844
23920W        W44200  17.397  18.196  13.465  0.3731  0.2800  0.1664
23921W        W44201   7.773   4.190   3.662  0.0762  0.1274  0.2174
23922W        W44202   8.710   4.511  12.713  0.1446 -0.0858 -0.1843
23923W        W44203   6.535   8.991   3.156 -0.3625 -0.1099 -0.0675
23924W        W44204   4.226   5.762   0.260  0.1649  0.2365 -0.1245
23925W        W44205   6.686   3.027   0.252  0.0036  0.3773 -0.0263
23926W        W44206  13.324   0.614  11.221 -0.0003  0.0436  0.0018
23927W        W44207   4.326   2.618   0.182  0.1843 -0.2593 -0.2906
23928W        W44208  12.973  10.710  13.907 -0.1861 -0.2810  0.3894
23929W        W44209  16.628   2.771   2.265  0.1719  0.2158  0.2863
23930W        W44210   6.444  11.339   2.684 -0.0674 -0.0394 -0.1193
23931W        W44211  17.536  15.817  11.901  0.1240 -0.1444 -0.0595
23932W        W44212  10.771   8.839  12.763 -0.1614  0.1969 -0.1386
23933W        W44213   3.422  14.734   2.895 -0.2231  0.1963  0.0545
23934W        W44214   9.119   5.121  12.123  0.2524  0.2373  0.1378
23935W        W44215   7.424   0.281   1.640 -0.3609 -0.0214  0.3589
23936W        W44216  14.078  10.016  11.728  0.2432 -0.0305 -0.3871
23937W        W44217   7.906  13.191  13.515  0.1811 -0.2804  0.1684
23938W        W44218   9.360   9.559   1.630  0.0478  0.1123  0.0100
23939W        W44219  12.074   9.861  12.427  0.0755  0.1739 -0.0299
23940W        W44220  10.888   4.616  14.358 -0.1637  0.1273 -0.1114
23941W        W44221   3.848   4.731  12.704 -0.1182 -0.0691  0.1874
23942W        W44222  13.242   0.565  13.859  0.0538  0.5121  0.0208
23943W        W44223   8.224   9.793  11.701 -0.0753  0.2480 -0.1910
23944W        W44224  16.015  15.743   0.030  0.0356  0.1054 -0.0998
23945W        W44225  15.209   5.735   0.196 -0.0480  0.2012  0.0938
23946W        W44226   3.953  14.073   3.421 -0.1829 -0.1191 -0.3726
23947W        W44227   9.459  12.866   2.977  0.2387  0.0384 -0.3189
23948W        W44228  15.499   4.413  12.463 -0.0969  0.0434  0.0051
23949W        W44229   2.483   0.575   3.843 -0.0242  0.2555  0.1394
23950W        W44230   7.628  10.723   5.494  0.0616  0.1830 -0.1872
23951W        W44231  18.718   5.709  13.567  0.0620 -0.1445  0.1016
23952W        W44232  12.763  11.577  14.027 -0.1216 -0.1181  0.0030
23953W        W44233   6.317   2.533   1.209 -0.2426  0.1014  0.0357
23954W        W44234  16.528  16.168  14.178  0.0572 -0.2437 -0.0777
23955W        W44235   5.804   4.835   3.004  0.0979  0.1479  0.2657
23956W        W44236  15.801   1.794   2.020 -0.0005 -0.0405  0.1207
23957W        W44237  15.919   0.015   1.655  0.2203 -0.0805  0.0943
23958W        W44238   7.656   3.352  12.074 -0.1087 -0.1484  0.1390
23959W        W44239   5.205   1.519  12.075 -0.3434  0.0263 -0.1968
23960W        W44240   9.914   6.308  15.021 -0.1634  0.1616 -0.2323
23961W        W44241   3.701   2.927  13.934  0.2512  0.1850  0.0521
23962W        W44242  15.042   2.682  12.434 -0.2635 -0.1540 -0.0733
23963W        W44243  16.711  16.411  12.805 -0.0594  0.1047 -0.1206
23964W        W44244   4.925   9.165  14.480 -0.0564  0.1588  0.1601
23965W        W44245   6.350   2.173  12.325 -0.0106 -0.5226 -0.0668
23966W        W44246  16.206  17.758  12.669 -0.3772  0.1613  0.1149
23967W        W44247   3.248   7.896  13.625 -0.3767  0.2312 -0.0941
23968W        W44248   2.085  11.446  12.261 -0.0866 -0.1257 -0.0728
23969W        W44249   8.379  11.397   4.695  0.0831 -0.1019 -0.3599
23970W        W44250  12.060  16.628   2.916  0.0249  0.1646 -0.1501
23971W        W44251   1.988   1.870   0.166  0.2142 -0.1837  0.3451
23972W        W44252   9.032   6.296   1.188  0.1956  0.1578  0.1652
23973W        W44253   3.369   8.233  12.718 -0.1580  0.0214  0.0929
23974W        W44254  17.910   9.248   4.150  0.0277 -0.2022 -0.3364
23975W        W44255   5.480  17.042  10.758  0.0539  0.0469  0.1784
23976W        W44256  14.930   3.136  15.308  0.3600 -0.2485 -0.2338
23977W        W44257  12.383  13.677   3.432  0.2811  0.1745  0.1495
23978W        W44258   6.382  10.080   3.972  0.3445 -0.1569 -0.0543
23979W        W44259   6.075   3.011  11.244 -0.2565 -0.1117 -0.1768
23980W        W44260   3.387  15.377   0.870  0.2026  0.0008  0.0145
23981W        W44261   0.937  17.960  12.962  0.1427  0.1174 -0.1654
23982W        W44262   8.115   9.768  13.895  0.1405 -0.0525  0.0192
23983W        W44263  17.462  13.962  11.154  0.2175 -0.1739  0.2060
23984W        W44264  12.679  14.464  12.906 -0.0606 -0.1578  0.1582
23985W        W44265   2.602   9.087  12.723 -0.2351  0.2141 -0.2737
23986W        W44266   4.734   2.341   3.294  0.0875 -0.0330  0.4079
23987W        W44267  18.090   4.767  13.717  0.0653  0.2014 -0.1205
23988W        W44268   1.978  12.729  13.524  0.2478  0.1092 -0.0954
23989W        W44269  15.510   4.582  14.310 -0.0800 -0.0086  0.0775
23990W        W44270   0.292  15.341   3.146  0.1486 -0.2194  0.1494
23991W        W44271   1.600  17.792  11.275 -0.0551  0.0963  0.0187
23992W        W44272   1.234   1.380  15.040  0.2829 -0.2233 -0.2406
23993W        W44273   7.171   7.835   3.642  0.0460 -0.1282  0.2142
23994W        W44274  13.292  10.030  12.153 -0.1719 -0.0078  0.2074
23995W        W44275   9.337  15.104   3.692  0.0819 -0.1786  0.3340
23996W        W44276  11.887  14.534  14.954 -0.3139  0.0397  0.0901
23997W        W44277   5.225   6.589   0.599 -0.0380  0.1548  0.2838
23998W        W44278  13.472   1.406   2.237  0.1337  0.0485 -0.2878
23999W        W44279   7.252  13.117  13.816 -0.2965  0.2484  0.1748
24000W        W44280  13.792   7.873   1.011 -0.1784  0.0646 -0.1910
24001W        W44281   3.844  12.978  12.885 -0.0091  0.0169  0.6395
24002W        W44282  11.907   4.952  13.733 -0.1324  0.2866 -0.1159
24003W        W44283  17.532  15.235  15.091  0.3700 -0.1547  0.2022
24004W        W44284   5.465   3.543   1.744  0.1057  0.1260  0.2379
24005W        W44285   2.342  11.985  14.929  0.0269 -0.2109  0.3771
24006W        W44286  11.263  17.105  14.506  0.0869  0.0026  0.3491
24007W        W44287   0.550   1.094  12.573 -0.0666 -0.3623 -0.0031
24008W        W44288   8.813  15.214   1.494  0.5332 -0.2822 -0.1089
24009W        W44289  14.692  11.574   2.213  0.1565  0.1036 -0.1339
24010W        W44290  17.207  12.716   2.497 -0.3482  0.2172 -0.0353
24011W        W44291   2.378   5.749   1.293  0.0404 -0.2634 -0.2769
24012W        W44292  14.112  17.798   2.820  0.1152  0.0588  0.3098
24013W        W44293   9.521   2.039   1.298  0.1529 -0.0729 -0.3228
24014W        W44294  16.865   1.188  11.468  0.0871  0.2512 -0.0839
24015W        W44295   4.287  16.301   3.316  0.0171 -0.2067 -0.0571
24016W        W44296  10.417   2.385  14.181  0.0247 -0.0869  0.0489
24017W        W44297   3.744  12.065  12.684 -0.1164  0.0528 -0.1967
24018W        W44298  12.585  12.019  13.831 -0.1105  0.1390  0.0838
24019W        W44299  17.542  12.367  12.037  0.0099  0.1726 -0.0111
24020W        W44300   3.945   8.626   1.254  0.2508  0.3188  0.1592
24021W        W44301  16.176  12.605   1.958 -0.0047 -0.2396  0.2064
24022W        W44302   1.113   7.706  15.106  0.1860 -0.0569 -0.2242
24023W        W44303   9.605   2.046   0.538 -0.0303 -0.2127 -0.0756
24024W        W44304  11.899  18.697   2.739 -0.1132  0.1522  0.0617
24025W        W44305   2.154  14.155  13.761  0.2343  0.2150 -0.0030
24026W        W44306  12.091   5.608  15.290 -0.4471 -0.1209 -0.0730
24027W        W44307   4.092  15.808   2.813  0.1802  0.1485 -0.2541
24028W        W44308   7.318  14.898  13.477  0.0247  0.1773 -0.0531
24029W        W44309   9.211   6.886  13.334  0.3109 -0.1220  0.2360
24030W        W44310  16.705  13.666   4.614 -0.0021  0.3013  0.2051
24031W        W44311   6.209   6.948  13.206 -0.0899  0.0160  0.0716
24032W        W44312  16.680   2.473  14.717  0.0193  0.0617 -0.2167
24033W        W44313   1.082   3.032  12.940  0.0740  0.1443  0.0861
24034W        W44314   0.792  15.113   0.276  0.0738 -0.2266  0.1301
24035W        W44315   0.907  14.843  14.892 -0.3631 -0.3112  0.0631
24036W        W44316  13.557  14.068  12.386  0.2942  0.0457  0.1386
24037W        W44317   8.862   0.363   1.210  0.4799 -0.2288 -0.0780
24038W        W44318   2.109   2.998   4.626 -0.1921  0.3042 -0.3076
24039W        W44319  15.619  18.522   3.255  0.2429  0.4368 -0.1389
24040W        W44320  17.848   2.045   2.305  0.1455 -0.4066  0.1160
24041W        W44321  10.389   3.666   4.054 -0.0735  0.0068 -0.0230
24042W        W44322   5.808   0.440  13.771 -0.0099 -0.3048  0.3664
24043W        W44323   7.703  13.416  12.424  0.1364  0.0586  0.1311
24044W        W44324  11.430  16.110  15.009 -0.1843  0.0776 -0.1206
24045W        W44325  14.115   6.761   0.433  0.1482 -0.2855  0.1281
24046W        W44326  10.367   7.240  14.150  0.0412 -0.1133  0.2208
24047W        W44327   3.890  16.915  13.108  0.2258 -0.0647  0.2096
24048W        W44328   5.815  15.353   3.570 -0.2254 -0.0556  0.1832
24049W        W44329   8.925  15.991  15.046 -0.3377 -0.0181  0.0450
24050W        W44330  17.327   1.995  12.964  0.2750  0.2805 -0.1851
24051W        W44331  10.290   3.186   0.574 -0.0667  0.0746  0.0499
24052W        W44332  13.179   7.415   2.109 -0.2984 -0.0733  0.0701
24053W        W44333  14.044  14.014   3.769  0.0826 -0.0376 -0.1184
24054W        W44334   8.511   9.124   1.914 -0.1271 -0.1435  0.1679
24055W        W44335   3.424   8.505   2.249 -0.1179 -0.1181 -0.3764
24056W        W44336   1.984   2.224  11.298  0.0666 -0.0253 -0.1126
24057W        W44337  17.939  12.175  15.241 -0.0413 -0.2826  0.0438
24058W        W44338   5.389   5.191   3.022  0.2081  0.0446 -0.0008
24059W        W44339   2.417  12.863   0.008 -0.0560  0.0825 -0.1372
24060W        W44340   6.261   4.573   3.936  0.0470 -0.0058  0.0906
24061W        W44341  11.385  10.620   5.012  0.3122  0.1010  0.0424
24062W        W44342   1.700  12.915   1.769 -0.3548 -0.0606  0.0439
24063W        W44343   5.032   1.958  15.171 -0.2498 -0.2879  0.0050
24064W        W44344  12.286  14.353  11.875 -0.3113  0.1232 -0.1193
24065W        W44345   6.133   7.489   4.826  0.0923 -0.2061 -0.1882
24066W        W44346   9.887  18.659  13.895  0.1235 -0.0252 -0.0277
24067W        W44347   8.685  14.423  10.934  0.1871 -0.1250 -0.3247
24068W        W44348   8.369   2.396   1.962  0.1702  0.2117 -0.1053
24069W        W44349   1.088   3.691   3.921  0.1494  0.4090 -0.4670
24070W        W44350  16.395   2.100  14.513  0.3065 -0.0346 -0.1860
24071W        W44351   2.983   6.983  14.303 -0.2488 -0.2794 -0.0926
24072W        W44352   0.551  16.261   2.757  0.0568 -0.0336  0.0841
24073W        W44353  16.694  15.644  11.229 -0.2182  0.0864  0.0096
24074W        W44354  13.664   0.931  11.465  0.0387  0.4277  0.1258
24075W        W44355   2.569   9.000  13.471  0.3220  0.0483 -0.1336
24076W        W44356   2.921  15.389  10.582  0.1845  0.1768  0.0853
24077W        W44357  14.712   5.329   0.777  0.0862  0.1072 -0.0192
24078W        W44358  12.994  11.688  11.787  0.1824  0.0153  0.1444
24079W        W44359  10.630   1.546  11.367  0.2058  0.2481  0.0937
24080W        W44360  15.206  13.975  14.323  0.2816 -0.0538  0.0801
24081W        W44361   0.214   6.313  14.281  0.1473  0.2183 -0.3707
24082W        W44362  16.907   0.627  12.315  0.0969 -0.0754 -0.0469
24083W        W44363   9.723   3.205  10.511  0.0214 -0.2765 -0.1434
24084W        W44364  16.384   4.962   1.437  0.1162  0.0751 -0.0482
24085W        W44365   7.863   5.513   1.069 -0.1856  0.1683  0.0673
24086W        W44366   0.443  13.850   2.213  0.0749 -0.0541  0.4545
24087W        W44367   9.104  18.392   0.994  0.0332  0.1061 -0.2273
24088W        W44368   5.348   0.501  15.198  0.0998 -0.1760  0.0596
24089W        W44369  12.289  16.816  12.478  0.1480 -0.0379 -0.1596
24090W        W44370  17.000  13.119   1.587  0.2359 -0.1208 -0.0725
24091W        W44371  10.984  18.645   2.865 -0.4881 -0.0774  0.0217
24092W        W44372   1.395  14.307  13.130  0.3653  0.3022 -0.0592
24093W        W44373  16.422   0.912  11.399 -0.0301 -0.0550  0.2132
24094W        W44374   2.612   5.583   3.228 -0.3570  0.0648 -0.3799
24095W        W44375   9.438   3.570   3.934  0.1778  0.1091  0.1879
24096W        W44376   8.436   5.923  14.161 -0.2481  0.0775  0.2909
24097W        W44377   8.872   2.236   2.002 -0.3603  0.0604 -0.2834
24098W        W44378   8.309   2.166   1.108  0.0461 -0.1843  0.1933
24099W        W44379  18.044   6.180   4.641  0.0595 -0.1570  0.0756
24100W        W44380  10.793  15.012   2.703  0.1135 -0.1556  0.0495
24101W        W44381  17.868   5.836  13.546 -0.1096 -0.0822  0.3220
24102W        W44382  12.949  17.739   3.092  0.0905 -0.0693 -0.0945
24103W        W44383   7.322  16.174   0.775  0.1921  0.0086  0.2440
24104W        W44384   3.053   5.032   1.351 -0.0126  0.0832 -0.3793
24105W        W44385  18.700   7.556   0.468 -0.2272  0.1197  0.2420
24106W        W44386   1.049  10.161   4.075 -0.2667 -0.2301  0.2720
24107W        W44387   5.652   9.926  14.050  0.1388 -0.5016  0.1634
24108W        W44388   4.031   5.352   2.078 -0.0981  0.1452  0.0700
24109W        W44389  10.577  16.436   0.505  0.2508  0.2700 -0.1689
24110W        W44390  17.344   6.917  13.533 -0.1868 -0.0640 -0.0091
24111W        W44391   9.983   9.384   0.866  0.1821  0.0514 -0.1949
24112W        W44392   8.694  10.902   0.411  0.0032 -0.1561 -0.0917
24113W        W44393  17.267  12.758   3.720 -0.0208 -0.0742 -0.2309
24114W        W44394   8.894  12.161  12.270  0.1692 -0.2917 -0.3332
24115W        W44395  15.560  11.571   0.100 -0.0319  0.2853  0.2418
24116W        W44396   3.905   0.065   2.044 -0.2458 -0.0834 -0.1099
24117W        W44397   1.733  17.045   0.784  0.1983  0.0619  0.2184
24118W        W44398   0.667   7.529  15.066 -0.0390  0.0366 -0.0982
24119W        W44399   7.625  16.857  12.534  0.1344 -0.1607  0.0043
24120W        W44400   8.571   7.462   1.778  0.1733  0.0657  0.0518
24121W        W44401   2.864  17.051  11.438 -0.0268 -0.1742 -0.0253
24122W        W44402   6.983  17.939  13.794  0.1214 -0.2765  0.1280
24123W        W44403   6.079   7.233   4.390  0.0287  0.0257 -0.0361
24124W        W44404   0.389  10.145   3.426  0.0154  0.1718 -0.0553
24125W        W44405  13.645   1.403  11.312  0.2983  0.0716  0.0652
24126W        W44406   3.229   3.080  12.082  0.1260 -0.0327 -0.0842
24127W        W44407  17.879   7.677  11.165 -0.0500 -0.0147 -0.0159
24128W        W44408   2.740  15.778  13.127  0.1632  0.0387 -0.4316
24129W        W44409   4.842   7.134   3.398 -0.1022  0.0508  0.1680
24130W        W44410   9.634   3.767  11.783 -0.0636  0.0339  0.0617
24131W        W44411  14.209   1.496  14.499 -0.1938  0.3228  0.2026
24132W        W44412   5.657   6.128   0.294 -0.0728 -0.1673  0.1540
24133W        W44413   3.002  11.413   3.325  0.0863 -0.1205 -0.0682
24134W        W44414   0.859  16.940   3.928 -0.2429 -0.0418 -0.2861
24135W        W44415  14.533   7.298   4.896  0.1376 -0.1519 -0.3533
24136W        W44416  15.659  15.760   4.158 -0.4795  0.0160 -0.1141
24137W        W44417   6.508   6.726   0.748 -0.2253 -0.0442  0.2319
24138W        W44418   9.969   3.284  10.962 -0.0759 -0.0397 -0.1764
24139W        W44419   9.039   0.323   0.094 -0.1191 -0.1400 -0.3566
24140W        W44420   9.378  18.505  12.446 -0.2070  0.2338  0.4709
24141W        W44421   7.673  18.588  14.737 -0.2847 -0.1144  0.2081
24142W        W44422   3.863  11.050   4.521 -0.0178 -0.1325  0.0932
24143W        W44423  18.648   8.853  14.521  0.1055  0.0015 -0.0256
24144W        W44424  12.395  14.699  13.627  0.0440 -0.1702 -0.0587
24145W        W44425  10.787  12.759   0.723 -0.1725 -0.0340 -0.0382
24146W        W44426   0.278   6.755  12.186  0.1144 -0.3318  0.2916
24147W        W44427   1.834   6.755   0.341 -0.1456  0.0834  0.0615
24148W        W44428   1.510   8.861  12.934 -0.0763  0.0340 -0.2857
24149W        W44429   2.526   9.891   3.045 -0.2169  0.1512  0.3541
24150W        W44430  11.214   1.746  12.057  0.0566 -0.5013 -0.2326
24151W        W44431   2.652   3.467  11.414 -0.1869  0.1109  0.2441
24152W        W44432   9.357  13.841   3.927 -0.2152  0.0574  0.0479
24153W        W44433  14.301   5.796   0.234  0.3704 -0.0333  0.3124
24154W        W44434   6.773   0.923   2.097 -0.1505 -0.1963 -0.0215
24155W        W44435  16.936   5.376   4.186 -0.0662  0.0633 -0.2381
24156W        W44436   0.264   1.801   0.065  0.1612  0.0963 -0.1866
24157W        W44437   2.104  12.531   1.975 -0.1643 -0.1186  0.0794
24158W        W44438   3.713  11.813  14.435 -0.1465  0.0299 -0.1579
24159W        W44439  15.410   1.650  10.533 -0.1796  0.3671 -0.2980
24160W        W44440   0.056   8.644   3.103 -0.0124 -0.2381 -0.0176
24161W        W44441   6.991  10.056   4.046 -0.2837  0.1156 -0.0788
24162W        W44442   7.858   2.847   3.726  0.1278  0.0442 -0.0906
24163W        W44443  17.343  17.580   2.343 -0.1247 -0.0870 -0.2444
24164W        W44444  18.322  11.522   3.618 -0.1330 -0.0678 -0.0467
24165W        W44445  17.540  13.241   3.292  0.1224 -0.4141 -0.1966
24166W        W44446   2.634   1.513  12.367  0.3526 -0.0789 -0.2152
24167W        W44447   5.026   3.851   1.258 -0.3196  0.2773  0.1592
24168W        W44448   9.708   1.400   3.431 -0.1520  0.4441 -0.2683
24169W        W44449   0.395  13.857  12.289 -0.3416 -0.1358  0.2617
24170W        W44450  14.765   8.875  12.172 -0.1310  0.0177  0.0700
24171W        W44451  15.781  11.431   0.903  0.0563  0.1016 -0.0321
24172W        W44452  11.902  16.428  11.680 -0.1390 -0.2646  0.3201
24173W        W44453   7.221  10.718   3.761  0.2144 -0.1972 -0.1591
24174W        W44454   7.331   9.262   3.501 -0.0250 -0.0954  0.0320
24175W        W44455  11.324   7.093  13.749  0.0523 -0.0902  0.0952
24176W        W44456   1.620   5.830  11.062  0.1801 -0.0891  0.1139
24177W        W44457   4.899   1.672   3.842 -0.1669 -0.1215  0.2021
24178W        W44458   6.445  11.212   0.860 -0.1522 -0.0380  0.4198
24179W        W44459  13.609  10.200   4.542  0.2681 -0.2485 -0.0293
24180W        W44460  18.096   8.106  11.366 -0.2177  0.0652 -0.1240
24181W        W44461  14.590   4.972   1.454  0.0489 -0.3181 -0.1455
24182W        W44462   1.301  13.960  11.503 -0.0689 -0.0349 -0.0664
24183W        W44463   1.188   4.452  12.230  0.1050  0.0712 -0.0620
24184W        W44464  10.384  13.278   3.648  0.0465  0.0989 -0.0796
24185W        W44465   3.784   1.927   4.477  0.1471  0.0900 -0.1599
24186W        W44466   0.118  17.827  12.931  0.0101  0.0240 -0.2332
24187W        W44467   7.117   1.462  13.252 -0.2654 -0.0880  0.1113
24188W        W44468  15.768  16.123   3.856  0.3003 -0.0682  0.0221
24189W        W44469  17.423  14.965   1.616 -0.1276  0.1282  0.0981
24190W        W44470   4.017   2.452   1.791  0.1204  0.3073 -0.0151
24191W        W44471   9.113  15.631  14.700  0.2777 -0.1148  0.0757
24192W        W44472  14.931  13.245  12.634  0.2557  0.1688 -0.2030
24193W        W44473   2.972  13.557   0.594 -0.0160  0.1935 -0.0793
24194W        W44474   3.606  13.290   1.064  0.3079 -0.0363 -0.0419
24195W        W44475   3.681   5.133  15.311 -0.0041  0.0937  0.2994
24196W        W44476  12.360   1.002  15.142 -0.1265  0.4281  0.0949
24197W        W44477  10.508   9.627   2.176 -0.0341  0.4040 -0.1390
24198W        W44478   8.973  15.455  15.159 -0.0177  0.2868  0.3019
24199W        W44479  12.317   5.747  13.814  0.0273  0.0346 -0.0009
24200W        W44480  10.090  15.492   3.271  0.0567 -0.2404 -0.2274
24201W        W44481  10.003  15.640   0.387 -0.1233  0.0001 -0.2942
24202W        W44482   9.917   2.059  14.204  0.0022  0.0059 -0.2243
24203W        W44483   8.153  16.577   3.617 -0.0224 -0.1364 -0.0961
24204W        W44484   9.346   0.402   1.394  0.1505 -0.1746 -0.2842
24205W        W44485  13.600   2.726   2.638  0.2830 -0.0509 -0.1280
24206W        W44486   1.295   1.896  14.312  0.1282  0.1337 -0.4023
24207W        W44487   6.006  11.376   2.383 -0.0283 -0.0677 -0.2723
24208W        W44488   8.371   8.385  14.888  0.0822 -0.0777  0.0961
24209W        W44489  18.007  17.514  12.690  0.1218  0.3370  0.2617
24210W        W44490  13.746   2.796  12.322  0.0823  0.1255  0.1393
24211W        W44491  11.104   1.427   3.989  0.1028  0.2236 -0.0247
24212W        W44492   8.784  15.201  11.503 -0.2735 -0.0544 -0.1772
24213W        W44493   0.529  17.904   2.388 -0.1423  0.0835  0.0579
24214W        W44494   3.192   1.683   2.871  0.1251  0.1581  0.1485
24215W        W44495  14.907  13.035  14.777 -0.2392 -0.1810  0.0509
24216W        W44496  12.301  18.042  11.645 -0.0114 -0.1275  0.0381
24217W        W44497   1.522   3.932   3.598 -0.0573  0.2314  0.0153
24218W        W44498   3.450   9.226  13.078 -0.0724  0.2815 -0.0646
24219W        W44499  18.102   6.350  15.206  0.0133  0.3663  0.1273
24220W        W44500   1.867  10.896  13.191  0.1146 -0.3526 -0.0586
24221W        W44501  15.901   9.385  13.841  0.3348 -0.2747 -0.0332
24222W        W44502  13.406   9.767   2.638  0.0356  0.2327  0.1930
24223W        W44503   9.718   7.444  10.573 -0.0559  0.1418 -0.4150
24224W        W44504  13.525   5.701  14.333  0.3243  0.1705  0.0334
24225W        W44505  15.607   6.616   0.510  0.2445 -0.0872 -0.0260
24226W        W44506   3.796  13.759  12.083  0.1427  0.1891 -0.0257
24227W        W44507  12.261  15.614   2.918 -0.1998  0.2673  0.0548
24228W        W44508  10.991   9.441  15.043  0.3141  0.0016 -0.2244
24229W        W44509   7.432  16.382  14.740 -0.2111  0.0432 -0.1505
24230W        W44510  18.608   0.438   2.562  0.0071  0.1302  0.1243
24231W        W44511  13.525  11.092  15.073  0.0793  0.1070 -0.0528
24232W        W44512  11.096  15.878   5.194 -0.1118 -0.2083 -0.2138
24233W        W44513  12.799  18.040   2.057 -0.2075 -0.2931 -0.0886
24234W        W44514   5.665  16.124  11.278 -0.3267 -0.0021 -0.0989
24235W        W44515   4.977  17.826   2.049 -0.1411 -0.0627  0.0707
24236W        W44516  11.002   6.529   1.669 -0.0751 -0.2761 -0.4444
24237W        W44517   1.748  12.983   0.515 -0.0507 -0.0944 -0.0641
24238W        W44518  12.485  15.662  14.469 -0.0953 -0.3568  0.2930
24239W        W44519  12.914  10.079   3.630 -0.0198  0.0535 -0.0850
24240W        W44520  16.468   1.039   0.432  0.1433  0.5701  0.0461
24241W        W44521  13.019  15.639   2.200  0.0323  0.0162 -0.1115
24242W        W44522  17.179   6.833   5.545 -0.1543  0.0399  0.2904
24243W        W44523   4.184   2.095  14.992  0.0991  0.0861 -0.1379
24244W        W44524  17.436  14.442   4.293 -0.1414 -0.2226 -0.0950
24245W        W44525  15.052   1.942  12.171 -0.0040 -0.1055  0.0921
24246W        W44526  18.026   8.693  14.724  0.0935  0.0815  0.0661
24247W        W44527  14.645   8.744   1.367 -0.1714 -0.2697  0.2669
24248W        W44528   4.198  16.261   2.517  0.0548 -0.2926  0.0390
24249W        W44529   3.849   7.756   2.700 -0.0183 -0.2136  0.2746
24250W        W44530   8.703  11.849   3.160  0.2778  0.1432 -0.1911
24251W        W44531   3.715   9.679   4.708 -0.0716  0.2473  0.0699
24252W        W44532   3.658   7.331   1.819 -0.0338  0.2853 -0.2353
24253W        W44533   8.284   1.160   3.909 -0.1265  0.1014  0.2463
24254W        W44534   4.666   7.229  13.593  0.0792 -0.3171  0.1876
24255W        W44535   3.070   8.222   2.683  0.3871 -0.0030 -0.0317
24256W        W44536   4.970  16.362  11.578 -0.1866  0.0577 -0.1894
24257W        W44537   1.457   7.009  14.734  0.3115 -0.3117  0.0332
24258W        W44538   0.887  14.450  13.127  0.1307 -0.2353  0.2656
24259W        W44539  18.538   2.476   0.666 -0.2727 -0.1165 -0.2511
24260W        W44540  16.526  10.100  13.433  0.0441 -0.0775 -0.0565
24261W        W44541  18.506  10.793   1.414  0.0056  0.1867 -0.1267
24262W        W44542   7.318  14.869   3.938 -0.1905 -0.2101  0.2957
24263W        W44543  11.129   1.237   0.402 -0.2369 -0.0715  0.1465
24264W        W44544  14.921  15.136   2.093  0.1005 -0.2348  0.0569
24265W        W44545   4.511  16.260   1.990  0.0210  0.0897  0.0327
24266W        W44546  15.933   4.973  10.485  0.1305  0.3817 -0.1696
24267W        W44547  10.562  14.855  13.860 -0.0906  0.0137 -0.0960
24268W        W44548   5.450  14.907   1.044  0.0107 -0.1922  0.0543
24269W        W44549   4.980   2.832  10.649 -0.3246 -0.0941  0.3237
24270W        W44550  16.930   4.814   1.649  0.2812 -0.0099  0.4707
24271W        W44551   5.576  17.585  12.620  0.0371  0.3749  0.2188
24272W        W44552   7.867   2.435   4.062  0.0046  0.4766 -0.0474
24273W        W44553   3.040  14.159   3.436 -0.2278  0.1608  0.0189
24274W        W44554   4.011  16.525   4.854  0.0204  0.0173 -0.0753
24275W        W44555   2.868   1.791   3.349  0.0419 -0.0938 -0.0959
24276W        W44556   2.285   5.255   3.057  0.1645  0.0976 -0.0737
24277W        W44557   2.827   0.097   0.717  0.1002 -0.0577 -0.0274
24278W        W44558   9.887   5.234   2.415 -0.0431  0.1993 -0.1841
24279W        W44559  16.900   2.664   1.099  0.1088  0.2932  0.0579
24280W        W44560   6.010  10.261   3.126 -0.0280  0.0684 -0.1525
24281W        W44561  16.191   2.703   2.484  0.0876  0.1828  0.0053
24282W        W44562   7.075   2.135   1.448 -0.1151 -0.2903  0.2275
24283W        W44563  14.545  12.692   3.117 -0.1084  0.0505 -0.0620
24284W        W44564   4.281   5.734   2.531  0.4611 -0.0011 -0.0039
24285W        W44565  15.776   9.731   2.380  0.0606 -0.0900 -0.2548
24286W        W44566   7.645   4.364   2.389 -0.1729 -0.1731 -0.2621
24287W        W44567  12.759   6.829   1.794 -0.1465  0.0292 -0.1300
24288W        W44568   4.094  15.384   0.683 -0.0836  0.0482  0.2147
24289W        W44569  12.166   3.056  11.296  0.1925 -0.2173 -0.2373
24290W        W44570   0.897  11.217   2.092 -0.0851 -0.0592 -0.0125
24291W        W44571  12.413   6.342   3.413  0.0234  0.2869 -0.1171
24292W        W44572   5.635   5.209  13.962 -0.0397 -0.2778  0.0492
24293W        W44573   5.536  17.363  10.329  0.0182 -0.1928  0.1886
24294W        W44574  16.069  16.429  14.055 -0.0003 -0.4113  0.0831
24295W        W44575  11.124  10.164   4.923 -0.0432 -0.0317 -0.3615
24296W        W44576   0.750   3.480   2.972 -0.0663  0.1934  0.1794
24297W        W44577  14.159   9.162  14.108  0.1935  0.0656 -0.1444
24298W        W44578   9.494  15.121  14.651 -0.1163  0.4509  0.1473
24299W        W44579   8.285  15.696  12.075 -0.1267  0.0174 -0.3942
24300W        W44580  16.361  15.552  11.678 -0.2471 -0.2006 -0.3872
24301W        W44581  18.535  13.829   4.602 -0.0639 -0.0489 -0.2886
24302W        W44582  16.187   1.547   2.747 -0.3272 -0.0708  0.1299
24303W        W44583   7.200   3.961  14.692  0.0119  0.0520 -0.1091
24304W        W44584  12.843  12.293   2.132  0.0062 -0.2250  0.0296
24305W        W44585   2.342  11.382  11.810 -0.2380 -0.1826  0.1515
24306W        W44586   3.052  15.389   0.509  0.0340 -0.0224  0.3168
24307W        W44587  10.607  11.437   3.824  0.0599  0.0795  0.2872
24308W        W44588  10.164  10.378  14.383  0.1650  0.0001 -0.3439
24309W        W44589   1.448   5.128  14.080  0.1744 -0.1815 -0.1311
24310W        W44590   1.623   0.461  10.128  0.2181  0.2730 -0.0313
24311W        W44591   2.773  15.432  12.187 -0.1354  0.1388  0.0137
24312W        W44592   1.186   7.435   1.939  0.1931 -0.0367 -0.0116
24313W        W44593   9.521  16.326  13.420  0.0731  0.0097  0.0953
24314W        W44594   4.239   4.876  15.055  0.0015  0.2946 -0.1261
24315W        W44595   7.615   3.816   2.790  0.0115 -0.0262  0.0578
24316W        W44596  17.128  12.819  15.284 -0.4190  0.1174  0.1610
24317W        W44597  12.248  10.829  12.582  0.1849  0.0010  0.0567
24318W        W44598   4.202   9.596  10.669  0.0245 -0.0020 -0.0938
24319W        W44599  15.886   5.002   4.244 -0.0416  0.0080 -0.2263
24320W        W44600   4.542   5.785  12.729  0.1348 -0.1033 -0.0408
24321W        W44601   3.007  10.115   2.935 -0.1132  0.0941  0.0472
24322W        W44602  10.716  17.331   3.404  0.0864 -0.2314 -0.0969
24323W        W44603   4.621   2.287  13.283 -0.0138  0.0798  0.1173
24324W        W44604  16.113  10.733   2.525  0.4284 -0.0547 -0.1345
24325W        W44605  14.978   5.626  14.288  0.1231 -0.3099  0.4283
24326W        W44606   5.274   1.023   2.180 -0.0812 -0.0227  0.1340
24327W        W44607  11.744   4.903  14.201  0.2092  0.2058  0.3309
24328W        W44608   3.635   5.906   2.463  0.1618 -0.2468 -0.1099
24329W        W44609   4.569  13.704  12.696 -0.0114  0.4606  0.0142
24330W        W44610   8.228  14.710   2.226 -0.0367 -0.0466 -0.3254
24331W        W44611   3.932  12.411   0.995  0.0577 -0.2144  0.0854
24332W        W44612   7.820  18.719   4.102 -0.1855 -0.2796 -0.3089
24333W        W44613  12.632   0.526   0.256 -0.1339 -0.1711 -0.0660
24334W        W44614  14.742   4.219   1.681  0.0941  0.0947 -0.3638
24335W        W44615   5.469  18.203  11.523 -0.0547  0.0794  0.1236
24336W        W44616   4.386   2.573  11.006  0.1001  0.0921 -0.0636
24337W        W44617  16.810  16.906  12.772 -0.1528  0.2754  0.0403
24338W        W44618  14.815  17.388   2.084 -0.1752  0.3316 -0.1106
24339W        W44619  14.259  14.270   1.345  0.0184 -0.1703  0.2133
24340W        W44620  14.599   0.680  13.372 -0.2540 -0.0853  0.0008
24341W        W44621   2.028   1.454  15.054 -0.0424 -0.1057 -0.0521
24342W        W44622   5.624  11.235  11.498  0.0366 -0.0667 -0.1909
24343W        W44623   0.994  10.455  12.175 -0.0181 -0.4425 -0.0426
24344W        W44624   6.310  10.850   0.511 -0.3460 -0.5036 -0.1918
24345W        W44625  17.867   2.052  13.839  0.0474 -0.1379 -0.0184
24346W        W44626   7.107   6.615  12.102  0.0843 -0.0962  0.2200
24347W        W44627  16.922  14.351   2.088  0.3591 -0.0143 -0.0704
24348W        W44628  10.951   8.041  14.846 -0.1277 -0.4628  0.1783
24349W        W44629   1.662   8.157   0.525 -0.0344  0.0959 -0.2704
24350W        W44630   0.302   8.716   1.556  0.0858  0.4595 -0.1322
24351W        W44631   5.418   9.414  12.041 -0.0722  0.1104 -0.1580
24352W        W44632  11.681  12.666  15.180 -0.1634  0.2190 -0.0027
24353W        W44633  12.069  10.266  15.199  0.3879 -0.2331  0.0238
24354W        W44634  16.683  11.388   0.563  0.1418 -0.2255 -0.5010
24355W        W44635  13.213   8.599   0.069  0.1930  0.2980 -0.0204
24356W        W44636   1.814  13.058  14.539 -0.0037  0.0333  0.3068
24357W        W44637   6.020   6.079  11.106  0.2838 -0.1156  0.1427
24358W        W44638  11.762   3.652   2.997  0.1786  0.0201 -0.3057
24359W        W44639   0.592   4.103  14.305  0.0522  0.1969  0.1807
24360W        W44640   1.346  14.778  11.084 -0.0895  0.0394  0.1318
24361W        W44641  11.145  10.291  12.010  0.3857 -0.0206  0.3147
24362W        W44642  10.862   3.551   0.465 -0.1193 -0.2688  0.2365
24363W        W44643  14.802  10.816  11.461 -0.0225  0.2614 -0.3739
24364W        W44644  13.074  15.957  14.041 -0.0884  0.2872  0.1263
24365W        W44645  15.436  10.056   2.345 -0.1090 -0.2441  0.1792
24366W        W44646  10.878  16.283  14.896 -0.2535 -0.3227  0.1599
24367W        W44647  12.149   2.554  11.648  0.1500 -0.4592  0.4025
24368W        W44648  10.238   4.994  14.847 -0.4457 -0.0332 -0.1287
24369W        W44649  16.980  17.494   3.546  0.1327 -0.2463 -0.1036
24370W        W44650   6.722  11.536  12.420  0.1527  0.2585 -0.3736
24371W        W44651  10.713  14.996  14.984  0.4255 -0.3229  0.1554
24372W        W44652   9.824  13.582   1.612  0.1899  0.1218 -0.1518
24373W        W44653  17.979  12.965  13.358  0.2345 -0.1785  0.1586
24374W        W44654   7.295   9.874  13.172 -0.1985 -0.1012 -0.0561
24375W        W44655   8.338  17.015  13.235 -0.0382  0.0310 -0.0896
24376W        W44656   3.148  17.989  13.580 -0.1588  0.5485  0.2585
24377W        W44657   0.048   4.180  13.504  0.2452  0.1783 -0.1103
24378W        W44658   3.681  14.302  15.140 -0.2196  0.0063 -0.0197
24379W        W44659  10.358  17.855  12.445 -0.2803  0.2012  0.1915
24380W        W44660  10.958  16.192  12.598  0.1649 -0.1671  0.0468
24381W        W44661  11.537   1.160  11.159  0.2535  0.2572 -0.0425
24382W        W44662   8.183  12.765  11.086  0.1470 -0.1095 -0.1678
24383W        W44663   7.681  13.816   2.005  0.1188 -0.0908  0.0944
24384W        W44664   7.865  17.563   1.808 -0.1130 -0.1113  0.0785
24385W        W44665   3.648   9.468   2.946 -0.2131 -0.1363 -0.0249
24386W        W44666   2.779   2.082   4.383  0.1840 -0.0382 -0.0913
24387W        W44667   9.430  10.989   1.925 -0.0245  0.1633 -0.0034
24388W        W44668   7.825  17.724  13.645  0.0960 -0.3975 -0.1645
24389W        W44669  17.825  17.270   2.167  0.2037  0.0428 -0.2930
24390W        W44670  14.729  18.402   2.850  0.0217  0.0879  0.1000
24391W        W44671   2.976   1.958  13.839  0.0383  0.0444  0.2864
24392W        W44672   1.180  17.554  12.805 -0.2483  0.0765  0.1161
24393W        W44673  11.864  10.714   4.254 -0.1185  0.3033  0.3615
24394W        W44674   3.046  13.669   3.657 -0.0305 -0.1280  0.1536
24395W        W44675  15.290   4.910  13.425  0.2122 -0.0807 -0.0228
24396W        W44676  17.786   6.176   2.506 -0.0290 -0.0956  0.1787
24397W        W44677   3.806  16.989  14.080 -0.3044  0.0156 -0.0368
24398W        W44678   7.639   1.419  13.946 -0.1552 -0.0052  0.3939
24399W        W44679  14.029  10.084   2.307  0.1051 -0.0313 -0.1879
24400W        W44680   4.756   1.137   3.740 -0.1709 -0.1712  0.0746
24401W        W44681  12.479   5.683   3.556 -0.1555  0.0567  0.1593
24402W        W44682  11.932   0.541  12.370 -0.2197  0.1412 -0.0217
24403W        W44683   5.641  16.661   0.497 -0.0158  0.0310 -0.1689
24404W        W44684  15.745  13.114  12.813 -0.1522 -0.0432 -0.0962
24405W        W44685   2.254   4.942   1.076  0.1831 -0.0744  0.0909
24406W        W44686  10.965   8.613   3.370 -0.1184 -0.2469  0.1278
24407W        W44687  10.623  11.710   1.674 -0.2485 -0.0976 -0.1126
24408W        W44688   9.319  18.112   1.919 -0.0442  0.3118  0.0181
24409W        W44689   9.649   6.099   1.521 -0.1821 -0.2901  0.3109
24410W        W44690  14.045   7.871  11.734  0.0215  0.0445  0.2697
24411W        W44691   6.106   0.499  11.088 -0.0237 -0.0835  0.1223
24412W        W44692   5.126   4.663  14.912  0.2103 -0.0040  0.2966
24413W        W44693   8.139  15.020  11.309  0.0582  0.1402 -0.0031
24414W        W44694  17.106   3.366  15.116  0.0354  0.0599  0.2506
24415W        W44695  11.420  13.489   0.165 -0.0357  0.1794  0.0371
24416W        W44696   6.173   6.048  12.444  0.3240 -0.2838  0.1309
24417W        W44697   9.832   1.071   1.730 -0.1626 -0.1660  0.0243
24418W        W44698  10.928  16.824   3.465  0.1806  0.0154 -0.1992
24419W        W44699   1.443   7.466   4.268  0.1285  0.1755 -0.0154
24420W        W44700   0.266   7.530  12.877  0.1601  0.1698 -0.0916
24421W        W44701   1.120   2.688  11.368 -0.0028  0.0706 -0.1048
24422W        W44702  15.531   3.330  12.901  0.0182 -0.2527  0.0173
24423W        W44703   8.363   0.850  13.523 -0.0020  0.2050  0.1048
24424W        W44704   8.199   8.008  14.057 -0.1263  0.1902  0.0331
24425W        W44705  11.832  16.923   1.885  0.0804  0.1677 -0.0435
24426W        W44706  17.477  17.717  11.134 -0.3212  0.0819  0.1085
24427W        W44707  15.162   2.127   2.574 -0.2075 -0.0327  0.0506
24428W        W44708   3.107   5.742   3.235  0.2034  0.2840  0.0393
24429W        W44709  12.088  15.799  14.190  0.0124  0.2680 -0.2934
24430W        W44710  13.780  18.140   1.566  0.2820  0.1343  0.1444
24431W        W44711  14.992   8.409  10.617 -0.0359 -0.2802 -0.1183
24432W        W44712  13.324  11.483  13.216 -0.0047 -0.0293 -0.0763
24433W        W44713   0.942  16.396  14.813  0.2699 -0.2090  0.3825
24434W        W44714   4.721  12.302   0.573 -0.1963  0.0569 -0.2760
24435W        W44715   5.227  18.045  15.012  0.3277 -0.2909 -0.2362
24436W        W44716   1.739   4.102  11.078  0.0205  0.1193  0.3856
24437W        W44717   4.891   8.094  15.231  0.0569 -0.0402 -0.0527
24438W        W44718   7.927   3.730  11.328  0.4274  0.1851  0.4029
24439W        W44719  17.244  16.964   0.924 -0.0318 -0.0744  0.2346
24440W        W44720   4.427  11.395   3.800 -0.2993 -0.1481  0.4767
24441W        W44721   2.439  12.829  10.244 -0.1571  0.0738 -0.1454
24442W        W44722   2.667   6.342   4.131 -0.0318 -0.2395 -0.4749
24443W        W44723   3.998   7.329  11.630  0.0420  0.0540 -0.3218
24444W        W44724  10.187   8.354  13.152  0.0472  0.0188  0.1572
24445W        W44725   8.821  12.778  14.871  0.0554 -0.0862  0.0439
24446W        W44726  15.459  16.613  14.637 -0.0563  0.1948  0.2283
24447W        W44727   0.944  10.524   1.057 -0.0676  0.1196 -0.0346
24448W        W44728   3.784  12.151   2.884  0.0706  0.1731 -0.0058
24449W        W44729  10.510  17.572  13.202 -0.0537  0.0870  0.2950
24450W        W44730  14.776   8.137  14.625  0.1452  0.0842 -0.1768
24451W        W44731  17.362   2.869   1.093  0.1472  0.1346  0.1661
24452W        W44732  10.633  13.552  12.970 -0.3101 -0.0636  0.2205
24453W        W44733  11.746  10.145  12.608  0.4166  0.1072 -0.0650
24454W        W44734   6.995  16.782   2.594  0.1623 -0.1439  0.2337
24455W        W44735   1.327   0.891   2.761  0.0693  0.1259  0.2691
24456W        W44736   6.800  14.874  10.210  0.3279  0.2387  0.1186
24457W        W44737   0.741  13.237   0.845 -0.1702  0.1021  0.0469
24458W        W44738   0.667  12.425  12.424 -0.0715  0.0615  0.1926
24459W        W44739   7.386   2.885   3.488  0.2658  0.0091  0.0549
24460W        W44740   4.237  16.588   2.883  0.0712 -0.1038 -0.0907
24461W        W44741   1.897   8.187  12.826  0.0206  0.3664 -0.1589
24462W        W44742  10.412   0.582   0.606 -0.1536  0.2891 -0.2903
24463W        W44743  11.521  18.600   3.360 -0.0989  0.2517  0.0003
24464W        W44744   2.031   4.149  12.530 -0.0766  0.3054  0.2498
24465W        W44745   0.750  16.962   2.686 -0.2586  0.0107  0.0564
24466W        W44746  13.709  14.204   3.122 -0.1944 -0.1800  0.3151
24467W        W44747   5.008  18.465  11.287  0.2629 -0.1360 -0.1343
24468W        W44748   4.762  11.412   0.898  0.0610  0.1941  0.1769
24469W        W44749  15.005  16.599  15.023  0.0784 -0.1662  0.1618
24470W        W44750   1.940   2.193   4.034 -0.0371 -0.0534 -0.1768
24471W        W44751   5.668  16.322   3.159  0.0412 -0.5826 -0.1730
24472W        W44752   8.932   6.936   1.099 -0.0114 -0.0887 -0.1764
24473W        W44753  13.646  12.633   4.705  0.3850  0.1268  0.0503
24474W        W44754   4.349  17.435   1.507 -0.0312  0.1470 -0.1860
24475W        W44755   9.150  17.010  14.136 -0.1882 -0.1137  0.2403
24476W        W44756  11.423   9.839  14.425 -0.0199  0.1766  0.4649
24477W        W44757   3.462  13.884   3.319 -0.1769  0.2240 -0.0174
24478W        W44758  10.090  10.352  13.326  0.1566  0.2362  0.0847
24479W        W44759   0.803  18.293   2.774 -0.1936 -0.0484 -0.1436
24480W        W44760   1.267   1.223   0.174 -0.0730  0.1661 -0.0164
24481W        W44761  11.430  14.384  13.343 -0.1396  0.1530 -0.0847
24482W        W44762   8.882  17.100  12.992 -0.0563  0.0697  0.1366
24483W        W44763  15.523   7.401   2.906 -0.1203  0.2358  0.0311
24484W        W44764  12.152   6.401   1.169 -0.0686  0.0404  0.2027
24485W        W44765   6.833   2.896  12.320  0.0265  0.1973 -0.0723
24486W        W44766  14.979  18.498  13.613 -0.4498 -0.0218 -0.2303
24487W        W44767   8.421   0.381   3.202 -0.0873  0.0675 -0.1754
24488W        W44768   7.380  13.867   3.859  0.0994 -0.0293 -0.3054
24489W        W44769  13.801  15.391  15.308 -0.1762 -0.0758 -0.0581
24490W        W44770  14.537  13.214   2.810  0.0546 -0.0152  0.0431
24491W        W44771  10.650  11.187   1.193 -0.2173  0.2922 -0.0376
24492W        W44772   8.855   2.704   2.382 -0.2646 -0.0662 -0.1564
24493W        W44773  14.989  16.146  15.226  0.1122 -0.1607 -0.0330
24494W        W44774   3.958   6.808   0.772  0.1080  0.1436 -0.1477
24495W        W44775   7.766   2.508  14.219 -0.0849  0.1137  0.1343
24496W        W44776   1.227   6.521  10.519 -0.1529 -0.1171  0.0112
24497W        W44777  13.558  12.145  14.490  0.3517 -0.2257 -0.2275
24498W        W44778  18.349   6.623  11.056 -0.1251 -0.1753  0.1802
24499W        W44779  12.445   8.477   1.923  0.2902 -0.2389  0.1400
24500W        W44780   5.164   6.739   2.752 -0.0237  0.1580  0.2655
24501W        W44781   4.435   6.677   3.715  0.2272 -0.2099  0.2282
24502W        W44782   9.059   2.571  10.799  0.1787  0.0468 -0.1494
24503W        W44783  17.312   1.291  15.280  0.2165  0.2191 -0.1558
24504W        W44784   8.255   1.054  15.228 -0.0169  0.3767  0.1777
24505W        W44785  11.424  10.290   4.546 -0.0966  0.3159  0.1765
24506W        W44786  11.365   0.469   0.561  0.1944  0.0182  0.2914
24507W        W44787  10.327  15.966   3.505  0.2720 -0.2568  0.1470
24508W        W44788   4.834   2.775   2.861  0.0002 -0.0488 -0.0574
24509W        W44789  12.881   3.586  14.143  0.2397 -0.1042 -0.1933
24510W        W44790  14.598   1.876  13.236 -0.0126  0.0954 -0.0206
24511W        W44791  13.591   8.971   0.240 -0.2870  0.0841  0.2884
24512W        W44792  14.976  16.762   3.867 -0.3052 -0.0432  0.2006
24513W        W44793   5.232   7.622  13.399  0.2953 -0.0273 -0.1697
24514W        W44794  15.430  11.600   0.587 -0.0904 -0.0439 -0.3186
24515W        W44795  14.529   0.475  13.891  0.1985  0.0687  0.3068
24516W        W44796   9.550  12.684   4.084  0.1668 -0.0303  0.1302
24517W        W44797  13.031   6.603  15.336 -0.1855 -0.0498 -0.1453
24518W        W44798  12.306  14.894  12.171  0.5588 -0.1381  0.1934
24519W        W44799  12.318   9.377  11.674 -0.1706 -0.0728 -0.2958
24520W        W44800   4.506   2.096   2.423  0.1159 -0.1409 -0.2548
24521W        W44801   9.815  16.234  15.006  0.0160 -0.2704 -0.2360
24522W        W44802   7.894   0.318  10.387  0.3203  0.1096  0.0839
24523W        W44803  11.806  17.550  12.208  0.0301  0.0880  0.0181
24524W        W44804  15.895   2.379  12.454 -0.0120 -0.5697 -0.1312
24525W        W44805   9.292   3.361  12.405  0.1828  0.0174 -0.3463
24526W        W44806  10.457  15.355  14.170  0.0931  0.0227  0.1326
24527W        W44807  18.522  10.720  12.464 -0.1822  0.0569  0.1326
24528W        W44808   9.493   9.039  11.969 -0.0922 -0.1118 -0.1641
24529W        W44809  14.358  18.737   2.831  0.1645 -0.0548  0.2199
24530W        W44810   1.351   8.801  15.129  0.1825  0.1671  0.1945
24531W        W44811  12.657  15.126  12.496  0.0923  0.2358  0.1403
24532W        W44812  18.682   8.378   3.586 -0.3515  0.1047  0.0940
24533W        W44813  18.442   5.433   4.093 -0.2924 -0.3671  0.1120
24534W        W44814  12.686  11.415   1.924  0.1663  0.2523  0.1206
24535W        W44815  17.331   7.766  12.426  0.1444  0.1947 -0.0298
24536W        W44816   7.267   9.928  11.313 -0.1003 -0.0526 -0.0314
24537W        W44817   3.963   8.401  14.039  0.0613 -0.3417 -0.2892
24538W        W44818  15.460  10.200  13.498 -0.5125 -0.0263  0.3075
24539W        W44819  15.317   4.305   2.402  0.0079 -0.1060 -0.1780
24540W        W44820  12.729  12.629   3.563 -0.1429  0.3269 -0.2687
24541W        W44821   2.785  16.361  12.067  0.2326 -0.0277 -0.1888
24542W        W44822   8.759  13.919  13.342 -0.1176  0.0759 -0.0599
24543W        W44823   9.498   6.814   1.744  0.1397  0.2250 -0.0309
24544W        W44824  15.710  16.839   3.148 -0.0250  0.2359 -0.0077
24545W        W44825   7.910  17.868  15.149  0.1070  0.1140 -0.1536
24546W        W44826  18.638  18.685  11.381 -0.2361 -0.0722  0.0309
24547W        W44827   4.752  10.193  10.966 -0.2148 -0.0121  0.2050
24548W        W44828  16.475   4.470   1.554 -0.0378 -0.1099 -0.0976
24549W        W44829  13.731  11.579  15.124 -0.2535  0.1128  0.0277
24550W        W44830  18.426   5.055  12.010  0.6461  0.1862 -0.2745
24551W        W44831   1.708  14.541  14.418 -0.2649  0.0956  0.0240
24552W        W44832   5.118  15.775  13.552 -0.0900  0.2503 -0.0317
24553W        W44833   5.177  10.155   2.571 -0.1849 -0.0961  0.3144
24554W        W44834   7.767   6.452   1.380  0.1549  0.0965 -0.0297
24555W        W44835   6.465  17.558   3.185 -0.0119  0.1585  0.0516
24556W        W44836   1.219   0.659   0.717  0.0460 -0.0376 -0.2107
24557W        W44837  16.167   8.076  13.825  0.0161  0.0914  0.1071
24558W        W44838  17.738   6.474   4.320 -0.1571  0.0294  0.1428
24559W        W44839   9.147  15.750   2.945 -0.1334  0.0906 -0.0387
24560W        W44840   6.944   6.965  14.874  0.2595 -0.0425 -0.0062
24561W        W44841   2.156   2.352  12.804  0.1031 -0.0554  0.1303
24562W        W44842   0.426   3.463   0.325  0.1751  0.2018  0.1801
24563W        W44843  14.908  12.789   1.988 -0.0110 -0.1493 -0.1576
24564W        W44844   3.780  14.221  10.319 -0.0169 -0.1412 -0.2387
24565W        W44845  12.491  16.776   4.303  0.0404 -0.1382 -0.0905
24566W        W44846  14.428   7.230  15.301  0.0796 -0.1295 -0.1561
24567W        W44847   8.868  11.794  13.566 -0.1657 -0.0637 -0.0309
24568W        W44848  15.152   1.381  15.086  0.0870 -0.0058 -0.1112
24569W        W44849   8.261   0.533  12.093 -0.2112 -0.1588 -0.1263
24570W        W44850  11.856   8.867   0.463 -0.1739 -0.1994  0.3649
24571W        W44851   8.129   2.649  13.807  0.0268  0.0585 -0.0192
24572W        W44852   7.889   8.799  13.777 -0.0834 -0.1633  0.0575
24573W        W44853  11.154   1.066   3.168 -0.1145 -0.3179  0.3814
24574W        W44854  16.093   2.968   3.182 -0.0957 -0.0519  0.0047
24575W        W44855  16.696  11.233  15.031  0.1796 -0.0824  0.0855
24576W        W44856   3.599   4.603  13.687  0.1999 -0.0153 -0.1198
24577W        W44857   0.476   1.766   2.935  0.1858  0.0021  0.2008
24578W        W44858  12.677   1.751  11.036  0.0749  0.0745 -0.4264
24579W        W44859  14.281  17.606  14.727  0.0680  0.0753  0.1454
24580W        W44860   9.831  15.911  12.504  0.0215  0.3188 -0.0846
24581W        W44861   7.530   7.732  14.889 -0.1157 -0.2037 -0.2952
24582W        W44862  16.974   1.851  12.558  0.3516 -0.2186  0.3988
24583W        W44863   4.052   1.195  13.107 -0.0412  0.0508 -0.3494
24584W        W44864   0.673  13.720  11.276 -0.1941  0.0864  0.0806
24585W        W44865   1.882   7.769   3.270  0.2049  0.3150  0.1841
24586W        W44866   5.004   1.763  14.706  0.1462  0.3334 -0.0648
24587W        W44867  13.830  17.397   2.988  0.5193  0.0382  0.0343
24588W        W44868   6.096   6.433   0.938 -0.2196 -0.1488 -0.3306
24589W        W44869   6.981   4.240   4.102  0.0683  0.0137  0.1633
24590W        W44870   3.988   7.014  14.156  0.0627 -0.0920 -0.0831
24591W        W44871   4.759  13.890   1.985 -0.3283  0.0401  0.2846
24592W        W44872  15.093  15.805   0.620 -0.1050  0.1102 -0.0726
24593W        W44873   5.479   2.809   2.173 -0.2786  0.2705 -0.1154
24594W        W44874   1.135  10.062   0.161 -0.3815 -0.3744  0.2603
24595W        W44875  11.161  15.263  13.084 -0.0919  0.2923  0.4934
24596W        W44876  15.218  15.206   1.216 -0.2784  0.2950 -0.0964
24597W        W44877   9.353  10.129  13.915 -0.0049  0.0280  0.2990
24598W        W44878   3.845   4.006  11.283  0.1618  0.1545  0.0994
24599W        W44879   1.364  11.629   1.581  0.1453 -0.0913  0.1410
24600W        W44880   9.262  12.974   4.416 -0.0838 -0.1405 -0.3583
24601W        W44881  12.229  14.049   1.973  0.0470 -0.0799  0.2449
24602W        W44882   1.515  16.528   1.870 -0.0247  0.1524  0.1378
24603W        W44883  14.333   5.232   4.244  0.0548 -0.1607 -0.0585
24604W        W44884   2.127   0.028  14.483  0.2037 -0.2043 -0.0086
24605W        W44885   1.172   0.355  15.348  0.0996  0.2785 -0.1474
24606W        W44886  17.494  16.745  12.135 -0.1329  0.2755  0.1748
24607W        W44887   8.142   1.790  12.354 -0.0139  0.2004 -0.2482
24608W        W44888   8.075   8.812   3.453 -0.2118 -0.0615  0.0209
24609W        W44889   8.824   3.193  13.894  0.0322  0.3100  0.1073
24610W        W44890   8.285   1.428   3.482  0.5470  0.2220  0.0309
24611W        W44891   8.051  17.858  14.540 -0.0301  0.4367 -0.1974
24612W        W44892  14.479   3.141   2.956 -0.1505  0.2267 -0.1374
24613W        W44893  12.515  13.530   2.550 -0.0845 -0.0318  0.0352
24614W        W44894  17.347  12.953   0.363 -0.0403  0.2882 -0.0651
24615W        W44895  18.081   0.831  11.954  0.0860  0.0365  0.0378
24616W        W44896   2.117   3.828  15.129 -0.1201 -0.2005  0.1793
24617W        W44897  18.566   4.051   1.501 -0.1298  0.2215 -0.1710
24618W        W44898   7.616  13.402  14.504 -0.0460  0.0485 -0.1257
24619W        W44899  10.502   8.422   5.002  0.2524  0.1542  0.2036
24620W        W44900   1.135   2.762   0.242  0.1957  0.0757  0.2204
24621W        W44901  14.056  17.198   4.101  0.1218 -0.2120 -0.3634
24622W        W44902   8.936   8.904   1.186 -0.0222 -0.0564 -0.1865
24623W        W44903   7.792   0.922  13.615 -0.1627 -0.1628 -0.0398
24624W        W44904   2.653   5.208   0.499 -0.2804 -0.1023 -0.0373
24625W        W44905   5.262   8.902   3.043  0.1152 -0.1396  0.3164
24626W        W44906  10.338   1.401  11.740 -0.0392 -0.1184 -0.1806
24627W        W44907   4.548   7.139  14.056  0.1468  0.1522  0.0977
24628W        W44908  10.582   1.863   4.683 -0.1593  0.0698 -0.1255
24629W        W44909   6.078  10.097   0.013  0.2391 -0.0546 -0.2952
24630W        W44910  15.006  15.455   2.550  0.0206 -0.1801  0.0306
24631W        W44911  13.634  15.651  10.768  0.4413 -0.0976  0.0179
24632W        W44912   6.063  13.727  12.541  0.2934  0.0090 -0.3934
24633W        W44913  18.042   0.514  12.403  0.2844  0.0501 -0.2827
24634W        W44914  14.548   8.643   0.057  0.2691 -0.2959  0.0984
24635W        W44915  13.241   7.682   0.686  0.2287 -0.0095  0.1235
24636W        W44916  12.507   2.334  13.800  0.0453  0.2999 -0.1033
24637W        W44917   4.835   2.691  14.655  0.0484  0.0206 -0.2506
24638W        W44918  11.897   5.594   0.365 -0.3388 -0.0226  0.2316
24639W        W44919   9.658  13.655  11.451  0.2064 -0.1450  0.1417
24640W        W44920  14.762  15.114   1.110  0.0062 -0.1937  0.0757
24641W        W44921  15.920  14.927  15.322 -0.1042 -0.1915  0.2294
24642W        W44922  16.390   6.017  15.243  0.4301  0.1424  0.0387
24643W        W44923   5.992  14.127  15.035 -0.0977  0.0146  0.2493
24644W        W44924  13.214   6.679  12.879 -0.0942  0.2069  0.0360
24645W        W44925  14.181  17.454   1.030  0.1876  0.0710 -0.0012
24646W        W44926  17.649  11.317  12.858  0.0561 -0.1474 -0.2010
24647W        W44927   9.095   9.047   3.530  0.1036 -0.0408  0.0360
24648W        W44928  15.882   8.760  12.118 -0.0533  0.1687  0.2145
24649W        W44929  13.686   0.978  12.020  0.1240  0.1439 -0.0362
24650W        W44930   4.174  14.625   1.616 -0.2810  0.2920 -0.3195
24651W        W44931   7.138   1.010   9.267  0.3072  0.0712  0.0033
24652W        W44932  17.933  16.961   0.670  0.1343  0.0377  0.0695
24653W        W44933   4.884  13.173  11.219  0.2009 -0.0749 -0.1375
24654W        W44934   4.585   9.481  14.685  0.2703 -0.0513 -0.1160
24655W        W44935   1.525  10.012  13.160 -0.1379 -0.0613  0.1610
24656W        W44936  13.896  12.220  13.321 -0.0825  0.1472 -0.2370
24657W        W44937  10.715   0.907   1.796  0.0492  0.1796  0.1738
24658W        W44938   4.483   4.939  13.283 -0.1472  0.1294 -0.1420
24659W        W44939   0.238   3.290  15.270  0.0050  0.1698  0.2834
24660W        W44940  14.170  18.616  14.726 -0.0106 -0.0257 -0.0619
24661W        W44941  15.433   1.684   0.716 -0.2050 -0.1043 -0.2045
24662W        W44942  13.105  11.957   0.678 -0.0016 -0.1430 -0.0841
24663W        W44943   4.827   4.161   1.562  0.0196 -0.0770 -0.1803
24664W        W44944   9.700  17.453   0.364  0.4761 -0.1445 -0.0774
24665W        W44945  18.715   4.844   2.161  0.0887 -0.1378  0.2265
24666W        W44946   9.908   5.267   3.720 -0.0552  0.2051  0.0777
24667W        W44947   1.812   6.729  14.510 -0.1147  0.2708 -0.1879
24668W        W44948  11.318  13.473  14.901 -0.0735  0.1094 -0.2640
24669W        W44949   7.386   3.693  13.519 -0.3039 -0.1467  0.1465
24670W        W44950  11.122  14.151   4.489 -0.2468 -0.0124 -0.0801
24671W        W44951   8.825   5.304   3.608  0.0452 -0.1696 -0.0414
24672W        W44952   7.288   1.126  13.770 -0.2369 -0.1836 -0.1817
24673W        W44953  17.009   3.080  11.734 -0.1286  0.0599 -0.0925
24674W        W44954  11.657   5.088  13.317 -0.0872 -0.1013  0.2246
24675W        W44955   8.483   4.462   1.727  0.2320 -0.0259 -0.2245
24676W        W44956   9.467   3.814  13.100 -0.2040  0.0680  0.0189
24677W        W44957  12.459  12.226  14.923  0.2840  0.3226 -0.0916
24678W        W44958  14.807  13.008  13.121  0.6482  0.1510  0.0447
24679W        W44959  17.779  14.875  13.269  0.0928  0.1238  0.0551
24680W        W44960  13.039   4.878  10.551  0.0440 -0.0292  0.3385
24681W        W44961   0.611  18.681   1.973  0.1082 -0.2826 -0.0462
24682W        W44962  14.941   0.465  12.482 -0.0206  0.2016 -0.1459
24683W        W44963   6.721  12.015   3.776  0.0101 -0.1554  0.1312
24684W        W44964  13.541   0.668   0.729  0.2769 -0.2129 -0.0110
24685W        W44965   0.714  18.278  10.907 -0.2751  0.0184 -0.1464
24686W        W44966   1.657   7.084  15.239 -0.0266 -0.1750 -0.0540
24687W        W44967   9.914   2.837  15.242 -0.0349  0.1291 -0.2998
24688W        W44968  18.220  15.255  11.607 -0.1295 -0.0665  0.0859
24689W        W44969  11.563   2.354   4.953  0.1374  0.0504 -0.2280
24690W        W44970   5.949  15.073   2.093 -0.0342 -0.1079 -0.2403
24691W        W44971   9.746  12.190   1.849 -0.0167  0.1599 -0.2817
24692W        W44972  12.369  16.504  15.029 -0.0626 -0.1074 -0.1498
24693W        W44973  13.203   2.823   2.947 -0.0619 -0.1367 -0.3085
24694W        W44974  18.527  10.015  11.439 -0.1634 -0.1734  0.3375
24695W        W44975   4.010   8.059   1.599 -0.0373 -0.2084  0.0510
24696W        W44976   1.531  17.474   4.072 -0.0792  0.0997 -0.2217
24697W        W44977   0.393   1.507  11.496  0.0736 -0.1633 -0.1081
24698W        W44978   5.547   7.754  13.117  0.0219 -0.3381 -0.1542
24699W        W44979  10.869   8.041   4.956  0.1339 -0.0482 -0.0310
24700W        W44980  10.450   2.377   0.940 -0.2641 -0.2878  0.0231
24701W        W44981  15.615  13.046  13.394 -0.2161  0.0205 -0.1608
24702W        W44982   5.505  17.854  13.630  0.0621 -0.0211  0.0789
24703W        W44983   4.300   3.739  14.617  0.0354  0.0545 -0.2288
24704W        W44984   6.507  12.571   2.579  0.0427  0.1615 -0.0660
24705W        W44985  14.698  17.641   1.151  0.0564  0.2503  0.1919
24706W        W44986   2.914  10.377  11.703  0.1727 -0.3214  0.0459
24707W        W44987   1.401   9.757   1.256  0.1137 -0.0130 -0.0861
24708W        W44988   6.284  13.997   1.604 -0.0889 -0.0303 -0.0929
24709W        W44989  11.209  11.933  10.832 -0.1386  0.0049  0.2122
24710W        W44990  12.993  12.311  15.061 -0.1839 -0.0849  0.3527
24711W        W44991  12.599   8.780  11.823 -0.3485  0.1204  0.0937
24712W        W44992   2.602  14.988  12.342 -0.4534 -0.1720  0.0174
24713W        W44993   5.841   6.091  13.477 -0.2186  0.2406 -0.2670
24714W        W44994  14.881   3.563   0.862 -0.0937 -0.0153 -0.2085
24715W        W44995  14.740  12.677  12.070  0.2058 -0.1230  0.0110
24716W        W44996   3.472   9.951  11.990 -0.0441  0.2902 -0.0550
24717W        W44997   2.980  10.030  12.636 -0.2109  0.0252 -0.0505
24718W        W44998   5.073  11.138   1.844 -0.0537 -0.4212 -0.0551
24719W        W44999   8.541   9.309  11.024  0.0072 -0.1549 -0.2359
24720W        W45000   9.942  10.880  14.236  0.1600 -0.2940  0.2228
24721W        W45001  15.945   9.243   2.377  0.2063  0.0884 -0.1807
24722W        W45002  17.968  14.011   2.313  0.0928 -0.1656  0.1970
24723W        W45003  18.569  16.150   1.546 -0.0648  0.0151  0.0320
24724W        W45004  13.253  18.019  12.332  0.0639  0.1986 -0.0908
24725W        W45005   2.125  16.982  14.717  0.0875 -0.2543  0.2138
24726W        W45006  18.700  16.355   3.830 -0.3346 -0.0745 -0.0528
24727W        W45007  13.568  15.865  14.555  0.2594 -0.1623 -0.2256
24728W        W45008   9.320  13.440  13.459 -0.0970  0.1013  0.0744
24729W        W45009  12.653   5.368  12.065 -0.0236 -0.2104  0.0260
24730W        W45010  12.390   8.282   0.154 -0.2518  0.2845 -0.0650
24731W        W45011  13.612   4.787   3.574 -0.0847 -0.0706 -0.0292
24732W        W45012  11.606   6.792   4.448 -0.2902  0.2255  0.0457
24733W        W45013  18.550   4.668   3.871 -0.1409 -0.0649  0.3006
24734W        W45014   1.574   9.255   0.560  0.0581 -0.0203  0.0050
24735W        W45015  17.780  18.087  10.939  0.0612  0.1007  0.1727
24736W        W45016  12.770  16.344  14.268  0.0772  0.0742  0.1335
24737W        W45017   6.946  18.563   1.730  0.3812  0.0431  0.3916
24738W        W45018  12.007   4.884  12.990  0.0426 -0.1210 -0.1295
24739W        W45019   8.886   9.967  15.337  0.2999 -0.0841 -0.0348
24740W        W45020   6.007  17.900   3.422 -0.1821 -0.0551  0.0185
24741W        W45021   2.115  16.051  14.763 -0.0678 -0.0094  0.1991
24742W        W45022  13.147   2.773  13.085  0.2465 -0.0779  0.3044
24743W        W45023  13.021  16.952   1.321  0.3597  0.3772 -0.0147
24744W        W45024  17.086  10.535   0.659  0.0033 -0.1586  0.0896
24745W        W45025  11.865  14.242  15.380  0.0050 -0.0912 -0.0023
24746W        W45026   0.902  18.058  13.996  0.0082 -0.0174 -0.0371
24747W        W45027   1.229  15.675  13.314  0.0624 -0.3059  0.2248
24748W        W45028  16.922  13.985   0.356  0.1169  0.0448  0.1085
24749W        W45029  11.048   4.208  12.485 -0.0726  0.2586  0.0702
24750W        W45030  14.889  17.921   1.515  0.3274  0.1599 -0.3466
24751W        W45031   6.173   8.003  13.367  0.0190 -0.0473  0.2464
24752W        W45032  10.436  15.374   1.332  0.1656  0.1772 -0.2817
24753W        W45033   8.717   7.281   2.713  0.0440 -0.0164  0.1573
24754W        W45034  14.271  11.386   2.082 -0.2560  0.0111  0.2150
24755W        W45035   8.514  16.409  14.066  0.1038 -0.0872 -0.1812
24756W        W45036   7.753  11.015   1.509  0.1580  0.1051  0.1677
24757W        W45037  15.195   1.261  13.671  0.1505 -0.2231  0.2187
24758W        W45038   7.629  12.347  15.277 -0.0647 -0.1395  0.1148
24759W        W45039  11.885  10.027   4.403  0.0715 -0.0949 -0.2318
24760W        W45040   8.347  14.909   3.620  0.1956  0.2377 -0.2764
24761W        W45041  13.896  18.242   2.538  0.0063  0.1381  0.2143
24762W        W45042   4.723  16.366  12.062  0.1107 -0.0142  0.0219
24763W        W45043  11.574   3.796  15.239 -0.0093  0.2745 -0.0099
24764W        W45044   0.841   6.684  13.761 -0.0222 -0.2158  0.0819
24765W        W45045  12.892  16.099  13.586  0.0536 -0.2844  0.1415
24766W        W45046   0.247   0.450   0.125 -0.4624  0.1708  0.2321
24767W        W45047  14.445   2.404  10.091 -0.0590  0.0601  0.0993
24768W        W45048  10.334   6.471  14.822 -0.1010  0.2031  0.1609
24769W        W45049  11.345  14.952   3.166  0.2509 -0.1771  0.0061
24770W        W45050   7.193  10.219   2.425 -0.1111  0.0525  0.3592
24771W        W45051   8.677  18.187  13.647 -0.0608 -0.1914 -0.0581
24772W        W45052   2.750  13.141   0.535 -0.1073 -0.2542  0.1963
24773W        W45053   2.549   4.548   2.670 -0.1416  0.2791  0.2152
24774W        W45054  13.941   9.555   2.429  0.1927  0.0517  0.0349
24775W        W45055  16.084  18.529   3.469 -0.0117 -0.0026 -0.0472
24776W        W45056  17.901   2.638   1.697  0.2026 -0.0264  0.1458
24777W        W45057   9.108  10.937   4.138 -0.1693  0.0041  0.1393
24778W        W45058   6.384   9.031  14.542 -0.0953 -0.0202  0.4464
24779W        W45059  12.804   4.650  13.297  0.1235 -0.1540 -0.1078
24780W        W45060  17.637  10.543  12.125  0.2397 -0.2264  0.0886
24781W        W45061   0.413  17.113  14.051 -0.0030  0.1574 -0.2396
24782W        W45062  10.657  15.702   3.224  0.0021  0.1098  0.0619
24783W        W45063  13.223  12.691   3.587  0.1871 -0.1550  0.3528
24784W        W45064  11.091  15.185  11.804 -0.1164 -0.0625  0.0215
24785W        W45065   5.459  15.003  12.916 -0.0110  0.1750 -0.0317
24786W        W45066   2.896   2.637  11.057  0.2318  0.2120  0.3581
24787W        W45067  15.160   3.797   2.530  0.1932 -0.0941  0.0852
24788W        W45068   2.965   7.753  12.108 -0.0942 -0.5680  0.1418
24789W        W45069   3.311   3.755  12.611 -0.2144 -0.0779  0.0005
24790W        W45070  17.782   3.618  12.981 -0.1065  0.0421  0.1872
24791W        W45071   0.399   4.753   0.763  0.1181 -0.1236 -0.2190
24792W        W45072   7.254  16.307   2.534  0.1197 -0.2507  0.2596
24793W        W45073   8.910  17.742  14.157 -0.0966 -0.3783  0.3422
24794W        W45074   0.545  15.871   2.401  0.0863  0.0697 -0.2755
24795W        W45075   0.468  14.853  13.746 -0.3110 -0.2278 -0.1748
24796W        W45076   2.673  11.039   3.252  0.1077 -0.2394 -0.0337
24797W        W45077  13.978  10.162   4.167 -0.0730 -0.0275  0.0005
24798W        W45078   9.930  12.893   3.149 -0.0240 -0.1259  0.1898
24799W        W45079   3.397   7.493  12.179 -0.2206  0.0447 -0.3683
24800W        W45080  13.328  12.374   2.256 -0.1450  0.2706 -0.1993
24801W        W45081   0.163   1.688  14.757  0.1895  0.1787  0.0160
24802W        W45082  10.561   2.826  11.598  0.0993 -0.1936 -0.2627
24803W        W45083   2.423  14.429  12.979 -0.0560 -0.0025 -0.2201
24804W        W45084  17.243   1.490   0.380 -0.1819  0.1811  0.0144
24805W        W45085   1.819  10.985   2.662  0.1015 -0.0864  0.2041
24806W        W45086   4.887  10.657  13.099  0.1204  0.3109  0.2434
24807W        W45087  15.829   5.256  11.615 -0.0415 -0.1952  0.0921
24808W        W45088   7.179  14.784  12.075  0.2920 -0.0816 -0.2315
24809W        W45089   0.729   4.327  12.448  0.0771  0.1552 -0.1449
24810W        W45090   7.127  11.146  11.159  0.2720 -0.2569  0.2408
24811W        W45091  11.193  10.367  15.255 -0.0359  0.1874  0.0804
24812W        W45092   1.989   4.034   2.388 -0.3434 -0.0680 -0.0186
24813W        W45093   4.379  15.471  10.829  0.1707  0.1439  0.2207
24814W        W45094  16.456   0.331   0.497 -0.3370 -0.0053 -0.3224
24815W        W45095   5.302   3.378  12.897  0.1327  0.0320 -0.0717
24816W        W45096   8.442  18.376  12.475 -0.0705  0.1003 -0.0345
24817W        W45097   0.521   0.736  14.190 -0.0047  0.2124 -0.0397
24818W        W45098   2.201   2.920  13.556 -0.2796 -0.1413  0.2122
24819W        W45099   9.286  17.251  11.677 -0.0080 -0.2402 -0.2079
24820W        W45100  13.329  11.051   0.550  0.2241 -0.3983 -0.0135
24821W        W45101   3.686   7.961   3.157  0.0063 -0.4283  0.3487
24822W        W45102   9.203   0.392  11.511 -0.1477  0.1847 -0.0088
24823W        W45103  16.164   9.687   0.603  0.0639  0.1401 -0.1875
24824W        W45104   5.025  16.782   2.640 -0.0884 -0.2971  0.0042
24825W        W45105   5.470   0.099  13.001  0.3457  0.0917  0.0479
24826W        W45106   9.548   3.893   3.394  0.1372  0.1156 -0.0920
24827W        W45107  17.919  12.296   1.714 -0.3256 -0.2123  0.4093
24828W        W45108  12.736   1.428   2.721  0.0572  0.2392 -0.2062
24829W        W45109   7.080   6.881  11.623  0.0207 -0.0249 -0.2100
24830W        W45110  11.551   3.109   0.415 -0.1295 -0.2917  0.0489
24831W        W45111   2.234   1.099   3.171  0.1165  0.1324  0.0920
24832W        W45112  14.179  13.663  14.445  0.0537  0.1663  0.3095
24833W        W45113   8.750   5.418  13.824  0.1520  0.1829  0.1856
24834W        W45114  15.971  12.268  15.093 -0.3154 -0.1287  0.0207
24835W        W45115   7.450  17.199  12.176  0.1445 -0.2035 -0.1643
24836W        W45116   4.042   9.952  11.931  0.4783  0.4248 -0.0277
24837W        W45117  13.845   7.089  14.338 -0.1030  0.1228 -0.2136
24838W        W45118  14.498  10.555  13.669  0.0103 -0.1848  0.0279
24839W        W45119   1.773   4.791  14.379  0.0357  0.1724  0.0373
24840W        W45120  11.252   0.327  13.101  0.0959  0.1124 -0.1574
24841W        W45121  15.289   5.077   1.995  0.0602  0.0565  0.0677
24842W        W45122   8.211   5.378  13.611  0.0177  0.0251 -0.4795
24843W        W45123   1.136   8.905  13.304 -0.0777 -0.0517 -0.1019
24844W        W45124   2.234   8.036   3.589 -0.1952  0.2502  0.1607
24845W        W45125  17.202  13.775  14.643  0.1653  0.2321 -0.1263
24846W        W45126   7.790   9.867   4.040 -0.0742  0.1016 -0.0945
24847W        W45127   0.165   4.265   3.535  0.1223 -0.1713 -0.0039
24848W        W45128   3.960   4.763  14.561 -0.3045 -0.0401  0.1712
24849W        W45129  15.317  14.040  12.469 -0.0844 -0.1154 -0.1500
24850W        W45130  13.385   1.083  14.405  0.0383 -0.0365 -0.4153
24851W        W45131   8.477   0.324   1.804 -0.1613 -0.0878 -0.1767
24852W        W45132  17.498   1.139   0.703  0.1331  0.4166 -0.2953
24853W        W45133   1.880  10.115  14.600 -0.0267 -0.1260  0.2569
24854W        W45134  16.013   6.048   3.390  0.1370 -0.0475 -0.0527
24855W        W45135   2.363   7.091   2.939 -0.0465  0.1042 -0.1715
24856W        W45136   6.951  15.480  15.035 -0.0017 -0.1752 -0.1784
24857W        W45137   7.658   8.295   1.100 -0.4546 -0.0634 -0.2686
24858W        W45138  14.508   7.235  13.739  0.2471  0.0070 -0.1829
24859W        W45139   4.738   0.272   3.125  0.1297  0.1683 -0.2793
24860W        W45140  16.035  15.292   0.312 -0.0942  0.1359  0.1194
24861W        W45141  14.607  12.534   4.835 -0.0297  0.1715 -0.0226
24862W        W45142   7.376  17.709  11.415 -0.1329 -0.2311 -0.3687
24863W        W45143  16.692   1.627  14.524 -0.3082  0.0558 -0.0194
24864W        W45144   9.410  15.577  12.605  0.1544  0.2908  0.1267
24865W        W45145  16.851  16.699   0.706 -0.0140  0.0117  0.2449
24866W        W45146  12.963   1.906   4.024  0.4670 -0.3214  0.0186
24867W        W45147  18.555   8.160  15.190  0.2669  0.3083  0.0819
24868W        W45148  14.552   5.991   3.611 -0.1570  0.0309  0.2017
24869W        W45149  18.118  17.690  11.351  0.1581  0.2448  0.4864
24870W        W45150  10.458  12.924   1.380 -0.2389  0.1273  0.1144
24871W        W45151  17.103   8.475   3.931 -0.2512  0.0547  0.0348
24872W        W45152  18.265   4.858   1.847 -0.0938  0.3843 -0.1889
24873W        W45153   1.479   1.084  13.900  0.2357  0.1292  0.3424
24874W        W45154   2.669   3.776  12.545  0.0860 -0.1638  0.2922
24875W        W45155   1.165   2.284   0.180 -0.0575 -0.0883 -0.4371
24876W        W45156  14.008   5.235   4.677 -0.1039 -0.0008 -0.2371
24877W        W45157   8.676  12.981  11.069  0.1821 -0.1282  0.0092
24878W        W45158   6.046  17.012  15.209  0.5126  0.2830 -0.0830
24879W        W45159  17.621  10.356  14.888 -0.2381 -0.1195  0.0162
24880W        W45160  12.248   8.264   4.638 -0.0380  0.1149 -0.0204
24881W        W45161   3.312   8.997   0.654 -0.1303 -0.3867  0.1532
24882W        W45162  13.920  12.808  11.246  0.2673  0.2687 -0.0557
24883W        W45163  15.139  14.512  15.023  0.0316  0.2715 -0.1533
24884W        W45164   3.563   4.070   1.831 -0.1886 -0.0314 -0.0921
24885W        W45165  11.892   5.779  11.310 -0.0977 -0.0606 -0.1742
24886W        W45166   1.489  10.424  14.510 -0.1052 -0.0118  0.3409
24887W        W45167  10.816  11.904  14.464  0.0766  0.0544  0.2847
24888W        W45168   2.791  14.076  15.268 -0.1431  0.0067 -0.1593
24889W        W45169  14.105  18.408   1.175  0.1841 -0.2352 -0.2484
24890W        W45170   5.646   7.673   2.686  0.1573 -0.2708  0.2247
24891W        W45171   1.837   8.822  15.174  0.0899  0.2361  0.1267
24892W        W45172   6.085  11.469  13.092 -0.2909 -0.0306  0.1601
24893W        W45173   6.528  10.882  13.124 -0.1731  0.1798 -0.1785
24894W        W45174   8.943  18.160  11.394 -0.3038 -0.1443 -0.0478
24895W        W45175   5.259   0.418   3.300 -0.0545  0.2086  0.1075
24896W        W45176  15.362  14.675   2.154 -0.1916  0.1407 -0.0208
24897W        W45177   2.235   6.274  11.593 -0.1046 -0.2279 -0.1114
24898W        W45178   6.779   8.155  14.369 -0.1323  0.2989  0.1591
24899W        W45179  18.161   9.641   0.486  0.2201 -0.1310 -0.0380
24900W        W45180   4.634   3.022   4.930  0.2998  0.0370 -0.0677
24901W        W45181  16.281   9.076   1.973 -0.0300  0.3145 -0.0409
24902W        W45182  14.760  11.082   0.366  0.1183 -0.3286 -0.0286
24903W        W45183  14.014  11.274  14.713 -0.1293 -0.1582 -0.0332
24904W        W45184  11.511   6.702  12.226 -0.0903  0.2600  0.0696
24905W        W45185  14.343   4.368   2.547 -0.2292 -0.2342  0.1863
24906W        W45186  10.098  10.740  13.731  0.3244 -0.0223  0.2316
24907W        W45187   0.256   5.296   0.488 -0.0797 -0.1434 -0.3200
24908W        W45188  11.832  12.233   0.387  0.1698  0.1060 -0.0637
24909W        W45189   4.245  18.075  11.929 -0.5201  0.1227 -0.2624
24910W        W45190  16.940  17.049  13.589  0.3028 -0.0741  0.0110
24911W        W45191   4.866   4.107  14.064  0.0081 -0.1333 -0.1131
24912W        W45192   8.931   7.486   3.209 -0.1729 -0.2442 -0.0345
24913W        W45193  14.003   3.394  13.990  0.1923  0.0636 -0.0655
24914W        W45194  10.760   9.354   4.960  0.1482  0.0811  0.2208
24915W        W45195   7.385  13.082  14.798 -0.0548  0.3629  0.0824
24916W        W45196  12.862  13.231  14.761  0.0409 -0.3915  0.0512
24917W        W45197   5.513   1.494   1.421  0.0631 -0.1487 -0.0851
24918W        W45198   0.602  17.176   0.559 -0.0496 -0.0976 -0.2832
24919W        W45199   4.498  12.767   0.180 -0.3028  0.1477 -0.1096
24920W        W45200  12.136   3.720   1.101 -0.3928  0.1056  0.1550
24921W        W45201   3.761  18.027   3.269  0.1248  0.3055  0.1409
24922W        W45202  17.404   1.840   1.485 -0.2680 -0.0516  0.0050
24923W        W45203   5.868  13.160  11.605 -0.0433  0.0683  0.1775
24924W        W45204  12.849   5.931   5.293 -0.1426 -0.1363 -0.1392
24925W        W45205   1.984   7.907   2.334 -0.1224 -0.3272  0.2041
24926W        W45206   2.130   7.161   2.469  0.1984  0.3506  0.1907
24927W        W45207  14.310   8.314  11.731  0.4552  0.0170  0.0784
24928W        W45208  11.586  12.619   1.937 -0.2540  0.1232 -0.2813
24929W        W45209   7.694   6.885   2.870 -0.4029 -0.1997 -0.0015
24930W        W45210  10.267   1.783   5.052  0.2605 -0.1582  0.4770
24931W        W45211  14.596   3.773  11.855  0.1358 -0.2599  0.2096
24932W        W45212  10.003   6.367   2.383 -0.1325 -0.0217  0.1206
24933W        W45213  10.236   9.078   2.884  0.0057  0.0973 -0.1219
24934W        W45214  17.700   4.300   5.146  0.2003  0.2371  0.0011
24935W        W45215   3.406  10.458  11.806 -0.0629  0.0884 -0.0180
24936W        W45216   1.820   0.138   3.367  0.1456 -0.0910  0.3858
24937W        W45217   6.683   8.453   3.902  0.2453 -0.0453 -0.0542
24938W        W45218   1.326  14.307   3.085 -0.1276  0.0347 -0.3589
24939W        W45219   0.418  15.080  10.374 -0.0748 -0.1403 -0.0333
24940W        W45220  10.058   9.699   4.128  0.1706  0.3687  0.0276
24941W        W45221  14.103  13.103   0.970 -0.0587 -0.1655  0.0007
24942W        W45222   9.484   8.717   2.677 -0.1107 -0.0842  0.2635
24943W        W45223   5.060  13.551   2.306  0.1644 -0.1043  0.0103
24944W        W45224   2.956  18.092  11.588  0.0718  0.0814 -0.1140
24945W        W45225  16.049   0.167   3.851 -0.1214  0.1032 -0.4917
24946W        W45226   1.721  11.765   4.057  0.1505  0.0954 -0.0550
24947W        W45227   4.028  11.814  10.785  0.1380 -0.2064 -0.2384
24948W        W45228   5.200  18.318  10.630  0.0168  0.1024 -0.1277
24949W        W45229   7.765  16.405  12.350  0.1280 -0.1090 -0.1892
24950W        W45230  13.805  15.941   1.682 -0.1557  0.1360 -0.1046
24951W        W45231   1.215   0.655   3.336  0.0689  0.1438 -0.0019
24952W        W45232  15.541   9.630  11.502 -0.2701  0.1297  0.0862
24953W        W45233   0.723  10.868   1.761  0.0511 -0.1527 -0.0664
24954W        W45234   6.255  13.736   1.035  0.0432  0.0558 -0.1637
24955W        W45235  10.504   2.205  12.046 -0.2600 -0.0353 -0.1412
24956W        W45236   5.632  14.023   5.356 -0.2133  0.2502 -0.1356
24957W        W45237  13.722  14.094   2.539 -0.2474 -0.2220  0.0542
24958W        W45238  15.826  11.197   2.869  0.3838 -0.0891 -0.1251
24959W        W45239  18.196  15.495   4.650  0.0550  0.3246  0.1373
24960W        W45240   9.268   3.464  15.162  0.1472  0.1420 -0.1574
24961W        W45241  10.286   1.144  12.635 -0.0021  0.0282  0.1504
24962W        W45242   7.538   8.293   3.170  0.0682  0.2995 -0.1696
24963W        W45243  12.366  13.559  12.647 -0.2428  0.1168 -0.3023
24964W        W45244  15.253   2.534   1.033 -0.2457  0.0878  0.0928
24965W        W45245  16.560   2.344   3.989 -0.1520  0.3581 -0.2063
24966W        W45246  10.475   4.884  13.156 -0.0115  0.0137 -0.0752
24967W        W45247   6.045   7.047   0.751  0.1971  0.1514  0.0813
24968W        W45248   5.538   2.247  11.038 -0.0109 -0.3416 -0.0165
24969W        W45249  11.934   6.742   1.542 -0.1769 -0.1068 -0.1705
24970W        W45250  17.008  14.994  10.878  0.2295 -0.5651 -0.2308
24971W        W45251   3.126   7.358   2.815  0.2872 -0.0117  0.2049
24972W        W45252  17.557   6.618   2.631 -0.0004  0.0790 -0.1373
24973W        W45253  11.279   8.917   4.618 -0.1162 -0.1648 -0.0527
24974W        W45254  14.717  14.078   1.396 -0.0210 -0.0713  0.2346
24975W        W45255  10.980  13.602  11.646 -0.2637 -0.0271 -0.0859
24976W        W45256  16.055   4.459  13.275  0.0634 -0.2187 -0.0171
24977W        W45257  17.421   2.586  10.065 -0.3341  0.0557  0.1277
24978W        W45258  17.909   0.795  13.558  0.3031 -0.0252 -0.0594
24979W        W45259   3.020  18.021  12.944 -0.0482 -0.1621  0.2432
24980W        W45260   6.200  10.394   2.689 -0.1350  0.1776  0.3063
24981W        W45261   5.895  16.586  11.255  0.0906  0.1839  0.1715
24982W        W45262   3.919   6.451  11.246  0.2045 -0.4188  0.0809
24983W        W45263   8.545  17.182  11.260 -0.0642 -0.0359 -0.1281
24984W        W45264  15.989  16.992   0.185 -0.1109  0.2678 -0.0894
24985W        W45265   0.751  15.665   2.963  0.0133  0.0987 -0.1892
24986W        W45266   2.278  13.322   1.282 -0.1128  0.0072 -0.0052
24987W        W45267   6.948   9.801   2.134  0.2306  0.0336 -0.0515
24988W        W45268  14.823   4.866  14.953 -0.1669  0.0900  0.1641
24989W        W45269   6.163  16.939  14.566  0.0475  0.0883 -0.1272
24990W        W45270   4.944  10.489  14.618  0.1666  0.1201 -0.1812
24991W        W45271  11.765   6.734  11.797 -0.1118  0.0939  0.3003
24992W        W45272   0.212   6.709  15.212  0.1188 -0.2240  0.1082
24993W        W45273   4.814  18.718  14.491  0.0901 -0.2513  0.3276
24994W        W45274   5.152   3.175  10.974  0.4109 -0.1094  0.0571
24995W        W45275  10.176   3.334   1.303 -0.1011  0.1466 -0.0754
24996W        W45276  16.942   7.886   3.292  0.0763 -0.0348 -0.2674
24997W        W45277   1.968  17.883  12.174  0.1993 -0.2573  0.2004
24998W        W45278  18.432  12.175   2.502  0.1514  0.1714 -0.0960
24999W        W45279   8.902   8.461  13.190 -0.0710 -0.2871 -0.1891
25000W        W45280   5.200  15.977  11.363 -0.1860 -0.0491  0.0588
25001W        W45281  10.002  15.802  13.981 -0.1188 -0.1426 -0.1397
25002W        W45282  14.231   6.249  14.622 -0.1876 -0.0284 -0.0618
25003W        W45283   8.032   1.822   2.997 -0.3316  0.2665 -0.1494
25004W        W45284  14.636   9.971  12.530  0.3365 -0.0832 -0.1829
25005W        W45285  16.676  14.176   4.675 -0.2721  0.1103  0.0048
25006W        W45286   7.956  13.549   3.320  0.2540  0.1383 -0.2507
25007W        W45287   2.921   0.062  13.513 -0.0207  0.2744 -0.0282
25008W        W45288   4.975  15.499   3.797  0.1919  0.1361  0.1119
25009W        W45289  17.363  14.610  13.106 -0.1277 -0.2524  0.0134
25010W        W45290   1.898   9.759  12.882  0.2800  0.1148  0.0277
25011W        W45291   1.864  16.500  12.252 -0.1043 -0.0790  0.1090
25012W        W45292  16.193  16.090  12.985  0.3804 -0.0208  0.2619
25013W        W45293  14.659   6.628  14.453 -0.2051 -0.3791 -0.0413
25014W        W45294   8.571   9.782  10.888 -0.1604 -0.0981  0.0757
25015W        W45295  14.960  17.111  11.174 -0.3225  0.1534  0.2279
25016W        W45296  11.177   0.090  12.549  0.3203 -0.1485  0.0071
25017W        W45297  16.839   8.957  14.335  0.0457  0.2249  0.0229
25018W        W45298  13.996  16.902  14.504 -0.0650 -0.1295 -0.2083
25019W        W45299  14.520  12.376  11.748 -0.0666  0.1830  0.0640
25020W        W45300  11.798  10.772  13.347  0.0765 -0.0775 -0.0877
25021W        W45301  18.290  17.260   0.772  0.1191 -0.0534 -0.2497
25022W        W45302  17.950   4.518  12.558 -0.2367  0.1692 -0.1023
25023W        W45303  18.050   5.366   0.361  0.0829 -0.2143 -0.1385
25024W        W45304   9.094  16.476  12.308  0.1273 -0.0254  0.0732
25025W        W45305  16.759  18.437  13.847 -0.0171 -0.0090 -0.2121
25026W        W45306  11.892   1.315   3.785 -0.1404 -0.0244 -0.2621
25027W        W45307  12.079  14.610   3.343 -0.1860 -0.2328  0.2481
25028W        W45308  14.845   5.245   1.734 -0.0316  0.0299  0.1367
25029W        W45309  11.454   2.048  11.681 -0.0078  0.5133  0.1205
25030W        W45310  11.113  11.206   2.699  0.1120 -0.1981 -0.2351
25031W        W45311   2.840  18.018   3.410 -0.1347 -0.2844 -0.3417
25032W        W45312   1.712   8.948  14.065  0.0329 -0.1188  0.0724
25033W        W45313  11.762  17.800   1.423 -0.0724  0.0535 -0.3522
25034W        W45314  16.852   6.410  15.027  0.1329 -0.0523  0.1830
25035W        W45315  13.581   6.773   4.131 -0.0439  0.1680 -0.2155
25036W        W45316   2.333   8.077   0.470  0.0592 -0.0819 -0.1926
25037W        W45317   3.691   0.252   3.074 -0.5785  0.0968 -0.1027
25038W        W45318  10.550   8.344   1.245 -0.3521  0.1400  0.0186
25039W        W45319  17.627   1.163  13.729  0.2666  0.0414 -0.1282
25040W        W45320   8.732   6.019  15.340 -0.4637  0.0161 -0.0496
25041W        W45321   6.420   4.945  14.269 -0.0377 -0.0563 -0.3366
25042W        W45322  10.842   3.798  12.798  0.0951  0.1246 -0.0612
25043W        W45323  15.944   1.625   9.785  0.1255 -0.2077 -0.1914
25044W        W45324   7.006   0.509   3.173  0.0591 -0.1671 -0.0952
25045W        W45325   5.853   9.099   1.675  0.3312  0.0348  0.0141
25046W        W45326  15.224  16.015   3.965 -0.1371  0.2635 -0.0572
25047W        W45327   8.004   3.910  14.747  0.2492  0.3220  0.0272
25048W        W45328  10.190  15.374  13.446  0.1497  0.2200 -0.0044
25049W        W45329   7.587  10.029   3.117 -0.0352 -0.1057  0.3357
25050W        W45330  11.790  16.643  12.198 -0.2304  0.0673 -0.0127
25051W        W45331   4.961  10.926  12.339  0.1866 -0.2581 -0.1817
25052W        W45332  11.761  12.336  11.559 -0.4973  0.2546  0.0915
25053W        W45333   7.114  17.237  11.258  0.3244 -0.0378  0.0678
25054W        W45334   5.024   5.943   1.952 -0.1370 -0.1228  0.0365
25055W        W45335   6.485  15.756  12.374  0.2398 -0.1242  0.1297
25056W        W45336   1.435  10.967   3.517 -0.0255  0.1289 -0.1769
25057W        W45337  12.501   5.065   1.578 -0.2119 -0.1592  0.2194
25058W        W45338  13.274   5.593   3.845 -0.1170  0.0902 -0.0057
25059W        W45339   8.384   4.310  15.113 -0.2928  0.0066 -0.0727
25060W        W45340  13.379  11.823   3.063 -0.0169 -0.1428  0.2496
25061W        W45341   0.151   4.267   0.162  0.2500  0.1932 -0.0667
25062W        W45342  15.900   7.109   2.182 -0.2253  0.2228 -0.1054
25063W        W45343  16.538   0.669   0.057 -0.1745  0.2480 -0.1633
25064W        W45344   9.146  14.351   2.203 -0.1365 -0.0019  0.0975
25065W        W45345  16.754  13.723  14.773 -0.0597 -0.0058 -0.1869
25066W        W45346  11.534   1.427  14.824 -0.0033  0.0955  0.2122
25067W        W45347  18.504  15.620   4.322 -0.0585  0.0893  0.1066
25068W        W45348   8.474  16.090  14.864  0.3781  0.4676 -0.1486
25069W        W45349  18.270   1.313  11.104 -0.1058 -0.0355 -0.1686
25070W        W45350  17.826   0.632   1.026  0.0874 -0.1905  0.0388
25071W        W45351   8.457  10.887   0.853  0.1226  0.2892  0.1842
25072W        W45352  12.861   0.728  11.144 -0.0221 -0.2454  0.2523
25073W        W45353   4.364  11.079   3.016 -0.1024 -0.2710 -0.0109
25074W        W45354   9.399   0.790   1.785  0.1080  0.2212  0.0223
25075W        W45355   4.189  17.118  14.911  0.0665  0.0769 -0.2083
25076W        W45356  11.726  11.537  12.794 -0.3657 -0.0249 -0.2137
25077W        W45357   1.183   8.921   0.797 -0.3216 -0.0572  0.1334
25078W        W45358  12.901  12.322   0.951 -0.1952 -0.2749 -0.1819
25079W        W45359   2.990   2.568   0.041 -0.4382  0.0847 -0.2932
25080W        W45360   1.544   2.681   4.679 -0.0620 -0.1376  0.1065
25081W        W45361   6.976   5.521  14.936  0.4613 -0.1694 -0.1905
25082W        W45362  15.983  13.012  14.487  0.1785  0.2613  0.0240
25083W        W45363  17.870  17.486  12.156 -0.0266  0.2433  0.0766
25084W        W45364   7.277   0.799   2.285 -0.1719  0.2580  0.0017
25085W        W45365  18.577   6.896   0.270  0.1533 -0.2995 -0.0634
25086W        W45366   2.134  11.672   0.900  0.0913  0.1204  0.3526
25087W        W45367   6.463   3.575   1.223 -0.6657  0.1060  0.0771
25088W        W45368  12.375  13.723  14.793  0.1550 -0.1068  0.1716
25089W        W45369  17.552   7.041   1.034 -0.2943  0.2146  0.0533
25090W        W45370  17.122  11.848   4.107 -0.0229 -0.2825  0.0520
25091W        W45371   8.987   1.488  12.059  0.1657  0.3442 -0.1682
25092W        W45372   2.718  10.616  13.777 -0.0636  0.1301 -0.5401
25093W        W45373  13.255   6.639   1.872 -0.0083  0.2458 -0.3358
25094W        W45374   1.969  10.153   4.190  0.3226 -0.0406 -0.1531
25095W        W45375  16.945   2.356   0.700 -0.1989  0.0435  0.0304
25096W        W45376  15.937   2.946  12.662 -0.0304 -0.0620 -0.0906
25097W        W45377  17.083  15.521  13.408  0.0183 -0.2985 -0.1777
25098W        W45378  10.975   9.203   3.714 -0.0561  0.1599  0.0819
25099W        W45379   4.107  12.272  13.974 -0.2785 -0.0809  0.0250
25100W        W45380   0.643   5.341   1.197  0.0789  0.0389  0.1946
25101W        W45381  10.122   7.980  12.877 -0.1681  0.2959 -0.0430
25102W        W45382   5.545  17.335  11.465  0.0492 -0.0181  0.1431
25103W        W45383  14.653   1.090   0.920 -0.2180 -0.1080  0.0309
25104W        W45384   5.581   5.970  13.064 -0.3510  0.0848 -0.1994
25105W        W45385  13.578   6.345  13.267 -0.1176  0.0448 -0.1230
25106W        W45386  16.299  13.576  13.138  0.1022  0.0858 -0.0693
25107W        W45387  14.841  17.054   4.323  0.0235 -0.1172  0.1105
25108W        W45388   0.550  16.706  11.046 -0.1677 -0.1344 -0.1338
25109W        W45389  15.382  18.341  12.822 -0.0183  0.0869  0.0145
25110W        W45390   9.143   8.993  13.143  0.4543 -0.0168 -0.1257
25111W        W45391   3.220  15.260  12.412 -0.0935  0.1563  0.3244
25112W        W45392   2.936   8.708  14.026 -0.0962 -0.2136  0.1615
25113W        W45393   9.435  14.814   1.407 -0.0364 -0.0948  0.0978
25114W        W45394  13.728   3.236  15.077  0.2183  0.0617  0.5877
25115W        W45395   0.646   6.275  12.967  0.1315  0.1748 -0.2755
25116W        W45396   3.055  16.314   2.917 -0.1949  0.0069  0.3530
25117W        W45397   1.742   8.785  14.628  0.0048 -0.1500 -0.0738
25118W        W45398  11.749  13.162   0.014 -0.0668  0.3954  0.1977
25119W        W45399  13.887   9.268   1.921  0.0076 -0.2917 -0.1830
25120W        W45400   0.637   4.332   1.526 -0.1334 -0.0629  0.1764
25121W        W45401   8.238  14.147   1.605  0.0177 -0.2371  0.3423
25122W        W45402   9.250   6.678   0.803 -0.0016  0.1076  0.1158
25123W        W45403   8.896  16.263  10.908  0.0454 -0.0149 -0.0052
25124W        W45404  14.075   5.561  14.985  0.3533  0.0711 -0.4034
25125W        W45405   5.945   0.760  14.195 -0.1576 -0.1826 -0.1211
25126W        W45406   5.494  10.015   3.806 -0.2591 -0.0660  0.1108
25127W        W45407   3.485   2.961   1.866 -0.1235 -0.0538 -0.0830
25128W        W45408  12.336   2.600   3.485  0.2307  0.3530 -0.2396
25129W        W45409   5.182  15.162  13.653  0.0302 -0.2536 -0.2744
25130W        W45410   5.502  16.372  13.915 -0.2368 -0.0011 -0.0577
25131W        W45411  12.503   9.620  12.185  0.1098 -0.0511  0.1561
25132W        W45412   7.137  13.702   2.132 -0.0999 -0.0412 -0.0877
25133W        W45413  12.060  17.590   1.784  0.2593  0.0806 -0.0024
25134W        W45414  15.927  11.468  14.583  0.2301  0.1867  0.0330
25135W        W45415  17.118   2.613  12.146  0.1641  0.2066  0.2815
25136W        W45416  12.276  16.589   0.644  0.0174  0.2736  0.3174
25137W        W45417   3.732   4.517   2.714 -0.2455 -0.4164 -0.2626
25138W        W45418  13.657  10.576   2.246 -0.1878  0.1851 -0.0984
25139W        W45419   5.426   9.817   4.299 -0.0068  0.1967  0.2834
25140W        W45420   8.931  11.088  11.462  0.2068  0.2952 -0.1453
25141W        W45421  11.492   2.798   2.713  0.1245 -0.0087  0.1683
25142W        W45422   6.893  10.102  14.477 -0.2793  0.2342  0.1334
25143W        W45423  18.275   9.760   1.227  0.0612  0.1156  0.1229
25144W        W45424   0.102  15.843  11.320 -0.2513  0.1928  0.0857
25145W        W45425  18.399  14.696   2.634 -0.1701  0.1564  0.1601
25146W        W45426  10.780   8.480   4.574  0.0394  0.0616 -0.0664
25147W        W45427  10.126   4.107  15.067  0.1408  0.0074 -0.4039
25148W        W45428  12.237  17.642  14.247  0.2375 -0.0212  0.1254
25149W        W45429  14.921  18.095   1.082  0.1035  0.3903  0.1649
25150W        W45430   0.652   0.985   4.488 -0.2234 -0.0388 -0.1967
25151W        W45431  13.265   8.634   2.458 -0.0367 -0.3520 -0.2071
25152W        W45432   1.834  12.151  14.896  0.0362  0.2144  0.0623
25153W        W45433   8.034  16.366   1.189  0.0809 -0.0817  0.1876
25154W        W45434   4.973   0.826   1.407  0.3778 -0.1131 -0.1077
25155W        W45435  18.178   8.531   2.188 -0.0038 -0.1986 -0.0057
25156W        W45436   2.555   1.718  14.261  0.2059  0.0807  0.1924
25157W        W45437   1.227   5.840   1.714  0.2627 -0.0637  0.2239
25158W        W45438  16.808   1.248   0.096  0.1663  0.0931 -0.1238
25159W        W45439   1.901  13.214  13.703  0.0697 -0.2433  0.0852
25160W        W45440  16.511   0.272   2.388  0.1118 -0.1168 -0.0130
25161W        W45441   4.409  15.723   9.958 -0.2193  0.0292  0.2401
25162W        W45442  13.250   9.875  11.479 -0.0642  0.0155 -0.0419
25163W        W45443  10.379   2.698   1.947 -0.2284  0.0028  0.2023
25164W        W45444   2.697   1.257   0.163  0.1330  0.2180  0.1951
25165W        W45445  12.547   0.143   3.349  0.0286 -0.1778  0.1383
25166W        W45446   8.845  12.866   4.785  0.2178 -0.0030 -0.1594
25167W        W45447   4.379  17.994  14.494  0.0991 -0.2900 -0.0338
25168W        W45448  14.396  15.192   3.834 -0.1481  0.1367 -0.2425
25169W        W45449  10.790  16.312  14.010  0.0285  0.2359 -0.0890
25170W        W45450   6.064  15.145  14.888 -0.1224  0.0863 -0.2701
25171W        W45451  13.821  14.679   5.421 -0.0840 -0.0806  0.0738
25172W        W45452  12.924  18.003   4.106  0.2477 -0.3492  0.0553
25173W        W45453  14.637   7.377   3.354  0.2409 -0.2921  0.0839
25174W        W45454  13.245   9.271   4.658 -0.0741  0.0440 -0.0942
25175W        W45455   4.022  10.466  13.684 -0.2482  0.2995  0.3021
25176W        W45456  16.630   7.083  11.549  0.1895 -0.1924  0.2165
25177W        W45457  12.590   8.301   3.855  0.0829 -0.0173  0.2017
25178W        W45458   1.629   8.731   0.513 -0.2556 -0.2862 -0.0630
25179W        W45459  17.157   7.141   4.548 -0.1721  0.2394 -0.3128
25180W        W45460  10.380  17.287   3.055  0.0359  0.1014  0.0423
25181W        W45461  12.371  12.300  10.497  0.1092  0.4194  0.2005
25182W        W45462   4.978   2.692  13.100  0.0689  0.3455 -0.1983
25183W        W45463  11.054  16.348   1.385  0.0009  0.2134  0.0846
25184W        W45464   9.826   0.967  15.121  0.0151  0.3073 -0.1561
25185W        W45465   4.220   1.308  13.749  0.1746  0.1137 -0.0397
25186W        W45466  16.495  15.739  13.220 -0.0497 -0.1037  0.2522
25187W        W45467  13.853  16.104   0.885  0.1553 -0.0541 -0.0372
25188W        W45468   8.734   0.318  11.346 -0.4349 -0.0613  0.2097
25189W        W45469   9.809   4.016  14.671  0.1571 -0.1680  0.2602
25190W        W45470   8.195   5.800   4.123  0.0107  0.1325 -0.0215
25191W        W45471   8.454   2.005  11.291  0.1233  0.0586 -0.0331
25192W        W45472  15.323  10.745  13.464 -0.0610 -0.1254 -0.1664
25193W        W45473   2.191  10.448   4.962  0.1337  0.0010 -0.4437
25194W        W45474   5.566  14.810  11.263 -0.0948  0.3528 -0.1343
25195W        W45475   5.919  16.204   4.573  0.2043 -0.0763 -0.2015
25196W        W45476   4.862   0.338   0.588 -0.1015 -0.0012  0.0529
25197W        W45477   8.689   2.432  11.663 -0.0472 -0.1331  0.2091
25198W        W45478   8.626  14.942  12.503  0.1568  0.1638 -0.0334
25199W        W45479   0.874   7.486  12.265 -0.0271  0.0342 -0.6243
25200W        W45480   8.560  18.151   1.670 -0.0620 -0.0726  0.0256
25201W        W45481   9.292  12.921   1.318  0.1096 -0.3687  0.3853
25202W        W45482  16.108   9.786  13.650 -0.1008 -0.0412  0.2626
25203W        W45483  17.917   6.665   1.794 -0.2049  0.1111 -0.3214
25204W        W45484   0.160   7.712  12.324  0.0659 -0.0227  0.0827
25205W        W45485  16.790   0.696   0.632 -0.1689  0.1324  0.2064
25206W        W45486  16.945  18.491   0.787  0.3201 -0.5102  0.0689
25207W        W45487  14.303  16.995   0.828 -0.1433  0.1319  0.0443
25208W        W45488  15.691   0.973   3.347  0.3019 -0.0260  0.0957
25209W        W45489   1.511   4.163  14.422  0.1180  0.1921  0.4207
25210W        W45490   6.357  12.620   1.108 -0.2861  0.1108 -0.1674
25211W        W45491  18.594  14.993  13.760  0.0507 -0.2712 -0.0132
25212W        W45492  18.104  16.775   3.863 -0.1293  0.4057  0.0354
25213W        W45493   5.790  12.624   1.017 -0.0364 -0.0313 -0.0595
25214W        W45494   6.820  15.571   1.312 -0.0046  0.0613 -0.3174
25215W        W45495   5.099   6.391   3.143  0.1522  0.2099  0.1507
25216W        W45496  14.772   1.190  15.387 -0.0709  0.0785 -0.1205
25217W        W45497  17.740  11.468  11.638  0.2662  0.0159 -0.4228
25218W        W45498   2.379  15.907   3.070  0.1476  0.1932  0.0530
25219W        W45499   6.678  11.828  15.102 -0.1426 -0.2691 -0.0557
25220W        W45500  16.354   6.627  12.618 -0.1624 -0.1287 -0.0655
25221W        W45501   9.151  16.899  15.336 -0.0512  0.2501  0.2071
25222W        W45502   4.453  12.693  11.684  0.0507  0.0542  0.3393
25223W        W45503   6.619   6.070   0.590 -0.1669  0.1092 -0.0851
25224W        W45504  13.446   8.478   3.037  0.0606 -0.3875  0.3209
25225W        W45505  12.699  11.024  12.740 -0.0968  0.1356  0.4644
25226W        W45506   0.852   7.757   3.552  0.3166  0.1742  0.2731
25227W        W45507  14.799   9.692  15.178 -0.3370 -0.0433 -0.2937
25228W        W45508   8.315  10.712  14.247  0.0888  0.0895  0.1334
25229W        W45509   7.904   6.116  13.422 -0.0497  0.0423 -0.1671
25230W        W45510   0.399  14.915  14.618  0.0534  0.2805  0.1871
25231W        W45511   9.825   8.887   3.822  0.0967  0.1161 -0.0979
25232W        W45512   7.357   3.405  11.649  0.0499 -0.0566 -0.0104
25233W        W45513  11.893  14.445   3.848 -0.0553  0.1209 -0.1141
25234W        W45514  15.390  12.895   1.193  0.1715 -0.2523 -0.0658
25235W        W45515  12.484  11.806  11.535 -0.1292 -0.2013 -0.1940
25236W        W45516   4.989   4.141  14.960 -0.0531 -0.1781 -0.2666
25237W        W45517  13.868  14.465   3.851 -0.1429 -0.0695 -0.1892
25238W        W45518  14.126   5.585   3.322  0.1146  0.1490 -0.1132
25239W        W45519   7.972   4.700   2.782 -0.2120 -0.3946 -0.0206
25240W        W45520   6.254   7.899  11.697 -0.0485 -0.2860 -0.0100
25241W        W45521  16.146   3.129  15.290  0.3151  0.2054  0.4449
25242W        W45522   8.211   8.187  11.595 -0.2148  0.1630  0.1660
25243W        W45523  15.968   6.381  14.447  0.0262 -0.0181  0.2201
25244W        W45524  12.433  15.385   0.825  0.3339 -0.1649 -0.1508
25245W        W45525   8.910   6.865   2.522 -0.2080 -0.1217  0.0652
25246W        W45526  17.500  18.050   2.651  0.1037  0.1727  0.1433
25247W        W45527   9.000  11.455   3.015 -0.0485  0.2328 -0.0595
25248W        W45528   7.256  13.203   0.865 -0.1836 -0.0126  0.3445
25249W        W45529  13.317   2.677  14.340  0.1820  0.1809  0.0236
25250W        W45530  16.265  17.015   4.139  0.2015 -0.1276 -0.0927
25251W        W45531  17.841   1.101  12.685  0.2710 -0.1842 -0.1248
25252W        W45532  14.068   0.483  13.335 -0.1025 -0.0818 -0.0492
25253W        W45533   7.124   8.668  15.148 -0.0872 -0.2254  0.1901
25254W        W45534   0.690   4.960  13.388  0.1728 -0.2964 -0.0922
25255W        W45535   3.973   0.542  14.304 -0.1333  0.0751 -0.0324
25256W        W45536   0.521   8.071   3.285  0.1958 -0.1588  0.0922
25257W        W45537   7.922   9.428  13.542 -0.0823  0.0580  0.1623
25258W        W45538   1.483  16.476  15.283  0.1005 -0.1337  0.1498
25259W        W45539   4.475   2.827   3.195  0.0177 -0.3931 -0.3004
25260W        W45540  16.816   6.919   2.052 -0.2755  0.4331 -0.0185
25261W        W45541   5.546   3.853   2.232  0.1318 -0.1925 -0.0447
25262W        W45542  15.517  16.536   0.514  0.1120 -0.1160 -0.2890
25263W        W45543   8.001  12.681   0.877  0.3934 -0.0608 -0.0894
25264W        W45544  16.482  11.710   2.373 -0.2209  0.0069 -0.0892
25265W        W45545   4.241   7.923   3.156 -0.1292  0.1109 -0.0944
25266W        W45546  10.629   8.240   3.181  0.1287 -0.1472  0.0289
25267W        W45547   6.799   1.420   3.423 -0.0317  0.0196 -0.1334
25268W        W45548  17.489  18.202   3.193 -0.1652  0.3119 -0.1999
25269W        W45549   3.092   2.490  10.050 -0.3417  0.0673  0.3432
25270W        W45550   1.624  17.505   3.422  0.0245  0.0535  0.3571
25271W        W45551  16.978   8.737   0.635  0.3913  0.0636 -0.2028
25272W        W45552   6.687   3.958  14.661  0.2322 -0.0585  0.4682
25273W        W45553  11.633   9.633   2.538 -0.0889  0.2130  0.0518
25274W        W45554   1.127  14.215   0.258 -0.0072 -0.2887 -0.0367
25275W        W45555   7.166   7.845   0.787 -0.1031  0.0852 -0.0403
25276W        W45556   3.702  12.636   3.045  0.1213 -0.1179  0.0733
25277W        W45557   9.018   9.493   4.123  0.2637  0.3465 -0.1380
25278W        W45558   5.312   8.943   3.900  0.2361 -0.0621  0.0410
25279W        W45559   4.498  17.151  13.624 -0.1240  0.1546  0.1105
25280W        W45560  18.457   5.403  12.386  0.1402 -0.0143 -0.1041
25281W        W45561   4.174   9.290   1.070 -0.1015  0.1110  0.1500
25282W        W45562  13.816  17.306   4.937  0.1867 -0.0911  0.0840
25283W        W45563  15.504   7.823   4.246  0.2204  0.0029  0.2277
25284W        W45564   7.217   0.812   1.768  0.5114  0.0088  0.1504
25285W        W45565   0.828   1.619  15.309 -0.0342 -0.0690  0.0165
25286W        W45566  17.067  14.779  14.980 -0.1724  0.3322  0.0205
25287W        W45567  16.409   5.211  12.414 -0.1468  0.2108  0.1029
25288W        W45568   6.651   4.798   1.779 -0.2415 -0.2166 -0.1999
25289W        W45569   3.495   0.530   4.068 -0.1490 -0.1311 -0.2193
25290W        W45570   5.288  12.707   1.318 -0.2054  0.0861 -0.2150
25291W        W45571  17.691   9.455   0.527 -0.4310  0.2173  0.2314
25292W        W45572   6.890   3.633   2.297 -0.1452  0.0634  0.0536
25293W        W45573  11.778  17.003  15.315  0.0244 -0.1709  0.1179
25294W        W45574   7.381   7.925  12.992 -0.0475  0.1958  0.0480
25295W        W45575   6.506  13.928   3.459  0.1422 -0.1214 -0.1922
25296W        W45576   6.937   7.685  14.298 -0.1483 -0.0185 -0.2920
25297W        W45577   0.765   9.655   3.055 -0.1611  0.1349  0.0244
25298W        W45578  14.206  18.384   0.182 -0.0148 -0.2079  0.0768
25299W        W45579  14.269   8.191   3.564 -0.2496 -0.1567  0.1096
25300W        W45580  12.707   0.877   4.738 -0.0949 -0.1664 -0.0888
25301W        W45581   2.154  13.318   3.102  0.0582 -0.0666 -0.3639
25302W        W45582   0.949   2.141  11.387 -0.0590 -0.1125 -0.0056
25303W        W45583  10.408  10.393  13.943  0.2271  0.1297  0.0016
25304W        W45584  14.778   8.213   3.795  0.0963  0.3226 -0.2979
25305W        W45585  10.154   2.545   2.363 -0.0823  0.2092  0.1470
25306W        W45586   4.764  13.495   4.026  0.0573 -0.1009 -0.2723
25307W        W45587   0.159   1.084  13.498  0.0734 -0.3857 -0.2236
25308W        W45588  14.240  10.616   0.940  0.0328 -0.0615  0.3092
25309W        W45589  14.103  15.624   0.794 -0.3122  0.0979  0.0254
25310W        W45590   9.101   9.385   0.616  0.0354 -0.0673  0.0779
25311W        W45591   4.905  11.741   1.498 -0.0377  0.0862  0.0452
25312W        W45592  13.034  10.514  10.974  0.1587 -0.1173  0.1522
25313W        W45593   2.723   4.322  13.565 -0.0043  0.4025 -0.1043
25314W        W45594  15.783   5.915   0.715  0.0564 -0.2112 -0.2605
25315W        W45595  18.209  16.024  14.857 -0.4056  0.1563  0.1839
25316W        W45596  14.020  13.285  12.475 -0.1255 -0.1284 -0.0041
25317W        W45597  14.808   9.970   0.400  0.2724  0.0980  0.0083
25318W        W45598   0.944   9.257  13.652 -0.3505  0.0760  0.0406
25319W        W45599   4.319  12.932  13.333  0.3958 -0.2613 -0.1061
25320W        W45600   9.950   1.170  13.647  0.0241  0.3353 -0.1624
25321W        W45601  10.623   4.393  12.340 -0.0337 -0.2935 -0.0235
25322W        W45602   0.907   2.726  10.812 -0.0372 -0.0524  0.0738
25323W        W45603   1.967   6.443  13.673 -0.1148  0.1380  0.2556
25324W        W45604   4.190  14.257   1.245  0.2685 -0.1767 -0.1041
25325W        W45605  14.368   3.926  12.776  0.1946 -0.2124  0.2073
25326W        W45606   9.163   5.878   3.842 -0.2740 -0.0998  0.0768
25327W        W45607  15.522  13.589  10.426  0.1287 -0.0033 -0.3129
25328W        W45608  13.237   8.717   0.619 -0.3352  0.0026  0.0366
25329W        W45609   3.594  15.826  11.634 -0.2884 -0.1656  0.0524
25330W        W45610   6.243   5.467   2.383 -0.3562  0.0105  0.0719
25331W        W45611   3.380   8.954  14.066  0.0094  0.1834 -0.0239
25332W        W45612  18.153   6.564  12.530 -0.1221 -0.1651  0.1726
25333W        W45613   8.845  13.323  14.137  0.1080 -0.2300 -0.2121
25334W        W45614  14.198  16.111   2.591  0.0236  0.0454  0.1259
25335W        W45615   9.120  14.934   0.105 -0.0166  0.3282  0.1027
25336W        W45616  16.997  14.204  14.946 -0.0614  0.1817  0.0330
25337W        W45617   1.859   3.111  12.686 -0.1347  0.2184  0.1741
25338W        W45618   9.063  16.039  11.943 -0.1595 -0.1240 -0.2683
25339W        W45619  13.232   1.542  14.896  0.3390 -0.0062 -0.1631
25340W        W45620   6.444   0.967   1.379  0.1020 -0.0306 -0.0095
25341W        W45621   8.242  16.040  14.424 -0.0709 -0.0607 -0.0855
25342W        W45622   4.175   8.959  14.644  0.0351 -0.1261 -0.1147
25343W        W45623  13.289  16.732   3.099  0.5471  0.1069 -0.2651
25344W        W45624   5.123  11.661   3.076 -0.1167 -0.0854 -0.2111
25345W        W45625  11.094  17.123  13.211 -0.0376  0.0963 -0.0394
25346W        W45626  15.458   0.206  13.534 -0.1741  0.0764  0.0254
25347W        W45627   4.124  12.781   3.917 -0.0610  0.2426  0.1302
25348W        W45628   8.137   5.992  12.413 -0.0412  0.2238  0.0765
25349W        W45629  17.341   0.424   0.371  0.3105 -0.2193 -0.1920
25350W        W45630  11.786   6.357   3.532  0.0266  0.1544 -0.4075
25351W        W45631  10.936  16.697   1.055  0.1109 -0.1829  0.3236
25352W        W45632   8.968  18.265   3.720 -0.1965  0.0812  0.1248
25353W        W45633   2.237   2.706   1.709  0.1181 -0.2796  0.1565
25354W        W45634  14.595   4.380   0.614  0.2643 -0.1209  0.0845
25355W        W45635   8.624   9.296  14.390  0.0266 -0.0572 -0.2364
25356W        W45636   9.054   2.949  11.208 -0.5440  0.2990 -0.1620
25357W        W45637   0.573   6.003  14.595 -0.1127 -0.1249  0.1282
25358W        W45638   4.973   1.697   1.060 -0.0143  0.0528  0.2118
25359W        W45639  10.524   5.206  14.025 -0.0048 -0.2101  0.0480
25360W        W45640   6.316  17.312  12.876  0.0709  0.3539 -0.3067
25361W        W45641  12.947  11.713   2.963  0.1666  0.3471  0.0950
25362W        W45642   4.437   3.184   2.611 -0.1355  0.0579  0.0208
25363W        W45643  12.577   7.994  14.529 -0.0441 -0.2053 -0.0272
25364W        W45644   1.086   1.062  11.904  0.3344 -0.0493  0.1140
25365W        W45645   8.033   8.176  12.458  0.1958  0.1722  0.5699
25366W        W45646  16.758   3.257   3.704  0.0869 -0.1871 -0.0309
25367W        W45647   5.335  10.104   5.833 -0.0175 -0.1103 -0.0227
25368W        W45648  13.333  14.286   0.736  0.0129  0.0984  0.1553
25369W        W45649   5.015   4.480   3.701  0.0077 -0.2074 -0.1055
25370W        W45650  12.902  13.133   3.643 -0.0727 -0.2289  0.0421
25371W        W45651  12.326   7.252   0.550  0.0380  0.1525 -0.0648
25372W        W45652   1.874  10.637  11.247  0.0078  0.0423  0.1942
25373W        W45653   6.916  10.406  10.245 -0.3780  0.0702  0.1079
25374W        W45654  13.953   2.653   0.181 -0.0603 -0.1539  0.3749
25375W        W45655   5.255   0.338  14.397  0.0130  0.2483 -0.2123
25376W        W45656  14.412   4.951  13.710  0.1322  0.0711 -0.2099
25377W        W45657  10.397  11.674   4.863  0.0806  0.0664 -0.0643
25378W        W45658   0.554   8.784   4.608  0.1063  0.1833 -0.2296
25379W        W45659   5.341  11.718   3.918  0.3915  0.0034 -0.2063
25380W        W45660   8.243   1.307  13.317 -0.0687  0.0041 -0.0292
25381W        W45661  17.669   5.098   3.915 -0.1339  0.0614 -0.0663
25382W        W45662   6.956   5.340   0.089 -0.3504 -0.1770 -0.2055
25383W        W45663   4.668  10.116  13.804  0.1289  0.1535  0.0768
25384W        W45664   9.896  18.628   0.289 -0.0299  0.0688  0.3305
25385W        W45665   3.506  12.435   2.500 -0.3535  0.0414  0.1383
25386W        W45666  15.710  18.228   1.196 -0.2127 -0.1559 -0.2383
25387W        W45667  11.353   2.362   3.643 -0.0745  0.1299  0.0313
25388W        W45668   2.173  18.047   3.390  0.1957  0.1970  0.2861
25389W        W45669   9.565   4.568   0.182  0.2640 -0.0211  0.0758
25390W        W45670   6.932  18.280   3.034 -0.0186 -0.0158 -0.0243
25391W        W45671   1.531   8.553  11.930  0.1654  0.2824 -0.1707
25392W        W45672  13.495  10.711  11.690  0.3041 -0.0386 -0.0556
25393W        W45673   1.050  14.851   3.168  0.1916  0.0770  0.2616
25394W        W45674  10.071   9.210  14.657 -0.2936  0.1034 -0.1403
25395W        W45675  10.320   2.861  14.358 -0.1423  0.0792  0.0795
25396W        W45676  17.366  16.588  11.697  0.2594  0.1822 -0.3109
25397W        W45677   3.369   5.161  14.032 -0.0103  0.0142 -0.3842
25398W        W45678  14.648  18.154   4.672  0.0583 -0.0790  0.2049
25399W        W45679  10.687  10.532  14.356 -0.2005  0.1933 -0.2354
25400W        W45680   5.514   8.645  14.193  0.0258  0.0235  0.1627
25401W        W45681  16.502  18.700   0.889  0.1606 -0.0893  0.2535
25402W        W45682   3.737   5.823  13.349 -0.0297  0.1266 -0.1008
25403W        W45683  15.486  15.530   0.966 -0.1366  0.1315 -0.1185
25404W        W45684  13.764   4.643   3.121 -0.0395 -0.0304 -0.0416
25405W        W45685   1.473  12.702  11.801  0.2271  0.1311  0.2186
25406W        W45686   9.509   8.544  11.741 -0.2757  0.1024 -0.0533
25407W        W45687   2.958  15.630   2.313  0.0778 -0.1200  0.2452
25408W        W45688  10.039   7.415  14.747  0.2214 -0.0794  0.1318
25409W        W45689  17.963   4.333  14.051  0.0907 -0.0377 -0.1681
25410W        W45690   3.797   4.180  14.863  0.1712 -0.0916  0.2118
25411W        W45691  14.586   7.659   0.658 -0.0183 -0.0773 -0.0704
25412W        W45692   7.872   1.754  13.634  0.0494  0.0227  0.0887
25413W        W45693  13.970  16.904   2.162 -0.0175 -0.0767  0.0803
25414W        W45694   9.029   6.384   4.314 -0.0328 -0.4354 -0.0695
25415W        W45695   7.925  14.572   3.510 -0.2571  0.2318  0.1430
25416W        W45696   1.573   3.295  12.244 -0.1654 -0.2540  0.1800
25417W        W45697  18.350  16.382  14.274  0.3533  0.0839 -0.0283
25418W        W45698  12.720  13.726  11.689  0.2086  0.4318 -0.3143
25419W        W45699  16.702   0.141   1.787  0.2265  0.0925 -0.0758
25420W        W45700  13.949   0.933   3.762 -0.0139  0.0361 -0.0401
25421W        W45701   9.809   5.640  14.629 -0.3066  0.0349  0.0909
25422W        W45702   3.962   9.484  14.625  0.1540 -0.1459 -0.1941
25423W        W45703  16.549   1.112  14.622 -0.0041  0.0102 -0.1935
25424W        W45704   2.729   6.967  11.156 -0.1704  0.5091  0.0232
25425W        W45705   5.773   5.457  13.050  0.2494  0.1115 -0.0397
25426W        W45706  17.282   4.322  13.478  0.0945  0.1649 -0.0219
25427W        W45707  16.673  11.731  13.697  0.1294 -0.1022 -0.0974
25428W        W45708   7.241   5.544  14.033 -0.0814  0.2980 -0.1661
25429W        W45709  17.435   4.479  11.127  0.1530  0.0053  0.1378
25430W        W45710   3.815   4.938   2.405 -0.0259 -0.1931 -0.1277
25431W        W45711   3.736  12.260  13.638 -0.0746 -0.3628 -0.0680
25432W        W45712   7.322  17.078  10.845 -0.2016 -0.1177  0.1530
25433W        W45713  16.307   7.251   4.503 -0.0394  0.0650 -0.0322
25434W        W45714  17.504   9.089  12.435  0.1632  0.2007 -0.2360
25435W        W45715   7.170   5.789   2.417 -0.1475 -0.2883 -0.1009
25436W        W45716   7.873   9.968   0.747  0.0294 -0.0012 -0.2438
25437W        W45717   3.732  15.868   1.233 -0.2616  0.1239 -0.0298
25438W        W45718   3.757  12.673   4.729 -0.0032  0.0471  0.3020
25439W        W45719   2.011   1.258   2.295 -0.1059  0.1008  0.5007
25440W        W45720   1.887   0.809   1.454 -0.3527 -0.1184  0.1408
25441W        W45721   4.751   7.142   3.850  0.1230 -0.1154 -0.1668
25442W        W45722   0.438  10.530  14.980 -0.0027  0.1494 -0.4049
25443W        W45723   1.265  16.014  11.700  0.0591 -0.2196 -0.2419
25444W        W45724   9.662   9.822   3.804 -0.1605 -0.2697 -0.0283
25445W        W45725   4.976  12.988   3.733  0.0207 -0.1589 -0.1725
25446W        W45726   7.076   5.095  13.943  0.2318  0.0066  0.2578
25447W        W45727  12.137  12.001  14.558 -0.0199  0.4338 -0.1177
25448W        W45728   6.639   8.265  12.467 -0.1258  0.1601  0.1799
25449W        W45729  12.897   7.449  13.823  0.0278 -0.0417 -0.0632
25450W        W45730   2.072   2.869  14.650 -0.0237  0.0448 -0.1998
25451W        W45731  13.673  14.912  12.941  0.1507 -0.0071  0.2612
25452W        W45732   0.691  11.609  13.648 -0.0624  0.0415 -0.0791
25453W        W45733   6.368   9.934   2.264  0.1582  0.2647 -0.2532
25454W        W45734  10.591   3.344  12.530 -0.0586  0.0067 -0.1330
25455W        W45735   0.873   7.406  13.328 -0.1348 -0.2062  0.0859
25456W        W45736  14.640   9.603   2.981  0.0671 -0.1842  0.0706
25457W        W45737  17.787  16.980   4.478  0.2543  0.1165  0.0238
25458W        W45738   8.789  14.465   0.843  0.1040 -0.0567  0.1375
25459W        W45739  17.050   0.251  14.664 -0.4097 -0.3110 -0.0701
25460W        W45740   4.936   0.010   1.810  0.2360  0.2195  0.2752
25461W        W45741  15.913   9.826  13.107  0.1276 -0.1829 -0.0159
25462W        W45742   6.240   1.666  12.232 -0.2063  0.0874  0.0200
25463W        W45743   9.217   8.715  12.251 -0.2838 -0.0071  0.1758
25464W        W45744  15.923  12.250   4.549 -0.0776 -0.2096  0.0393
25465W        W45745  17.842  18.517  11.698  0.1534  0.1174 -0.1245
25466W        W45746  16.263   4.626   5.089 -0.0907  0.0571 -0.1586
25467W        W45747   4.993  18.287  13.578 -0.1213  0.1672  0.0913
25468W        W45748  17.718  16.450   3.988 -0.1889  0.0527  0.0078
25469W        W45749  10.270   5.341   0.352 -0.0858 -0.0492 -0.3121
25470W        W45750   3.827   2.410  13.781  0.0841 -0.2222 -0.3272
25471W        W45751   9.118  13.454   0.743 -0.1094 -0.2827 -0.1651
25472W        W45752  17.242  16.178  15.229  0.2394 -0.0764  0.1148
25473W        W45753  16.086  17.488   3.899 -0.5010  0.0645  0.2385
25474W        W45754  14.537  15.145   0.670 -0.1366  0.2190  0.0269
25475W        W45755  15.842  18.128  11.854 -0.0052  0.1274 -0.0537
25476W        W45756   8.151   1.669  14.770  0.1875  0.2321 -0.0298
25477W        W45757   9.691  13.415  14.619  0.0762  0.2199  0.0578
25478W        W45758  17.017  10.486   3.834 -0.1762  0.1928 -0.1049
25479W        W45759   3.974  13.292   3.835 -0.1417 -0.1059 -0.0079
25480W        W45760   6.902   1.854  14.446 -0.0785 -0.0310 -0.2121
25481W        W45761  15.697   3.145   3.081 -0.0159 -0.0082  0.2860
25482W        W45762   3.355   2.208  12.427 -0.1846  0.0140  0.0693
25483W        W45763  10.005   1.359  12.190 -0.1338  0.1280 -0.1250
25484W        W45764   6.395  17.461   1.433  0.3743 -0.1488 -0.3136
25485W        W45765  17.276   7.825   2.623 -0.3231 -0.1119 -0.0379
25486W        W45766   3.287   8.430  11.722  0.0737  0.0803  0.1948
25487W        W45767  17.070   0.553  15.297 -0.2318  0.3093 -0.2931
25488W        W45768  12.831  18.581   0.852 -0.0580 -0.1137 -0.0262
25489W        W45769  17.491   5.402   1.823 -0.1142  0.1484 -0.0423
25490W        W45770   1.188  18.259  12.514 -0.1667  0.2277  0.1440
25491W        W45771  13.117   2.225   2.320  0.1753  0.0631  0.2168
25492W        W45772  17.410   9.940  14.574  0.0988 -0.2415 -0.0868
25493W        W45773  10.694  12.247   0.732 -0.1151 -0.1080 -0.1724
25494W        W45774   3.342  17.991  11.288  0.0999 -0.1545 -0.1370
25495W        W45775   7.265  12.841   3.790  0.1030  0.1846  0.7345
25496W        W45776  10.137  16.345  12.703  0.1094  0.1087 -0.2493
25497W        W45777   9.983   4.225   1.904 -0.1631 -0.0699  0.3675
25498W        W45778   1.310  14.808  13.993 -0.0788 -0.0081 -0.0074
25499W        W45779  13.001  11.054  13.185  0.0212 -0.0151  0.0157
25500W        W45780  17.287   7.386  12.025  0.2926  0.1460 -0.1849
25501W        W45781   5.455  14.927  14.867  0.1315  0.1119  0.0273
25502W        W45782  15.700   1.327   3.658 -0.0077 -0.1080  0.0134
25503W        W45783  11.546   1.020   2.482  0.1996 -0.1119  0.0705
25504W        W45784   9.594  10.162  14.479 -0.0643  0.1174  0.3131
25505W        W45785   8.643  14.988  15.024  0.1183 -0.1623  0.0990
25506W        W45786  14.249  13.527   2.575  0.1116 -0.0079  0.1444
25507W        W45787   8.115  12.283   2.043 -0.0162  0.3411  0.1697
25508W        W45788   7.734   4.228  12.547  0.0496 -0.0654 -0.2876
25509W        W45789   8.780  14.962  12.987 -0.1640 -0.3750 -0.2588
25510W        W45790  17.052  17.104  12.320  0.1775 -0.3803 -0.0183
25511W        W45791  15.554  15.413   3.278  0.0147 -0.0587  0.1721
25512W        W45792  11.867   7.749  12.860  0.2736 -0.0520 -0.0507
25513W        W45793   8.149  15.537   1.707 -0.0385 -0.0594 -0.4413
25514W        W45794   2.212   7.816   1.313  0.3421  0.0359 -0.2365
25515W        W45795   0.510  14.116   3.855 -0.2570  0.2762  0.0533
25516W        W45796  12.772  12.468  10.919  0.1594 -0.2345 -0.0327
25517W        W45797   9.407   7.506   5.012 -0.1418 -0.2091  0.2542
25518W        W45798   6.282  15.446   3.189  0.3703 -0.2305 -0.0605
25519W        W45799  17.566   7.512   4.301 -0.1155 -0.0382 -0.1091
25520W        W45800  12.170  14.146  10.959 -0.3316 -0.0795  0.0302
25521W        W45801  14.821  17.386  12.057 -0.0908 -0.1185 -0.1050
25522W        W45802   0.431   1.347  15.251  0.3930  0.0608  0.0662
25523W        W45803   7.690   8.896  14.299  0.3289 -0.1824  0.3167
25524W        W45804   0.142   2.832   3.615 -0.2131 -0.0938  0.2169
25525W        W45805  11.161   3.511   3.227 -0.2930 -0.0818 -0.0476
25526W        W45806   2.199  18.159  11.144  0.3075  0.1133  0.1073
25527W        W45807   5.710   4.437  14.443  0.0446 -0.2645 -0.0608
25528W        W45808   2.642   8.329   2.926  0.0942 -0.2559  0.1366
25529W        W45809  11.286  16.676  11.957  0.1309  0.1182  0.1522
25530W        W45810   7.557  13.556   1.123  0.0170  0.0144 -0.0741
25531W        W45811   9.733   8.214   1.541  0.0023  0.1287  0.0580
25532W        W45812   4.801  13.651  11.185 -0.0194 -0.0229  0.1272
25533W        W45813   5.503  11.258   2.186  0.0842  0.0025  0.1248
25534W        W45814  16.631  15.575   3.910 -0.0956  0.1558 -0.0072
25535W        W45815  12.753   1.933   2.728  0.0461 -0.2462  0.0916
25536W        W45816  17.961  10.333   0.747 -0.0957  0.1816  0.1783
25537W        W45817   5.804  18.062   2.135  0.0982 -0.3730  0.0762
25538W        W45818  18.418   2.700   2.591 -0.0094 -0.1397  0.3162
25539W        W45819  18.546   3.648   2.726 -0.1253 -0.0080  0.2900
25540W        W45820  14.139  11.956  14.203 -0.2081 -0.1678 -0.1031
25541W        W45821  13.830  11.593   3.177 -0.1853 -0.2799  0.2122
25542W        W45822   8.243   3.835  13.273  0.2812 -0.0979 -0.3428
25543W        W45823   3.545  14.457   3.346  0.0595  0.0980 -0.2882
25544W        W45824   3.667  17.400  11.765  0.0974  0.1502  0.0850
25545W        W45825   3.117  15.838   3.688 -0.1693  0.1171 -0.4178
25546W        W45826  13.141  11.993  14.233  0.0007 -0.0083  0.0266
25547W        W45827   3.034  18.546  13.010 -0.2518 -0.2081  0.1981
25548W        W45828   9.423   3.314  13.220 -0.3128  0.0239 -0.2461
25549W        W45829   5.628  13.401   3.105 -0.0286  0.0135  0.3548
25550W        W45830   1.602  12.433  13.314  0.0731 -0.0786  0.3446
25551W        W45831  10.577  13.855  11.599 -0.3154 -0.0207 -0.0912
25552W        W45832   6.841  16.490  15.376 -0.4245 -0.1016  0.2569
25553W        W45833  10.499   9.734  10.825  0.5201  0.0631 -0.1954
25554W        W45834   8.502   7.843  13.099 -0.0119  0.0883  0.0320
25555W        W45835   3.726   9.874  14.361  0.2602  0.0477  0.0235
25556W        W45836  16.721   8.936  12.158 -0.0890  0.0971 -0.1557
25557W        W45837  18.617   9.526   3.461 -0.2697  0.0704  0.0933
25558W        W45838   7.294   6.094   2.807 -0.2120 -0.0217  0.0260
25559W        W45839  14.350   0.538  15.372  0.2123 -0.2550  0.3723
25560W        W45840  15.800  13.473  13.665  0.3379 -0.2570  0.3879
25561W        W45841   0.240  17.121  13.036 -0.1726 -0.0463 -0.0918
25562W        W45842  12.015   1.513  12.582  0.0221  0.2102 -0.2387
25563W        W45843   2.967   3.511  12.243  0.0066 -0.4687 -0.1645
25564W        W45844   6.253  14.320  11.157  0.3572  0.1337 -0.0223
25565W        W45845   8.585  14.550  12.246 -0.0129  0.1539 -0.0943
25566W        W45846   6.218  13.063   0.972  0.0875 -0.1639  0.0746
25567W        W45847   6.476   9.577   0.081 -0.1718  0.2970 -0.0171
25568W        W45848   9.157  13.025   3.846  0.1436  0.0034 -0.0409
25569W        W45849   9.832   0.722  13.913  0.1247  0.2625 -0.0771
25570W        W45850   8.173  15.149  12.727 -0.1526 -0.4266  0.2080
25571W        W45851   3.215   5.627   2.380  0.2946  0.2784 -0.3356
25572W        W45852  14.615  11.054  12.948  0.1131  0.1119 -0.0554
25573W        W45853   7.384  15.070   3.488 -0.1257 -0.3800  0.1558
25574W        W45854   3.027   2.079  14.394  0.4208 -0.1350 -0.0929
25575W        W45855   3.512   0.661  13.575 -0.0168  0.3121  0.1548
25576W        W45856   0.725  16.224   0.074  0.1681 -0.3126 -0.0910
25577W        W45857   9.216   3.042  13.598 -0.2267  0.0844  0.2790
25578W        W45858  14.226  17.962  12.018 -0.2077  0.0145 -0.0768
25579W        W45859  18.680  16.970  13.438 -0.0523 -0.1479 -0.0998
25580W        W45860  11.109   9.572  12.202  0.2528 -0.1194  0.2555
25581W        W45861  12.395  10.334   3.486 -0.0471 -0.3209 -0.0388
25582W        W45862   1.263   5.917   0.607  0.0278  0.1493 -0.0013
25583W        W45863  13.849   0.337   0.704 -0.1364 -0.0618  0.0169
25584W        W45864   8.750  13.843  10.996 -0.0228  0.0073 -0.1248
25585W        W45865  17.616   9.881  11.510 -0.0094  0.0545 -0.1146
25586W        W45866   2.164  15.226   2.741  0.2228  0.3347  0.0325
25587W        W45867   3.339   4.260  12.560 -0.2435  0.2014  0.1039
25588W        W45868   5.847  12.265  11.922  0.2352  0.0182 -0.0754
25589W        W45869   8.122   8.706  11.385 -0.4110 -0.0274  0.2292
25590W        W45870   3.167  12.441  11.523 -0.0401  0.2008  0.2438
25591W        W45871   6.746  16.733  13.304  0.1170  0.0162  0.0400
25592W        W45872  10.289   5.784   3.161  0.1270 -0.2274  0.0720
25593W        W45873  14.174  17.801  11.461  0.1087 -0.0163 -0.1240
25594W        W45874   7.850   3.677   1.560  0.0805 -0.1173 -0.0544
25595W        W45875  16.538  11.394   3.716  0.2237 -0.0694 -0.0028
25596W        W45876  18.645   7.707  14.386  0.1125  0.2997 -0.3343
25597W        W45877  11.086  11.806  14.912 -0.1206  0.0006  0.1123
25598W        W45878   5.703  16.601   4.374  0.3130  0.3266  0.2341
25599W        W45879   8.583   5.498   2.548 -0.0470  0.1793 -0.1208
25600W        W45880   0.715   4.302   3.675 -0.0733  0.2653  0.1596
25601W        W45881   0.697   1.595   2.195  0.1848 -0.2909 -0.1833
25602W        W45882  14.167  17.937  13.854 -0.1628  0.0165 -0.0555
25603W        W45883  10.897   5.980  11.986 -0.1579 -0.1519  0.2458
25604W        W45884   4.267   9.617   0.103 -0.0735  0.2723  0.5793
25605W        W45885   2.080  16.736   3.872  0.2417  0.0214  0.0290
25606W        W45886   2.893   1.860   3.894 -0.1249  0.2283  0.1245
25607W        W45887   6.977  17.344   2.238  0.2212 -0.0414 -0.0871
25608W        W45888   1.376   7.295  13.028  0.1346 -0.0903  0.1741
25609W        W45889   7.559   2.217   1.654 -0.1142  0.3012 -0.2692
25610W        W45890   7.126  11.761   3.890 -0.1242 -0.0407  0.3393
25611W        W45891  12.901   8.717  13.893  0.2655  0.3282  0.2601
25612W        W45892  17.167  15.058  13.142 -0.0409  0.1301  0.1465
25613W        W45893   0.721  12.910   0.159  0.5504  0.0547 -0.2346
25614W        W45894   6.914   6.638   2.251 -0.0567  0.1452  0.0395
25615W        W45895   1.551   3.209  14.013 -0.0154 -0.1145  0.1146
25616W        W45896  16.989  15.985  13.054  0.1622 -0.0350  0.0384
25617W        W45897   5.068   4.981  15.365  0.1518  0.0653  0.0551
25618W        W45898  11.527  15.444   1.043 -0.2487  0.0709 -0.1217
25619W        W45899  14.404  11.522   3.407  0.0997 -0.0012  0.0003
25620W        W45900   6.021   5.175  12.599  0.0247 -0.2963 -0.2736
25621W        W45901   4.923  11.257   3.891 -0.0138  0.0918 -0.2345
25622W        W45902   4.939   1.330   1.442 -0.3847 -0.1182  0.1342
25623W        W45903  14.297  12.401   3.946  0.1905  0.0181  0.1300
25624W        W45904   5.460   8.368   3.953  0.0292  0.1982 -0.0711
25625W        W45905  16.420  16.970  13.028  0.2522  0.0193  0.2917
25626W        W45906  12.838  10.555   3.417  0.1287  0.0150  0.0024
25627W        W45907   3.661  18.250  14.925 -0.1445  0.0579 -0.1854
25628W        W45908   2.220   6.140  14.975  0.1572  0.1065 -0.1593
25629W        W45909   3.489   6.773  15.244 -0.2340  0.2199  0.2242
25630W        W45910  14.699   9.289  11.749 -0.1119 -0.0046 -0.0899
25631W        W45911   4.877  10.276   0.654 -0.2661  0.1135 -0.0305
25632W        W45912  10.042  13.823  14.358  0.0389 -0.1172  0.0709
25633W        W45913  11.387  14.230  12.162 -0.1006 -0.1252  0.1526
25634W        W45914   4.983   4.906  14.365 -0.0520  0.0639  0.1118
25635W        W45915  16.253  14.141  13.936 -0.1548  0.1282  0.1098
25636W        W45916  10.912   8.317  11.668 -0.2731  0.0693  0.2790
25637W        W45917   4.283  10.199  12.360  0.1398 -0.0159  0.1403
25638W        W45918   3.210  11.607  13.177 -0.1851 -0.2065  0.1156
25639W        W45919   1.350  18.686   1.284  0.0564  0.2739 -0.1341
25640W        W45920  14.545  15.595  13.732 -0.0891 -0.2346 -0.1193
25641W        W45921  11.132   3.237  13.385 -0.1248  0.1830  0.2009
25642W        W45922   2.148   6.787  10.820  0.3397  0.2146 -0.1485
25643W        W45923   2.847   4.564   0.583  0.1023  0.2391  0.0678
25644W        W45924   0.397  16.797   3.950  0.1492 -0.0576 -0.0654
25645W        W45925  12.395   2.701   2.993  0.3088  0.3783 -0.2217
25646W        W45926  16.170   0.652   2.297 -0.1189  0.0353 -0.0359
25647W        W45927   5.433   4.850  12.172  0.0272  0.2768  0.2852
25648W        W45928  10.353   9.258  15.280 -0.0837  0.0382 -0.0164
25649W        W45929   1.494   1.593   4.474  0.0070  0.2997 -0.1575
25650W        W45930   1.439   6.521   1.938  0.0364  0.2509 -0.3484
25651W        W45931   6.487   1.498  11.652 -0.0044 -0.2417  0.1914
25652W        W45932   1.995   8.321   1.913 -0.1286  0.1966 -0.0072
25653W        W45933   1.362  17.833  13.706 -0.0807 -0.0242 -0.2781
25654W        W45934   6.947   9.722  13.697 -0.0902 -0.2180  0.0685
25655W        W45935  17.106  15.698   2.125 -0.0514  0.0016 -0.0485
25656W        W45936   1.307  15.750  12.810 -0.0393 -0.2268 -0.0278
25657W        W45937   7.291  10.505  14.411  0.5530 -0.1987 -0.0469
25658W        W45938  14.988   3.437  13.975 -0.4336 -0.0047 -0.2233
25659W        W45939  10.272  10.768   3.202 -0.1138 -0.4698 -0.2048
25660W        W45940  17.009  16.969  14.093 -0.0086 -0.3460  0.0138
25661W        W45941  18.527  14.877  11.449  0.0630 -0.0472 -0.3585
25662W        W45942  11.341   3.519   2.694  0.3517 -0.0854  0.2173
25663W        W45943  13.438  12.264   3.353  0.3017 -0.3389  0.1134
25664W        W45944   7.147   9.449   2.468  0.0705  0.0059  0.0068
25665W        W45945   1.853  18.391   2.246  0.2152 -0.1100  0.2268
25666W        W45946   8.993  16.396   4.229 -0.0911  0.1353  0.0087
25667W        W45947   5.514  14.294   0.973  0.3498  0.1834  0.1095
25668W        W45948   2.016  17.535   2.569 -0.0955  0.0158  0.2419
25669W        W45949  15.825  17.656   4.903 -0.1566  0.1353  0.2008
25670W        W45950   5.006   4.393   0.577  0.4415 -0.2465  0.1445
25671W        W45951  13.470  15.988   4.730 -0.2924  0.0665  0.2999
25672W        W45952  12.422   4.194   4.497 -0.0963 -0.0528  0.0063
25673W        W45953   0.455  11.764   0.275  0.0841  0.2729  0.0699
25674W        W45954  12.464  17.491  13.836 -0.1070 -0.1045 -0.0947
25675W        W45955   7.220  13.771  14.391 -0.4420 -0.0486 -0.0159
25676W        W45956   4.374  11.882  13.937 -0.2390 -0.4221 -0.1471
25677W        W45957  12.171   1.930   3.368 -0.0535  0.4151  0.0851
25678W        W45958  12.372  17.503  14.663  0.0540 -0.0410 -0.1332
25679W        W45959  17.170   6.271   0.601  0.0745  0.3551 -0.1518
25680W        W45960  18.308   8.746   2.921 -0.1896  0.1097  0.1029
25681W        W45961  17.555  14.695   4.715 -0.3451  0.2057 -0.0199
25682W        W45962   5.036  17.956  13.202 -0.2845 -0.2693 -0.1446
25683W        W45963  15.217   9.440  13.182 -0.0315  0.2965  0.2611
25684W        W45964  12.236  14.913  13.106  0.1826  0.1219  0.2230
25685W        W45965  14.944  11.350   0.821 -0.1052 -0.1524  0.0425
25686W        W45966   4.458   1.229  10.586  0.3479  0.2768  0.1618
25687W        W45967   3.418   2.645  13.659  0.0797 -0.1016  0.2538
25688W        W45968  11.947  11.463   0.772  0.0725 -0.1302 -0.1445
25689W        W45969  10.103   9.020  14.172  0.1178  0.0213 -0.0377
25690W        W45970  15.285  16.521   1.764  0.2687 -0.1080 -0.0299
25691W        W45971   1.881  14.546  14.900 -0.0203  0.0480  0.0021
25692W        W45972  13.128   6.218   1.082 -0.0658  0.1625  0.1561
25693W        W45973  11.474  17.882  12.046  0.0993  0.3920  0.1061
25694W        W45974  14.607   3.513   2.148 -0.2504 -0.0646  0.0295
25695W        W45975  12.817   3.680   1.886 -0.0311 -0.0340 -0.0618
25696W        W45976   8.764  15.832   0.891  0.3350 -0.3347  0.0568
25697W        W45977   1.961   5.185   4.711  0.2114 -0.0061  0.0596
25698W        W45978   7.495   2.144   4.093  0.1535  0.0367 -0.2796
25699W        W45979   3.632  10.539  11.148 -0.2858 -0.0682  0.0989
25700W        W45980   3.729   8.812  13.194  0.1183  0.1144  0.1039
25701W        W45981  10.155   3.087   2.319  0.2025  0.1279  0.2049
25702W        W45982  17.912  16.887   1.887  0.1109 -0.0747 -0.0523
25703W        W45983  14.634  14.152  13.263  0.0960 -0.1835 -0.1070
25704W        W45984  16.007  16.711   5.051 -0.1372  0.3752 -0.0106
25705W        W45985   5.843   0.094  14.334  0.0986 -0.0240 -0.2672
25706W        W45986  10.944   5.498  11.356  0.1452  0.0391  0.0244
25707W        W45987  10.361   0.986  12.079  0.2372 -0.1505  0.1696
25708W        W45988  15.266   6.957   2.931  0.0799 -0.0743 -0.0144
25709W        W45989  12.059  16.441  14.647  0.0527 -0.0279 -0.0361
25710W        W45990   6.405  13.641   1.892 -0.0652  0.1107  0.1147
25711W        W45991   8.542  12.161   2.303  0.0378  0.1852  0.2549
25712W        W45992   6.234   4.294   0.009 -0.0359  0.2101 -0.0488
25713W        W45993   9.716   7.297  15.174  0.0233 -0.0654 -0.2069
25714W        W45994   6.922  15.318  11.070 -0.0276 -0.1766 -0.0267
25715W        W45995   2.853   8.099  12.569 -0.1171 -0.2680  0.2902
25716W        W45996   6.398  15.790   0.539  0.1058 -0.2590 -0.1165
25717W        W45997   0.588   8.774   3.237  0.2294 -0.0328 -0.0890
25718W        W45998  12.330  10.342  13.363  0.3127  0.1941  0.6204
25719W        W45999  17.075  11.181   1.836 -0.1650 -0.0412  0.1621
25720W        W46000  18.644  11.217   1.746  0.3019 -0.3460  0.1820
25721W        W46001  16.569   0.096  14.571 -0.1231 -0.2015  0.0477
25722W        W46002  14.153   8.640   1.103 -0.2818 -0.0992  0.0129
25723W        W46003   5.919   6.235  14.014 -0.1150  0.2394 -0.0188
25724W        W46004   2.578  11.885  11.519  0.0009 -0.0242  0.4283
25725W        W46005   9.373   2.311  14.343 -0.2595  0.4942 -0.0960
25726W        W46006   6.288   7.654  15.186  0.1374 -0.0822 -0.0835
25727W        W46007   8.061  11.304  12.614  0.0338 -0.1902 -0.0947
25728W        W46008  17.390  12.792  12.301 -0.3067  0.0812 -0.0889
25729W        W46009   0.045  11.244  12.443  0.2222  0.1191 -0.0855
25730W        W46010  15.095   3.666   1.982 -0.1546 -0.1114  0.1856
25731W        W46011   2.412   2.491  12.103 -0.2840  0.0044  0.1431
25732W        W46012   8.649   6.139  12.569 -0.2121 -0.0261  0.0625
25733W        W46013   3.962   7.422   3.869 -0.3047 -0.1106  0.0374
25734W        W46014  14.023  11.653   3.646 -0.0540 -0.2451 -0.1021
25735W        W46015  18.240  14.912   4.672  0.0680 -0.1780  0.0190
25736W        W46016   1.537  17.481   1.015  0.1651  0.0381 -0.0835
25737W        W46017  13.376  14.747   0.498  0.3943 -0.1632  0.1923
25738W        W46018   2.411  12.278   0.315  0.1122  0.0057  0.0737
25739W        W46019   6.990  11.683   0.139 -0.0344 -0.0001 -0.0942
25740W        W46020   8.674  14.936   3.199 -0.0683  0.2690  0.2703
25741W        W46021   3.329   8.901  15.123  0.0708 -0.1105  0.1715
25742W        W46022   9.094  16.734  11.864 -0.0887 -0.1455  0.0701
25743W        W46023   5.107   3.429   3.392 -0.1497 -0.1073  0.1640
25744W        W46024  11.178  13.168   0.771  0.0267 -0.5072  0.2102
25745W        W46025   7.649   6.520  12.098 -0.0666 -0.3345 -0.1703
25746W        W46026   5.272   9.223   2.163  0.0789 -0.1152 -0.1442
25747W        W46027   4.860  14.837   4.463 -0.0947 -0.3621  0.1795
25748W        W46028   6.936   4.426  14.809  0.3074  0.1203 -0.2675
25749W        W46029   8.458   5.199  14.811 -0.0156 -0.0276 -0.1063
25750W        W46030  16.727   1.305   1.286  0.0103 -0.0023  0.0656
25751W        W46031  12.476   6.788   4.231  0.0913 -0.0821 -0.0763
25752W        W46032   2.726   2.808   1.358  0.3823  0.1134  0.0606
25753W        W46033  18.440   3.533  10.859  0.1507  0.0411  0.0401
25754W        W46034   9.425  14.523  15.351 -0.1027  0.1802  0.0648
25755W        W46035  12.557   4.177   2.403  0.0239 -0.0245  0.3997
25756W        W46036  16.912   5.711   0.192  0.1795  0.3086  0.0930
25757W        W46037  15.565   5.322  11.102  0.2314 -0.1663 -0.1206
25758W        W46038   4.659  11.481  13.558 -0.0895  0.0535 -0.1891
25759W        W46039   8.927   8.034  13.408 -0.0869  0.0297 -0.1920
25760W        W46040  10.467   6.833   3.100  0.0296 -0.1317  0.1392
25761W        W46041  15.474  13.895   1.827  0.0854  0.0139  0.0009
25762W        W46042  15.024  10.769   0.038 -0.0150  0.1820  0.0145
25763W        W46043   7.610   3.355  11.131 -0.1281  0.0011  0.3057
25764W        W46044  16.475  14.933   0.580 -0.0354  0.0541 -0.1669
25765W        W46045   5.425   6.050  13.914 -0.1033 -0.0181 -0.1626
25766W        W46046  14.454  17.538  13.900  0.0362  0.1419  0.0923
25767W        W46047   4.639   6.699   0.279 -0.1673  0.0752  0.1685
25768W        W46048  14.151  14.382   4.598 -0.1887 -0.1187  0.0046
25769W        W46049   9.283   6.513   3.940 -0.2837  0.0673 -0.0214
25770W        W46050  10.821   8.361  12.163  0.0313  0.1747 -0.0389
25771W        W46051  14.154   0.446   2.891 -0.2324  0.1820  0.1577
25772W        W46052   7.781   7.073  12.961 -0.0204 -0.2071 -0.0791
25773W        W46053   4.769   9.368  13.802  0.0366  0.0194 -0.2237
25774W        W46054  16.661   3.423  11.523 -0.4835 -0.3361 -0.0509
25775W        W46055  12.313  12.652   3.793 -0.0762 -0.0748 -0.3815
25776W        W46056  11.640   3.802   4.463  0.1258 -0.0444 -0.0590
25777W        W46057   4.760   7.289  14.895  0.2701  0.3172  0.0659
25778W        W46058  14.312   7.788   3.286  0.2833 -0.1526 -0.3167
25779W        W46059   3.674   6.121   1.159 -0.1645  0.3651 -0.2755
25780W        W46060  15.288   1.720   2.132 -0.0481  0.1394  0.3056
25781W        W46061   4.510   9.404   2.777  0.0377  0.0403  0.1315
25782W        W46062   4.801  14.359  13.747  0.0453  0.2127  0.1017
25783W        W46063  15.970  15.714   1.570  0.0574  0.2015 -0.0027
25784W        W46064   0.806   7.657   4.096  0.0463  0.2014 -0.0804
25785W        W46065  17.811   8.046   1.819 -0.1115 -0.0068  0.2340
25786W        W46066  15.932   8.132  12.689  0.2084  0.0424  0.0217
25787W        W46067   2.519  17.432   0.070  0.1312 -0.1312  0.1317
25788W        W46068   2.881   9.734  10.546 -0.0069  0.1321  0.5049
25789W        W46069  14.273  16.177   5.283  0.2872  0.3689  0.5454
25790W        W46070   6.888   4.038  11.620  0.1163 -0.0631  0.1159
25791W        W46071  17.577  10.272  13.779 -0.1667  0.0242 -0.3658
25792W        W46072   8.811  10.422   1.751  0.1035  0.0506 -0.3014
25793W        W46073   9.915   7.136  13.883  0.3189 -0.0900  0.0395
25794W        W46074   0.734  18.369  12.268  0.0519  0.1844  0.2392
25795W        W46075   4.378  16.818   3.323  0.1404  0.0741  0.0209
25796W        W46076   1.964  11.095   3.721  0.0691 -0.0199  0.1201
25797W        W46077  10.750  11.410   2.987 -0.1744  0.0418 -0.0643
25798W        W46078   8.439   8.810   0.018 -0.1077 -0.2442 -0.0928
25799W        W46079  11.304   4.695  15.182  0.1320 -0.1173 -0.2893
25800W        W46080  10.228   7.252   4.919  0.3625  0.0159 -0.0587
25801W        W46081   3.504  13.267   2.119 -0.2169 -0.0410  0.0734
25802W        W46082   0.843   3.996   4.220 -0.0106 -0.0120  0.1741
25803W        W46083   5.228  14.821   0.371 -0.0243  0.1497 -0.2162
25804W        W46084   3.127  18.728   1.939 -0.2259 -0.0606 -0.0680
25805W        W46085   6.896  13.340   0.464  0.0764  0.1087  0.1019
25806W        W46086   9.506   8.392  13.917  0.3640 -0.0599 -0.0921
25807W        W46087   7.410   8.003   5.757  0.0771  0.2733  0.0177
25808W        W46088  10.893  11.748  13.886 -0.0025 -0.0545  0.0355
25809W        W46089   5.879   5.596   3.641  0.0553  0.1691 -0.3191
25810W        W46090   2.330  10.755   0.504  0.1333  0.0679  0.0167
25811W        W46091  13.544  18.310   3.569 -0.2652 -0.0523  0.0724
25812W        W46092   0.304  16.344  12.739 -0.2846 -0.1762  0.1975
25813W        W46093   8.397  11.109  11.617  0.0909 -0.1011  0.3681
25814W        W46094  10.691  11.607  12.477 -0.5559  0.1929  0.0648
25815W        W46095  11.719   0.477  13.417  0.0016  0.1677  0.2501
25816W        W46096  14.698  16.475  13.437 -0.0169  0.1789 -0.1557
25817W        W46097   4.780  10.895  13.557 -0.0365 -0.0137 -0.0589
25818W        W46098  18.224  11.591  15.214 -0.1762  0.1743  0.1430
25819W        W46099   8.361  18.672  12.042  0.4471  0.1800  0.1023
25820W        W46100   2.681   7.267   2.510 -0.3417 -0.1872 -0.0106
25821W        W46101  17.710  17.060   3.862 -0.1498  0.4031  0.2876
25822W        W46102   5.693   9.622   0.757 -0.1293 -0.0971 -0.1884
25823W        W46103   1.961  13.706  14.401 -0.0424 -0.0961  0.0192
25824W        W46104   4.249   6.617   2.722 -0.2501 -0.1444  0.0707
25825W        W46105   3.131  14.546   3.735 -0.0764 -0.1482 -0.2875
25826W        W46106   7.192   9.147  12.556  0.2821  0.3385 -0.0536
25827W        W46107  17.207  18.485   1.502  0.1651  0.1214  0.1982
25828W        W46108  13.547  13.815   2.196  0.0223 -0.1584 -0.1849
25829W        W46109  16.133   3.436  13.440  0.1769  0.0600  0.1854
25830W        W46110  13.431  13.015  14.030 -0.1130  0.0727  0.1523
25831W        W46111   9.029  16.990   1.480 -0.0533 -0.5130 -0.2141
25832W        W46112  11.634  18.372  12.080 -0.0414  0.0483  0.0732
25833W        W46113   1.954  16.322  13.198 -0.0772 -0.0469  0.0056
25834W        W46114   4.779  17.743  11.336  0.1028 -0.1986  0.1781
25835W        W46115   4.372  13.718   3.815  0.0012  0.1905 -0.0943
25836W        W46116   1.984   1.446  13.165 -0.0809 -0.0338 -0.3330
25837W        W46117  12.764  13.529  12.171  0.1324 -0.0369 -0.1185
25838W        W46118  18.359  12.490  13.218 -0.5243  0.0766  0.0250
25839W        W46119  11.777   5.736  12.219 -0.2755 -0.1006 -0.1314
25840W        W46120   6.132  17.490   4.276  0.0407  0.0251 -0.2320
25841W        W46121   6.573  13.611   1.370 -0.0283  0.1448 -0.1286
25842W        W46122   2.986   3.696   3.799 -0.2533  0.0239  0.3540
25843W        W46123   1.827   6.375   0.042  0.1522  0.1594  0.2475
25844W        W46124   1.864  11.374  13.028  0.0883 -0.0166  0.4859
25845W        W46125   9.064  14.445   2.698  0.0191  0.0265 -0.1365
25846W        W46126   5.741   5.879   5.075  0.0332  0.0710 -0.0137
25847W        W46127   4.837   4.936   2.379  0.2523 -0.0082  0.2898
25848W        W46128   6.635   2.808  14.002 -0.1381 -0.1250 -0.2133
25849W        W46129   1.404  10.587  11.417 -0.3661  0.0684 -0.3771
25850W        W46130  10.449   5.238   2.435  0.1682  0.0319  0.2219
25851W        W46131  17.901   1.999   0.263  0.4178 -0.2555  0.0812
25852W        W46132   6.010  12.064  14.337 -0.1628  0.4302 -0.1424
25853W        W46133   4.604  13.086  14.621 -0.0459 -0.0661 -0.2628
25854W        W46134  15.045  17.818   9.983 -0.0176  0.0741  0.1102
25855W        W46135   7.970  14.253  14.572 -0.1138  0.1890 -0.0220
25856W        W46136   6.880   1.173   2.939 -0.1100  0.2174 -0.1139
25857W        W46137  15.473  11.656  14.598 -0.2966 -0.3299 -0.1823
25858W        W46138   0.691   8.018  12.003 -0.1497 -0.0960  0.2216
25859W        W46139  10.655  17.571   2.085  0.0627 -0.0648  0.0753
25860W        W46140  12.339   0.767   5.148 -0.1756 -0.0132 -0.0438
25861W        W46141  14.483  17.909   0.626  0.0769  0.6665 -0.1439
25862W        W46142   6.780  14.883  14.307  0.0993  0.1960  0.0998
25863W        W46143  11.082  14.737  14.750  0.2149  0.1335 -0.0343
25864W        W46144  15.192  11.391   2.102 -0.0704 -0.0852 -0.2950
25865W        W46145  15.160   4.763  14.594  0.0124 -0.0724  0.1668
25866W        W46146  10.768  17.509  11.602 -0.0986  0.2363  0.0418
25867W        W46147  14.236   9.411   3.249 -0.3148  0.0656  0.1812
25868W        W46148   6.453  13.219  14.592  0.0227 -0.1449 -0.2056
25869W        W46149   0.724  12.382   1.406  0.3511  0.3504  0.1529
25870W        W46150   6.489   2.800   2.312 -0.0090  0.0304 -0.0964
25871W        W46151  12.525   1.270  12.889 -0.0465  0.4184  0.0679
25872W        W46152  17.379  14.190  14.443  0.0938 -0.2803 -0.1570
25873W        W46153   6.830  13.044  12.662 -0.2913  0.2247  0.1772
25874W        W46154  11.262   7.532  12.144 -0.1586  0.2585  0.0798
25875W        W46155   2.090   6.716  15.240 -0.4078  0.2087 -0.0325
25876W        W46156  12.796   2.879   5.159 -0.0580 -0.0520  0.0680
25877W        W46157   9.221   2.325   2.402 -0.1479 -0.0690  0.1008
25878W        W46158  18.726   8.517   0.092  0.0095 -0.2933  0.1793
25879W        W46159   0.561  10.276  11.880 -0.3630  0.0050  0.0965
25880W        W46160   2.523  14.919   3.065  0.0293 -0.0336  0.1157
25881W        W46161  10.667   7.520   0.033 -0.3563  0.1418 -0.3698
25882W        W46162  18.674   8.856  10.879 -0.2800  0.1281 -0.0882
25883W        W46163   1.828   3.875   2.881 -0.1597 -0.1745  0.1448
25884W        W46164   9.028  15.188  12.555  0.0240  0.0601 -0.1281
25885W        W46165  16.565   3.739  12.978  0.0755  0.2516  0.3352
25886W        W46166  10.962  14.543  11.096  0.0803 -0.0789 -0.0686
25887W        W46167   5.452   9.398   1.619 -0.1016  0.2119 -0.0052
25888W        W46168   5.565  12.958   1.670 -0.0201 -0.0093  0.0773
25889W        W46169  17.289   5.923  14.174  0.1636 -0.3231 -0.1803
25890W        W46170  12.687   2.312  11.329 -0.3956 -0.0416 -0.4147
25891W        W46171   8.830   5.239  15.205  0.0150  0.0815  0.1012
25892W        W46172  13.386  17.986  14.947  0.0227  0.0654  0.0490
25893W        W46173   8.509   7.055   0.770  0.1315 -0.1487  0.0866
25894W        W46174  16.934  15.229   2.312  0.2221  0.1567  0.0361
25895W        W46175  11.636  15.933  11.502 -0.1525 -0.2626  0.3354
25896W        W46176  17.123   6.925  11.851  0.0850 -0.1074  0.1074
25897W        W46177  17.955  11.195  12.061  0.2233  0.1435  0.0742
25898W        W46178   1.613   4.959  13.571  0.4303  0.2141 -0.0913
25899W        W46179  13.344  11.073   3.857  0.0673 -0.0533 -0.1728
25900W        W46180  15.298  16.555  11.196  0.4215 -0.0502  0.0953
25901W        W46181  16.446   1.034   2.065  0.2231 -0.0307 -0.1021
25902W        W46182  13.207   5.136  15.008 -0.1780  0.0601  0.1235
25903W        W46183   2.544   0.868   2.806 -0.0442  0.1022  0.3042
25904W        W46184   3.343   4.852  13.295  0.2138 -0.3039  0.1765
25905W        W46185   1.682   9.050   1.530  0.1991 -0.0733 -0.1733
25906W        W46186   2.635   2.312   0.581  0.1785  0.0290  0.1831
25907W        W46187  12.127   2.491   2.186  0.0261 -0.0225 -0.0211
25908W        W46188  11.407  10.588   2.356  0.3183 -0.1511 -0.1226
25909W        W46189   0.589   4.695   2.411 -0.1195  0.0952 -0.0883
25910W        W46190   8.770   1.289  11.686 -0.2803 -0.1261  0.0699
25911W        W46191   4.236   3.020   0.781 -0.0720 -0.2580 -0.0154
25912W        W46192   7.331   4.325  15.078  0.0532  0.1484 -0.0299
25913W        W46193  18.435  12.173  15.094 -0.0205  0.1126 -0.1743
25914W        W46194  11.111  16.815   2.569  0.5090  0.0841 -0.0643
25915W        W46195   2.312  10.388   1.732 -0.1966  0.1603  0.0680
25916W        W46196  18.520  18.422  15.251 -0.4484  0.0230 -0.1461
25917W        W46197  10.327   3.036  13.046 -0.0595  0.0635  0.0196
25918W        W46198  11.516   6.682   2.874  0.1760  0.1032  0.0943
25919W        W46199   8.256   0.544  15.295 -0.1006  0.1724  0.1246
25920W        W46200  10.289   1.567  10.084  0.0757  0.2918 -0.2427
25921W        W46201  11.331   8.878  12.809 -0.0951  0.0957 -0.1140
25922W        W46202   7.535   9.707  12.073 -0.1335 -0.1276  0.3018
25923W        W46203   6.282  12.841  11.534  0.3195  0.1589 -0.2852
25924W        W46204  11.987   5.365  12.553  0.0965 -0.2601 -0.0061
25925W        W46205  14.693   9.483  11.292  0.3888 -0.3106  0.4548
25926W        W46206  12.378   7.147  13.099  0.0164 -0.1091 -0.0107
25927W        W46207  11.598  16.281   3.091  0.3029  0.0974 -0.1503
25928W        W46208   8.732   9.853  11.825 -0.3528 -0.2154  0.0571
25929W        W46209   9.756  15.769  13.444  0.0813 -0.1836 -0.0194
25930W        W46210   2.929   9.699  13.742 -0.1325 -0.0065  0.1564
25931W        W46211  15.591   3.496   2.617  0.2285  0.0006  0.1041
25932W        W46212   1.077   4.476   1.484  0.0465  0.1080  0.2610
25933W        W46213   1.267   4.369   0.080  0.1099 -0.5321 -0.0002
25934W        W46214  15.206  17.298   9.868  0.2519  0.1822  0.2808
25935W        W46215   2.172  15.141  12.587 -0.0051 -0.0811 -0.1490
25936W        W46216   6.689  10.744   3.579 -0.0200  0.1216  0.1460
25937W        W46217  17.558   5.824   2.986  0.4371  0.2071  0.1272
25938W        W46218  15.769  14.315  14.205 -0.0425 -0.0691 -0.2044
25939W        W46219   7.164   6.408  13.654 -0.1384  0.3384  0.3423
25940W        W46220  14.936   1.604   3.101 -0.1043 -0.0489 -0.1413
25941W        W46221   7.000   9.525   0.845 -0.3403 -0.1637  0.0835
25942W        W46222   8.364   5.094  15.311 -0.0408 -0.0175 -0.0033
25943W        W46223   3.310   6.423  14.755 -0.3635  0.3307 -0.0990
25944W        W46224  13.825   1.718  14.235 -0.0797 -0.0208  0.2065
25945W        W46225   0.848   5.687   3.858 -0.2622  0.2551 -0.0042
25946W        W46226   9.688  16.420  12.344  0.0202 -0.2499  0.2093
25947W        W46227  13.249   8.692  12.473  0.3169  0.0542 -0.0084
25948W        W46228  15.417  11.071   0.944  0.0156 -0.2853 -0.2423
25949W        W46229  14.958   7.708  14.451  0.2962 -0.0521 -0.0561
25950W        W46230  15.887   0.969   1.927  0.3287 -0.2140 -0.1923
25951W        W46231   4.424  14.693   2.066 -0.0359  0.0444 -0.0911
25952W        W46232   4.879   1.393   9.788 -0.1487 -0.1792  0.1191
25953W        W46233   0.703   6.470  14.368  0.2089  0.1163  0.0784
25954W        W46234   9.111   0.416   5.205  0.3271  0.1289  0.3524
25955W        W46235  13.101  16.924  11.326  0.0689  0.0635 -0.2741
25956W        W46236  18.429  13.417   1.901 -0.1750  0.0124  0.0573
25957W        W46237  11.711  10.287  14.264  0.1606  0.2430 -0.1553
25958W        W46238   0.331   2.280   1.497 -0.2008 -0.1285  0.0798
25959W        W46239   2.784   4.149   2.927  0.1541 -0.0144 -0.1944
25960W        W46240  13.510   5.740   3.429 -0.1721 -0.0466  0.1590
25961W        W46241   2.990  15.550  12.747  0.1240 -0.2682 -0.0443
25962W        W46242   4.229  10.536   2.888  0.5343  0.1570  0.1133
25963W        W46243  13.003  16.420  13.193  0.1148 -0.0063 -0.1448
25964W        W46244   3.605   7.706   0.566  0.0561  0.1737 -0.1506
25965W        W46245   4.598  12.100  14.333  0.0841  0.2305 -0.2965
25966W        W46246  11.189   7.100   3.587  0.2415 -0.1018  0.2712
25967W        W46247   2.762  11.719  12.851 -0.1036  0.1006  0.1821
25968W        W46248   8.501   3.564   4.158  0.2198 -0.1800 -0.1442
25969W        W46249  13.623   8.807   4.369  0.0142 -0.0899 -0.0400
25970W        W46250   6.986  17.975  10.838  0.1960  0.1164  0.0898
25971W        W46251   6.453  14.968  13.972  0.1679  0.0190  0.0393
25972W        W46252  11.747   5.727   3.196  0.0892 -0.0500  0.0346
25973W        W46253  12.073   2.427  12.807 -0.1373 -0.0240 -0.1284
25974W        W46254  15.776   9.232   1.174 -0.0702 -0.0125  0.1592
25975W        W46255   2.505   2.214  13.658 -0.2467  0.1636 -0.1275
25976W        W46256   6.380   1.049  13.069  0.1895 -0.2484 -0.1868
25977W        W46257   6.185  10.153  12.765 -0.1052 -0.0261 -0.0035
25978W        W46258   9.198   4.521  13.741 -0.2060  0.0558 -0.0623
25979W        W46259   7.430  18.170  14.993  0.1206 -0.1525 -0.1401
25980W        W46260  11.686   7.040   1.882  0.3025  0.2435  0.3052
25981W        W46261  10.738  15.532   2.637  0.2881 -0.1116 -0.0390
25982W        W46262  10.346   1.534  13.065  0.2639 -0.5000  0.0151
25983W        W46263   3.611   1.003  11.719  0.2040 -0.1451 -0.0647
25984W        W46264   4.870  17.205   1.418 -0.2892  0.2171 -0.1868
25985W        W46265   8.641   5.082   0.813 -0.3171  0.3808  0.0970
25986W        W46266   3.356   6.022   0.457  0.2224  0.0977  0.0756
25987W        W46267  10.624  12.107   2.007 -0.1100 -0.2391 -0.0116
25988W        W46268   1.862   0.047  11.686  0.1204  0.1260  0.0569
25989W        W46269   0.644   2.572   2.446  0.1323  0.2313 -0.0958
25990W        W46270   0.478   4.208  13.785  0.1966  0.2297 -0.2452
25991W        W46271  11.980   0.245  14.393 -0.2126 -0.0521  0.0197
25992W        W46272  10.707   3.601   2.292  0.3445  0.1011  0.2246
25993W        W46273   2.070  13.738  13.422 -0.0065 -0.0668 -0.0195
25994W        W46274  11.566  16.969  13.097  0.1781  0.2032  0.1371
25995W        W46275   8.883   6.377   2.450 -0.0277  0.0608 -0.0765
25996W        W46276   1.773  14.135  14.130 -0.1555  0.1799 -0.1811
25997W        W46277   6.294   4.125   1.208  0.1071  0.3399  0.2113
25998W        W46278  16.832   3.094  14.101  0.1046 -0.0989  0.1428
25999W        W46279   3.664  13.465   2.585 -0.1197  0.0228  0.1785
26000W        W46280  15.586   2.556  13.885 -0.0986 -0.0975 -0.2625
26001W        W46281  17.598  11.458   2.850 -0.0511 -0.1140 -0.2608
26002W        W46282   5.942  16.784   9.488  0.1068  0.0234 -0.0065
26003W        W46283   4.551  15.023   1.569 -0.0021 -0.1056  0.1597
26004W        W46284   9.180   5.583   3.020  0.0531 -0.2013  0.0418
26005W        W46285  16.623   2.767   3.400  0.2311 -0.0962  0.2440
26006W        W46286  14.743  15.938   1.373 -0.0133  0.0615 -0.2824
26007W        W46287   7.338  17.638  12.642  0.2726 -0.1007  0.0100
26008W        W46288   0.920  17.509   0.415  0.2309 -0.0897  0.3517
26009W        W46289  18.433   5.373   4.734 -0.2419  0.0721 -0.1555
26010W        W46290   1.626   4.072  13.934  0.1222  0.2123  0.2509
26011W        W46291   6.243  10.896  11.709  0.2016 -0.1242  0.1059
26012W        W46292   6.407   1.997  13.207  0.4390 -0.1010  0.1578
26013W        W46293   7.687  16.420   3.917 -0.0386 -0.2730 -0.1069
26014W        W46294   5.052  13.655  13.154  0.1997  0.1200  0.3383
26015W        W46295  10.817  10.183   2.886 -0.1957  0.0705  0.1818
26016W        W46296  15.501   3.371   2.084 -0.1067 -0.0307  0.3041
26017W        W46297   9.602   5.822   2.079 -0.4187  0.2992  0.0422
26018W        W46298  12.062  10.622   1.444  0.1480  0.0109 -0.2849
26019W        W46299   2.858   8.904  14.857  0.2661  0.0866 -0.0805
26020W        W46300  11.412   5.332   3.385  0.0802 -0.2945  0.2703
26021W        W46301   2.232   0.849   4.125  0.0353 -0.3853  0.2595
26022W        W46302   8.403  11.317   0.557 -0.1619 -0.0337  0.1752
26023W        W46303   3.470  12.263   0.859  0.0833  0.1298  0.1568
26024W        W46304   4.124  17.185   0.049  0.0933  0.1678  0.0170
26025W        W46305   3.966   1.206   2.663 -0.0273 -0.0495 -0.1498
26026W        W46306   2.694   2.478   2.100 -0.0818  0.1012  0.2255
26027W        W46307   2.039  16.677   2.715  0.1639 -0.0646 -0.1850
26028W        W46308   6.569   2.261   1.621 -0.0265  0.1576  0.0736
26029W        W46309  14.028   7.200   4.199 -0.2782 -0.1429  0.0864
26030W        W46310   1.509  15.930  13.995  0.2872  0.2464 -0.5036
26031W        W46311  18.707   8.859  12.579 -0.3174 -0.0071  0.3179
26032W        W46312   5.692   0.520  14.602  0.0229  0.0496 -0.0701
26033W        W46313   9.837   3.754   1.230 -0.4580 -0.0070 -0.1904
26034W        W46314  13.791   7.004   4.557 -0.2024 -0.1777 -0.0991
26035W        W46315  10.951   5.650   3.302 -0.1156 -0.1635 -0.0046
26036W        W46316   1.241  10.568   3.855  0.0827 -0.0733  0.2988
26037W        W46317   7.991  12.329   1.495  0.0831 -0.0999 -0.0677
26038W        W46318  14.554  16.426   0.575 -0.2728  0.4378  0.0917
26039W        W46319  11.991  14.224   3.036 -0.0003 -0.2160  0.0560
26040W        W46320  13.347   1.844  13.764  0.0336  0.0611 -0.2377
26041W        W46321   7.657  16.074   0.114  0.2231  0.2740 -0.3915
26042W        W46322  10.452   9.843   3.043 -0.1584  0.0032 -0.1750
26043W        W46323   1.959   0.690  13.972  0.2492 -0.3291  0.0672
26044W        W46324  14.701   2.030   2.956 -0.1338 -0.1657 -0.2133
26045W        W46325   6.855  11.267  14.915 -0.1659 -0.1942 -0.2330
26046W        W46326  14.853   0.161  11.140 -0.1857 -0.1413 -0.2818
26047W        W46327  15.243  18.445  11.008 -0.0691  0.1242  0.2919
26048W        W46328  15.834   9.489   3.679  0.0170  0.2548  0.0930
26049W        W46329  15.900   0.994   1.091  0.0855 -0.0009  0.4318
26050W        W46330   2.394   6.774   1.330  0.1318 -0.0164 -0.1061
26051W        W46331  17.970  17.182   5.505 -0.0682  0.1195 -0.1431
26052W        W46332  10.924  15.996   2.921  0.0198  0.2259 -0.3212
26053W        W46333   4.384  17.526   3.875 -0.0322  0.1150 -0.2220
26054W        W46334  16.139   6.343   1.980 -0.0271 -0.1927 -0.3576
26055W        W46335  17.069   7.123   1.087  0.1769  0.0721 -0.0658
26056W        W46336  11.843   0.741   1.464 -0.1159  0.3466  0.0265
26057W        W46337   7.143   7.386  14.676  0.3409 -0.0154 -0.0779
26058W        W46338  12.515   5.942   3.068  0.1204 -0.1292  0.0202
26059W        W46339  13.784   6.410  14.859  0.1427  0.0956  0.2857
26060W        W46340   9.566   9.630   2.792  0.0171  0.0181 -0.1346
26061W        W46341  10.492  10.031   2.501  0.0651  0.2090  0.0381
26062W        W46342  17.925   3.899  15.393  0.0903 -0.3660  0.0541
26063W        W46343  16.177   3.372  12.920  0.2613 -0.0250 -0.0019
26064W        W46344   2.860  15.314   1.360  0.0285  0.2179 -0.1026
26065W        W46345   9.944   8.671   2.533  0.2824 -0.0955 -0.2857
26066W        W46346   1.963   1.246  11.061  0.1008  0.2872  0.1447
26067W        W46347  16.305   2.349  15.013  0.0622  0.0947  0.0553
26068W        W46348  11.654   1.281  12.956 -0.0249  0.3700 -0.1146
26069W        W46349  13.377   2.222   3.771 -0.0255 -0.2975  0.0934
26070W        W46350   6.467  14.520  15.367  0.4296 -0.5236  0.3014
26071W        W46351  18.657   4.154  10.341 -0.2533 -0.3276  0.1867
26072W        W46352  13.443  11.978  14.957 -0.1138  0.1221  0.0907
26073W        W46353  11.071   7.861   1.846  0.2643  0.0615 -0.2146
26074W        W46354  17.948  15.004   1.643  0.1285  0.0534 -0.3525
26075W        W46355   0.673   6.528   4.573 -0.0690  0.0337 -0.0395
26076W        W46356  14.595   8.323   2.645  0.2402 -0.1019 -0.1477
26077W        W46357   9.860  12.800   2.640 -0.0621  0.0994  0.1137
26078W        W46358   2.512   0.618   3.290 -0.0193  0.0053  0.1237
26079W        W46359   9.675   6.141   3.719  0.0648 -0.0233  0.3576
26080W        W46360   9.629   3.395  14.028  0.1510  0.0287  0.4257
26081W        W46361   8.511  14.459  13.784  0.1351 -0.0789  0.1480
26082W        W46362   8.613   6.956   1.517 -0.2794 -0.1188  0.0121
26083W        W46363   1.292  11.809   3.852  0.0316  0.0451 -0.0778
26084W        W46364  14.199   8.805  13.739  0.0543  0.1255  0.0179
26085W        W46365   9.267   2.385  12.920  0.0976 -0.1982  0.1002
26086W        W46366   4.909   2.791  14.168 -0.4479  0.1151  0.3368
26087W        W46367  12.540   9.798  14.336  0.1078  0.0918  0.1532
26088W        W46368  10.100   9.708   3.497 -0.1551 -0.1820  0.2447
26089W        W46369  11.568  15.068  14.277 -0.0399  0.0063  0.1921
26090W        W46370   5.345  18.075   2.849 -0.0234 -0.1780 -0.1974
26091W        W46371   8.149   2.459   3.595 -0.0155  0.1795  0.1280
26092W        W46372   1.275  14.328  14.273  0.0110  0.2382  0.1109
26093W        W46373   6.661  16.945   3.223 -0.0118  0.0857 -0.1350
26094W        W46374   6.960   1.193  12.343 -0.3580  0.2457  0.0450
26095W        W46375   3.600  13.750  13.371  0.0491  0.1192  0.0637
26096W        W46376   2.632   8.404  12.254 -0.0065  0.1204 -0.0632
26097W        W46377   2.982   1.612  14.464  0.0366 -0.0121  0.0495
26098W        W46378   6.064  17.243   0.228  0.0909 -0.1116  0.2234
26099W        W46379   3.055   7.252   0.907  0.1857  0.0945  0.3001
26100W        W46380  14.491   7.999   1.747  0.0388 -0.0628 -0.2081
26101W        W46381  10.737   4.043   3.946  0.0766 -0.0680  0.0191
26102W        W46382   2.889   1.430  14.034 -0.1185  0.2712  0.0194
26103W        W46383  11.868  12.783   3.001 -0.0414  0.0805  0.1519
26104W        W46384  18.288   2.396  12.919  0.4198 -0.1628  0.1884
26105W        W46385  12.411   8.397  13.668 -0.0716 -0.0864 -0.0936
26106W        W46386  12.016  12.298   3.021 -0.0142  0.0386 -0.2394
26107W        W46387  12.673   8.024  13.809 -0.0296  0.1314  0.0657
26108W        W46388  16.168  15.749  12.621 -0.0311 -0.1152 -0.0724
26109W        W46389   3.762   0.695   3.379 -0.0643  0.1876  0.2605
26110W        W46390   2.078   0.899  12.490  0.2793  0.3127  0.0253
26111W        W46391   0.899   0.775   5.142  0.0502 -0.1250 -0.0489
26112W        W46392   2.032   9.555   2.905  0.0105 -0.2257  0.0532
26113W        W46393   6.074   2.889   3.574 -0.2098  0.2681  0.1110
26114W        W46394   4.766  17.709  14.206  0.0236 -0.0990  0.3159
26115W        W46395  15.425  14.119   0.458  0.0311  0.2176  0.0054
26116W        W46396  16.714  12.230  12.629 -0.0831 -0.4821  0.0318
26117W        W46397   5.976   5.577   0.892  0.1396 -0.2298  0.1130
26118W        W46398   1.759  15.095  12.841  0.2373  0.2802 -0.2938
26119W        W46399  12.852   8.091  12.977 -0.1393 -0.0222  0.1120
26120W        W46400   4.583  10.657   4.550  0.0391  0.1419 -0.0333
26121W        W46401  14.952   0.256   2.236 -0.0051  0.0847  0.0014
26122W        W46402   8.481  12.655   1.255  0.3132 -0.0713 -0.1249
26123W        W46403   3.006  10.072  12.150 -0.0993 -0.0311 -0.2735
26124W        W46404  16.138   3.212  14.306 -0.1395  0.0038  0.2177
26125W        W46405   7.192  15.701  11.285  0.0913 -0.0145  0.0664
26126W        W46406   9.505  13.541   9.679 -0.2573  0.1598  0.1325
26127W        W46407  13.605   5.015   4.360 -0.0511 -0.1930  0.2272
26128W        W46408  16.931   1.658  13.027 -0.1427 -0.3342 -0.0803
26129W        W46409   7.009  14.554  15.195  0.1215  0.1639  0.0919
26130W        W46410   1.694   9.712   2.108 -0.1597  0.0693  0.0953
26131W        W46411  17.988  12.932   5.332 -0.3133  0.0068 -0.2037
26132W        W46412   3.004   9.597  14.285 -0.1162 -0.1534  0.2021
26133W        W46413   0.112  15.876  12.717 -0.0847 -0.0907 -0.2045
26134W        W46414  13.571   5.769   1.670  0.2626 -0.2193  0.0889
26135W        W46415  14.335  15.724   1.623 -0.2152 -0.2989 -0.1427
26136W        W46416   1.362   0.502  11.560  0.0442  0.0625  0.0717
26137W        W46417   0.178   4.939  12.193 -0.1962  0.0272  0.3629
26138W        W46418   7.763   9.376  12.483 -0.0662 -0.2864 -0.0470
26139W        W46419  10.562  10.072  14.265  0.0494  0.0444 -0.0155
26140W        W46420  10.849   5.665   1.619  0.2181 -0.1431  0.1301
26141W        W46421  10.612  10.358   4.902  0.0950  0.2147 -0.2274
26142W        W46422   9.736   4.806  13.512  0.1636 -0.2599  0.2209
26143W        W46423   6.367   0.305  12.698  0.0085  0.1025  0.1076
26144W        W46424   4.727   6.968  14.523  0.0936 -0.2847  0.1728
26145W        W46425   2.231  11.503  11.344  0.0124 -0.0331 -0.1005
26146W        W46426  16.885  15.474  12.958  0.3560 -0.1513  0.1032
26147W        W46427  15.219   8.299   1.327 -0.1378  0.4666  0.0462
26148W        W46428  15.647   9.223  13.465 -0.0016 -0.2982 -0.0115
26149W        W46429   6.619  10.406  12.876  0.0323 -0.0198  0.0448
26150W        W46430   6.827  10.459  12.452 -0.1153  0.4060  0.1291
26151W        W46431   1.760   9.872  12.431 -0.0547 -0.0240  0.0288
26152W        W46432   9.417  11.929   5.079  0.3341  0.0613  0.4650
26153W        W46433   3.894  11.201   2.285 -0.1179 -0.0055 -0.0814
26154W        W46434  10.876   5.272   2.036  0.0495 -0.1097 -0.0285
26155W        W46435   1.322  14.867   3.975 -0.2875 -0.0405 -0.3247
26156W        W46436  10.978   8.682   1.384 -0.2140  0.1776 -0.2074
26157W        W46437  10.407  11.307  10.747  0.1473  0.0155  0.0754
26158W        W46438  12.947  15.472  12.726 -0.1326  0.0089 -0.1841
26159W        W46439   4.008  16.010  10.740  0.1601  0.1183  0.0902
26160W        W46440  16.799  12.000   0.119  0.1799  0.1401  0.1535
26161W        W46441   9.091   6.197  11.736  0.1497  0.1949  0.1370
26162W        W46442  14.658  15.062   4.243  0.1307  0.2164  0.1130
26163W        W46443   9.104  11.923  11.861  0.0171 -0.0014 -0.6578
26164W        W46444  10.795  15.523   1.740  0.0339 -0.1044  0.3371
26165W        W46445   5.142   8.362   3.142  0.0064 -0.1334 -0.0815
26166W        W46446  16.510   5.617   1.486  0.0844 -0.0956 -0.0508
26167W        W46447   0.607   6.213   5.019  0.0415 -0.2062  0.0848
26168W        W46448  12.247  14.414   1.598  0.2135 -0.0944 -0.3198
26169W        W46449  17.038   0.527   3.973 -0.0776  0.1733  0.0533
26170W        W46450  10.115   9.413  12.257 -0.0625  0.1203  0.1831
26171W        W46451   2.028  12.671   3.252 -0.0590 -0.1039 -0.3400
26172W        W46452   3.260   2.989  11.582 -0.0858 -0.1140 -0.0517
26173W        W46453   7.378   1.218  14.838 -0.1285  0.1867 -0.0182
26174W        W46454   3.970   1.885  12.451  0.1410 -0.1942  0.0162
26175W        W46455   8.994   2.993  12.437 -0.0363  0.2943 -0.1552
26176W        W46456   2.083  18.544   2.643  0.4892 -0.0002  0.0311
26177W        W46457  16.544   7.535   0.035  0.1580  0.1786 -0.0002
26178W        W46458   0.236   4.853   4.397  0.2420 -0.2677 -0.4759
26179W        W46459   6.672  10.479   4.068  0.2178 -0.0787 -0.0034
26180W        W46460   8.072   8.280   3.166  0.2170 -0.0085 -0.2275
26181W        W46461  17.832   9.812   0.905 -0.2192  0.1235  0.4463
26182W        W46462  17.730   4.914   1.921 -0.1232 -0.0838 -0.0720
26183W        W46463   2.040   5.855   2.337  0.1083  0.4260  0.1440
26184W        W46464  12.724   7.758  14.981  0.0580  0.0719 -0.0657
26185W        W46465   4.993   3.501  15.260  0.0206 -0.0611 -0.4432
26186W        W46466   1.669   3.315   4.769 -0.0032  0.2739 -0.2156
26187W        W46467  13.883   9.702  13.756 -0.1639  0.0558 -0.2021
26188W        W46468   2.068  17.174  12.892 -0.0160  0.2072 -0.1417
26189W        W46469  15.555   2.869   4.146 -0.2305 -0.0843  0.0009
26190W        W46470   4.916   7.525   5.485  0.2191 -0.2356  0.2898
26191W        W46471  10.523  10.685   1.305  0.1331 -0.1116  0.0952
26192W        W46472  15.594  10.966   3.900 -0.0032 -0.0048  0.2842
26193W        W46473  11.509   0.792  12.969  0.1114 -0.2592  0.1146
26194W        W46474   0.186   8.799   3.579 -0.1829 -0.1847 -0.0802
26195W        W46475  17.621   2.948   0.285 -0.2335 -0.0013  0.0768
26196W        W46476   5.784   0.271   1.150  0.1276 -0.0799 -0.2282
26197W        W46477   5.732   1.783   9.593  0.2253  0.1200  0.0578
26198W        W46478  15.732   6.032  14.692 -0.2062  0.0064 -0.0268
26199W        W46479  16.363  15.810   3.537  0.1469 -0.0627 -0.3636
26200W        W46480   1.732  11.555   0.617  0.1067 -0.0994 -0.1947
26201W        W46481  10.225   4.423  11.604  0.3493 -0.0770  0.4152
26202W        W46482   7.676   0.033  12.214 -0.0000 -0.1033  0.0909
26203W        W46483  13.079  13.341  11.355  0.4386  0.0544 -0.1456
26204W        W46484   5.488  17.856   0.715  0.0852 -0.2249 -0.3433
26205W        W46485   0.645  13.822  13.308 -0.2829  0.0877  0.3533
26206W        W46486   0.703  10.728  13.969 -0.0592  0.1129  0.1105
26207W        W46487  18.079  17.225   0.284 -0.2950  0.1967 -0.1607
26208W        W46488   5.379   1.051  10.578  0.2297  0.3074  0.2581
26209W        W46489   1.833  10.540   3.196  0.0069 -0.2040  0.2924
26210W        W46490   2.918  15.463  13.546  0.0539 -0.0671 -0.0573
26211W        W46491   0.905  10.229   3.591 -0.0965  0.1939  0.1898
26212W        W46492  15.368   2.345  12.353 -0.0511 -0.0525  0.0416
26213W        W46493  12.842   5.932  13.932  0.1136 -0.2109 -0.1609
26214W        W46494  12.590   5.634  13.348  0.0839  0.0710 -0.1134
26215W        W46495   2.410   6.563   4.495 -0.1249 -0.0525  0.0325
26216W        W46496  18.108   0.609  14.396  0.0132  0.1932  0.0042
26217W        W46497  15.623   6.500  11.242  0.3666 -0.3116 -0.0653
26218W        W46498   1.044  14.609   4.467 -0.1125 -0.0508  0.0569
26219W        W46499   4.072  10.041   1.655  0.3051  0.1734  0.0257
26220W        W46500   8.780   6.598   0.708  0.0270 -0.0771 -0.1672
26221W        W46501  10.169  14.467  13.151 -0.0275  0.2858 -0.1243
26222W        W46502   5.260   8.628   0.556  0.1256 -0.0164  0.0201
26223W        W46503   8.220  10.554   2.186  0.5142 -0.0535  0.0466
26224W        W46504  16.418  10.217  11.282 -0.0313  0.1845 -0.1029
26225W        W46505  18.547   1.048   2.842 -0.0263  0.2176 -0.0165
26226W        W46506   4.072  18.378   3.517  0.0434 -0.0752 -0.0817
26227W        W46507  15.586  12.698  14.376  0.0211 -0.2214  0.0507
26228W        W46508  17.105  16.841   2.901  0.0181 -0.3585 -0.2187
26229W        W46509   5.940   2.613   2.227  0.0462  0.1473 -0.0609
26230W        W46510   7.353   3.496  14.637  0.1524  0.0372 -0.0100
26231W        W46511  17.578  14.413   0.926 -0.0506  0.1936  0.0514
26232W        W46512  11.275   2.809  12.123  0.0791  0.0894  0.2931
26233W        W46513  10.363   9.284  10.572 -0.0355 -0.0186  0.0453
26234W        W46514   9.898   8.228   4.738  0.3745 -0.2096 -0.1969
26235W        W46515   6.523  10.620   0.924 -0.0497 -0.0369  0.0598
26236W        W46516   1.831   3.161   3.564  0.1095  0.2412  0.0777
26237W        W46517  15.084   6.957   3.885  0.2641  0.1003  0.0005
26238W        W46518   2.420   1.718  11.924 -0.2033 -0.1418 -0.1279
26239W        W46519  17.361   8.633   3.469  0.1616 -0.2339 -0.1749
26240W        W46520   9.281   7.406  12.144  0.1314 -0.1566  0.1016
26241W        W46521  15.767   1.894  14.473 -0.3275 -0.1602  0.2586
26242W        W46522   3.054   0.851  11.130 -0.0477 -0.0834  0.2084
26243W        W46523   4.411  15.781   3.181  0.2221 -0.0354 -0.1082
26244W        W46524   8.467   4.259  14.610  0.1128 -0.1427  0.1116
26245W        W46525   1.042  14.024   1.279 -0.0537 -0.1002  0.2207
26246W        W46526  10.702  13.425  14.804  0.2255 -0.0308  0.0645
26247W        W46527   8.061  15.950  11.644 -0.0827  0.1921 -0.1556
26248W        W46528   9.924  12.569  10.632  0.1321  0.0874 -0.2608
26249W        W46529  13.038   7.044  14.464 -0.0534  0.0084  0.1261
26250W        W46530  14.632   4.901   3.857 -0.1969 -0.0779 -0.2471
26251W        W46531  16.814  16.434  13.804  0.0428 -0.2191  0.0954
26252W        W46532  13.979  16.019   3.152  0.2521  0.0952  0.4320
26253W        W46533   0.192   4.743  11.214 -0.0705  0.0070 -0.0856
26254W        W46534   3.983  13.508   0.775 -0.0647  0.1674  0.0620
26255W        W46535   7.229  12.108   3.567 -0.0256  0.1570 -0.0749
26256W        W46536   9.254   6.061  12.691 -0.0123  0.0797  0.1705
26257W        W46537  14.635  13.753  10.078 -0.0396  0.1408  0.2207
26258W        W46538   1.207   2.884  14.814  0.1839  0.0895  0.2089
26259W        W46539  12.372   9.512  14.714 -0.0634  0.0872  0.1037
26260W        W46540  11.726  18.622  14.668 -0.0937 -0.0708 -0.2877
26261W        W46541   5.079   6.580  13.678  0.1571  0.0825 -0.0674
26262W        W46542  16.848  16.703   4.683 -0.1505  0.1562  0.0866
26263W        W46543  11.584  10.953  11.462  0.1057 -0.1493  0.0575
26264W        W46544  11.585  16.054   3.594  0.2527 -0.2408  0.2264
26265W        W46545   3.589   1.218  12.212  0.1905  0.2670 -0.0312
26266W        W46546  10.073  10.069  12.813 -0.3280  0.1568 -0.1452
26267W        W46547  13.705  15.997  11.195  0.1977 -0.0720 -0.0340
26268W        W46548   7.514  17.597   0.493 -0.1010 -0.0482  0.0358
26269W        W46549  11.055  16.889   2.066 -0.2276  0.3117 -0.0690
26270W        W46550   7.724   0.786  11.749  0.2475  0.0142  0.2713
26271W        W46551  17.926  18.032   2.896 -0.0795 -0.2909 -0.1479
26272W        W46552  17.855  12.536  11.610 -0.0476 -0.0976  0.0088
26273W        W46553   8.404  17.518   0.481  0.1097 -0.1069 -0.2512
26274W        W46554   0.119  13.240  13.827 -0.0989 -0.0283 -0.0264
26275W        W46555  16.108  17.986  14.714  0.0138  0.0943 -0.0368
26276W        W46556  17.821   0.129  12.550  0.2880  0.2823  0.0490
26277W        W46557  16.243   9.308  14.220 -0.0741  0.1505 -0.0766
26278W        W46558   7.730  16.854  11.017 -0.0620  0.0696  0.1813
26279W        W46559  15.994   4.418   4.369  0.0175 -0.0594  0.1220
26280W        W46560  15.125  16.389   1.313 -0.1945  0.2253  0.1375
26281W        W46561   0.489  16.107  15.027  0.2005  0.2757  0.0901
26282W        W46562   4.225   4.433  12.993  0.0617 -0.0329 -0.0364
26283W        W46563  14.474   1.537   2.962 -0.3070  0.0177 -0.0161
26284W        W46564   3.729   3.586   1.152  0.0108 -0.1847  0.0071
26285W        W46565   6.824   1.517  10.720 -0.1659  0.1724 -0.2132
26286W        W46566   2.728   4.465  14.070 -0.0737 -0.2416 -0.2304
26287W        W46567   6.808   6.697   3.177 -0.2604 -0.0051  0.3380
26288W        W46568   0.538   7.056  13.497  0.1464  0.3465  0.0026
26289W        W46569   6.256  18.034  11.869 -0.1271 -0.1189  0.0006
26290W        W46570   4.106  17.093   4.084  0.0279 -0.1737  0.0438
26291W        W46571   3.181   9.436   0.873 -0.2751 -0.1566  0.4109
26292W        W46572   4.753  12.657  13.244  0.1518 -0.1693  0.0209
26293W        W46573   0.170  18.676   9.850  0.2958 -0.1183  0.0037
26294W        W46574   7.554  18.526  15.354  0.1485 -0.0387 -0.0538
26295W        W46575   6.218   8.698  11.594 -0.1641 -0.1937 -0.0352
26296W        W46576  11.052   5.995   2.435  0.1374  0.0341 -0.0458
26297W        W46577   1.736  17.434  10.989 -0.1373 -0.0380 -0.1822
26298W        W46578  17.871  14.361  12.323 -0.1582  0.0805  0.1950
26299W        W46579  12.731   0.336   0.815 -0.1340  0.1617 -0.0230
26300W        W46580  12.710  14.659  14.522  0.0136 -0.1771  0.3489
26301W        W46581   3.686   1.219   1.332 -0.0476 -0.1104  0.1437
26302W        W46582  17.673  10.826  12.945 -0.1436  0.0872 -0.1991
26303W        W46583  10.301  16.863   5.104  0.0738 -0.0382 -0.0522
26304W        W46584  18.253  13.428  10.594  0.0518  0.0623 -0.1912
26305W        W46585  16.033   6.293   0.485 -0.1605  0.2937 -0.1250
26306W        W46586  17.352   9.537  13.234  0.1136 -0.2005  0.2324
26307W        W46587  11.386  14.428  13.813  0.0962 -0.2049  0.0069
26308W        W46588  12.891   4.503   4.477 -0.0320 -0.0120 -0.1980
26309W        W46589   6.292   2.448   2.674  0.0064  0.3509  0.2830
26310W        W46590  17.572  13.989   1.940  0.2584 -0.0562  0.0911
26311W        W46591   3.626   2.438  15.127 -0.0853  0.4904  0.1020
26312W        W46592   9.209   0.661   0.940 -0.0767  0.1136  0.1666
26313W        W46593  17.667   9.874  14.966  0.0162 -0.2403 -0.0902
26314W        W46594   2.864   6.320  11.676  0.0808  0.0851 -0.0441
26315W        W46595   7.041  16.561   3.067 -0.3712  0.0970 -0.0682
26316W        W46596   5.883   4.609   0.592  0.0296 -0.0177 -0.6091
26317W        W46597   4.462   5.410   3.598  0.0896  0.1342 -0.4280
26318W        W46598  11.012   9.063  14.568 -0.1375  0.0748 -0.0863
26319W        W46599   3.983   1.886  14.525 -0.0349 -0.0522  0.1156
26320W        W46600   7.478   1.892   1.272  0.2150 -0.1684 -0.1247
26321W        W46601  14.900   6.424   1.392 -0.0318  0.1534 -0.4319
26322W        W46602  14.738   5.732   2.392 -0.2456  0.4058  0.0622
26323W        W46603  11.660   6.633   1.162  0.0276  0.1447 -0.1340
26324W        W46604   9.678   1.795   3.123 -0.3383  0.1544  0.0923
26325W        W46605   5.838  12.542  10.717 -0.0226 -0.0684 -0.3233
26326W        W46606   9.588   6.488  11.914  0.2144  0.4676  0.0831
26327W        W46607  17.549  11.047  12.377 -0.0063 -0.1927 -0.2243
26328W        W46608  10.859   7.388   1.827 -0.0014 -0.1203 -0.2940
26329W        W46609  17.243   4.440   4.390 -0.1418 -0.1027 -0.2580
26330W        W46610   2.249  14.955  12.015 -0.0750 -0.1946  0.0310
26331W        W46611  17.907  12.332  14.727  0.0536 -0.2129  0.2818
26332W        W46612  13.614  18.592   1.333  0.0202  0.2414  0.1593
26333W        W46613   0.758   8.804  13.633  0.0770 -0.1344 -0.0787
26334W        W46614  11.044   2.396  10.974 -0.2255 -0.4591 -0.2174
26335W        W46615   2.602   0.110  12.133  0.3173  0.3175  0.1005
26336W        W46616   6.485  14.503  13.806  0.0679 -0.0259 -0.0639
26337W        W46617   9.319  10.907  11.736 -0.0365  0.0663 -0.0305
26338W        W46618   6.829   2.527   2.488  0.2968  0.0441 -0.2236
26339W        W46619  18.301  14.707   4.174  0.2050  0.0180 -0.0694
26340W        W46620  12.613  18.033  12.553 -0.1932 -0.2454  0.0218
26341W        W46621   9.756  10.351   2.013  0.1448 -0.1238  0.2843
26342W        W46622   7.972   2.790   3.208  0.2108  0.0045 -0.0360
26343W        W46623  18.739   9.545   4.123 -0.2306  0.0818 -0.2450
26344W        W46624   3.165   7.415   1.563  0.3054 -0.4191 -0.0531
26345W        W46625  12.874   2.568   3.738 -0.0953 -0.0429  0.0094
26346W        W46626  15.725  18.429  13.639 -0.2320 -0.0106  0.0696
26347W        W46627   6.917  12.064  13.763 -0.1455  0.1096 -0.1055
26348W        W46628  16.541  13.607   0.142 -0.1414  0.1066  0.1030
26349W        W46629   8.039  17.220  13.645  0.0820  0.2786 -0.1245
26350W        W46630   5.092  18.291   3.851  0.0895 -0.0936  0.1214
26351W        W46631   6.076  14.634  14.274 -0.0387  0.1244  0.1375
26352W        W46632   0.507   3.703   4.370 -0.2211  0.1727 -0.5580
26353W        W46633  17.599   0.041   1.444 -0.2143  0.4007 -0.0756
26354W        W46634  11.710  18.193  11.572  0.1904 -0.0924 -0.1874
26355W        W46635  13.388  17.332  11.546  0.0967 -0.3207 -0.0652
26356W        W46636   1.293  10.128   2.252  0.1110 -0.2108  0.5124
26357W        W46637   2.515   0.494   0.432  0.3030 -0.3394  0.0736
26358W        W46638  17.966   4.558   0.103 -0.0226  0.0589  0.0167
26359W        W46639   7.337   3.199  12.949 -0.0562 -0.2746 -0.0704
26360W        W46640   6.050  10.380   5.279 -0.1704  0.0616 -0.0951
26361W        W46641  16.552  10.447  12.258  0.2843 -0.1299  0.0372
26362W        W46642   7.902   9.881   2.709  0.1416 -0.1690  0.1055
26363W        W46643   1.107   6.903   5.003  0.0126 -0.0339 -0.0284
26364W        W46644   2.309  13.882  12.970  0.0326 -0.0258  0.0790
26365W        W46645  11.390   7.783   2.190  0.0549  0.2780  0.1032
26366W        W46646   9.587  18.184   0.981  0.0732  0.2211 -0.0520
26367W        W46647   3.425   9.881   0.842 -0.0276 -0.0553 -0.2516
26368W        W46648  12.171   0.535   1.047 -0.0453  0.2659  0.0689
26369W        W46649  11.950  11.804   2.775  0.1187  0.0017  0.0628
26370W        W46650   0.823  14.511  13.906  0.1221  0.0029 -0.3328
26371W        W46651   1.171   4.261   3.895  0.1887 -0.1958 -0.0671
26372W        W46652  15.284   2.095   4.515 -0.1359  0.1106 -0.1186
26373W        W46653  13.264   0.232   4.082 -0.0129 -0.2225 -0.2282
26374W        W46654   1.360  12.773  13.768 -0.0019 -0.2200  0.0444
26375W        W46655   5.443   2.962  12.675  0.1391  0.1311 -0.4504
26376W        W46656  18.744   0.982  15.274 -0.0637 -0.0087  0.1328
26377W        W46657  18.105  17.070   2.857  0.1724 -0.0498 -0.2330
26378W        W46658  11.243   4.346   3.539  0.2769  0.3391 -0.3106
26379W        W46659   8.893  10.510  15.158 -0.4110 -0.0246 -0.2252
26380W        W46660  18.362  17.978  10.335  0.0932  0.0902  0.1180
26381W        W46661  11.580   4.441   1.074 -0.0268  0.2226  0.1518
26382W        W46662  18.237  17.111   4.260 -0.1920 -0.1912  0.0396
26383W        W46663  14.793  12.825  11.546 -0.0561  0.3221  0.1342
26384W        W46664   8.002  11.420  13.139  0.0923 -0.2489 -0.0049
26385W        W46665   5.293  16.085  13.169  0.1363 -0.1821 -0.3629
26386W        W46666  10.399  12.179   4.509  0.2462 -0.0488  0.0335
26387W        W46667  18.144  16.085   4.717 -0.2926 -0.0069  0.3665
26388W        W46668  18.744   2.816  11.078  0.2180 -0.0657  0.0419
26389W        W46669   1.311   6.795   1.235  0.1477 -0.1560  0.1612
26390W        W46670  10.200  17.385  12.650 -0.1453  0.0697  0.0845
26391W        W46671  10.249   9.322   1.389  0.0548 -0.1309 -0.0867
26392W        W46672   2.194  12.491  14.755 -0.1736  0.1191  0.0940
26393W        W46673  16.284   9.985   2.967  0.0283  0.1405  0.0470
26394W        W46674  15.168  18.315  14.720 -0.1419 -0.1348  0.0031
26395W        W46675   3.692   5.018   0.431  0.0275 -0.0027  0.1321
26396W        W46676   9.894  17.711   3.852 -0.2852  0.0092  0.2059
26397W        W46677  17.498  10.061  12.037  0.0487 -0.1961  0.2458
26398W        W46678   8.120  13.281  14.676 -0.0174 -0.0426 -0.2174
26399W        W46679   3.047  17.620  11.518 -0.0300 -0.0981 -0.0855
26400W        W46680   9.789   6.175  13.439 -0.0892 -0.0481 -0.2325
26401W        W46681  15.556   7.483  15.245  0.2900  0.1284  0.0297
26402W        W46682   4.667   5.654  11.272 -0.0260  0.0907  0.1659
26403W        W46683  13.457  10.382  13.085 -0.0585 -0.0710  0.0268
26404W        W46684  16.066   2.627  14.514 -0.3949 -0.2308 -0.0437
26405W        W46685   8.247  14.121  12.224  0.3478  0.0932  0.0353
26406W        W46686   3.583  13.269   5.441  0.0902 -0.0660  0.3904
26407W        W46687  16.379  17.609  12.060 -0.3985  0.2681 -0.0588
26408W        W46688   4.924  10.987   4.527  0.1883  0.0780  0.0562
26409W        W46689   6.247  14.636   2.222  0.1070 -0.1948  0.0033
26410W        W46690  17.709   1.396   3.232  0.3307  0.0870 -0.3140
26411W        W46691   6.679  14.663   1.498  0.2049 -0.0427 -0.4678
26412W        W46692  15.079   0.252   4.091  0.3150  0.1459 -0.0345
26413W        W46693   2.105  13.474  10.855 -0.0112 -0.2555  0.0353
26414W        W46694  13.363  16.249   1.789  0.0644  0.3210 -0.0486
26415W        W46695  10.893   0.549   3.183  0.0500  0.4303  0.0105
26416W        W46696   7.708   6.399  14.353 -0.2011  0.5194 -0.0058
26417W        W46697  16.055   1.952   4.172 -0.1355  0.1461  0.1428
26418W        W46698  14.252  11.836   2.353 -0.1170  0.2705  0.1186
26419W        W46699  13.527   7.949   3.756  0.1579 -0.1618 -0.0124
26420W        W46700  15.247   6.131   2.857  0.4007  0.2787 -0.0728
26421W        W46701  16.806   6.118  13.446  0.0267 -0.0588 -0.2186
26422W        W46702   5.893  12.483   4.272 -0.1593 -0.3018 -0.1641
26423W        W46703   0.879  17.412  11.280  0.1912 -0.2982  0.2163
26424W        W46704   9.486   7.311  14.103 -0.1814  0.0606  0.0810
26425W        W46705   5.922   7.287  15.243 -0.0197  0.3118  0.0535
26426W        W46706   0.262  14.312  14.693  0.3328  0.2390 -0.0107
26427W        W46707  17.217  13.043   4.758  0.1913 -0.1678 -0.2091
26428W        W46708  16.591   6.614   3.873 -0.0697  0.1051  0.1331
26429W        W46709  17.691   2.694  13.273  0.1139 -0.0860 -0.2128
26430W        W46710  11.292   7.349   1.640  0.3092  0.1575 -0.0938
26431W        W46711  18.740   4.423  13.082  0.0330  0.1182  0.1238
26432W        W46712   0.035   7.130  12.744  0.0594 -0.5097 -0.0966
26433W        W46713  17.174   7.392  13.706  0.2725  0.0704  0.0236
26434W        W46714  13.938  18.412  12.098 -0.6327  0.2585 -0.1566
26435W        W46715   8.509   8.636   4.049 -0.1302 -0.0433 -0.2011
26436W        W46716   0.108  16.216   2.571  0.0272 -0.0293  0.0209
26437W        W46717   4.286  13.611  12.067  0.3089 -0.0774  0.0521
26438W        W46718  16.687   9.698  15.127 -0.3382  0.1741 -0.0170
26439W        W46719   7.304  15.223  12.541 -0.0909  0.2046  0.2382
26440W        W46720   4.145   6.690   3.326  0.1153 -0.2477  0.1395
26441W        W46721   5.908  13.027  15.040 -0.0020  0.1904 -0.1022
26442W        W46722  17.697  16.675   1.034  0.0991  0.0662  0.0221
26443W        W46723  12.242  18.073  11.145 -0.0001 -0.0961 -0.0165
26444W        W46724   2.575  17.122  12.971 -0.1102  0.3752 -0.0407
26445W        W46725   9.864  10.606   2.827 -0.3199 -0.1032  0.0428
26446W        W46726  13.824  17.506  12.731 -0.1833  0.3008 -0.1990
26447W        W46727  13.051   0.623   0.501 -0.0075  0.1644 -0.0478
26448W        W46728  14.838   5.941   3.250  0.0342 -0.0736 -0.2052
26449W        W46729   6.124   5.071  13.892 -0.4174  0.1084  0.2310
26450W        W46730   1.031   6.409   0.715 -0.2394 -0.3255  0.4681
26451W        W46731   0.081  11.046   3.283 -0.0358 -0.3432  0.1739
26452W        W46732  18.533  14.237   0.004  0.2910 -0.0620  0.3155
26453W        W46733  10.664  18.476   1.980 -0.0592  0.0634 -0.1500
26454W        W46734   7.982   6.078   0.093 -0.0406  0.0200  0.0587
26455W        W46735   7.792  12.529  13.978  0.0578 -0.2334  0.2752
26456W        W46736   3.563  16.444  15.178 -0.1099  0.1283  0.0525
26457W        W46737   5.628  13.647   3.679 -0.2323  0.1320  0.0261
26458W        W46738  10.654   3.724   1.744 -0.1611  0.0948  0.1362
26459W        W46739   4.800  12.606   1.196  0.1326 -0.0504 -0.1045
26460W        W46740  16.421   5.116  15.057 -0.0550  0.0222 -0.0903
26461W        W46741   9.995  11.982  11.242  0.4150  0.1139  0.1393
26462W        W46742   2.052  16.376   1.560 -0.3642  0.2797  0.0414
26463W        W46743  17.218   0.708  13.113  0.0156  0.2653 -0.0518
26464W        W46744   7.504  12.273  14.343  0.0485 -0.1262  0.2449
26465W        W46745   0.705   5.624   1.754 -0.1009  0.0688 -0.0318
26466W        W46746   2.544   0.386  13.330 -0.0568 -0.2109  0.0201
26467W        W46747   8.402  15.755  13.275 -0.0282 -0.0218 -0.4380
26468W        W46748   4.091  12.553   0.032  0.0491  0.1209  0.3336
26469W        W46749   0.763   1.204   0.288 -0.1156  0.2270 -0.0903
26470W        W46750   5.284  14.566   3.603 -0.0292 -0.1806 -0.0226
26471W        W46751  13.246  17.280   4.446 -0.3153  0.2644  0.2588
26472W        W46752   2.225  16.043   0.294 -0.1007  0.1037 -0.0338
26473W        W46753   0.296   3.207  12.053 -0.0547 -0.4227  0.0141
26474W        W46754  17.055   5.226   3.294 -0.2857  0.2880 -0.1655
26475W        W46755  14.502   4.497   4.086 -0.1147  0.1568 -0.1829
26476W        W46756   4.008  17.970  13.858 -0.0297  0.1537  0.1632
26477W        W46757  16.641  10.934   4.188  0.1486 -0.1310 -0.0415
26478W        W46758   8.089  15.160   1.003 -0.1181 -0.0753 -0.3334
26479W        W46759   7.660   8.255   0.080  0.0831  0.0923  0.1259
26480W        W46760   8.600  14.434   2.494  0.0870  0.1052  0.1061
26481W        W46761  10.434   3.926  12.486 -0.0275  0.1405  0.2648
26482W        W46762  11.910  11.444   3.651 -0.0532  0.3106  0.1354
26483W        W46763  10.716  16.107  14.459 -0.2596 -0.2013 -0.0395
26484W        W46764  16.273   0.659   3.741 -0.2122 -0.0537  0.0256
26485W        W46765   9.479  18.710   1.255  0.0131  0.1322  0.0642
26486W        W46766   0.089   8.538   4.402  0.1229  0.2034 -0.0363
26487W        W46767   8.352  14.320   0.944 -0.3542  0.1473  0.0969
26488W        W46768   3.394   5.527  11.908  0.2133  0.1235  0.1119
26489W        W46769   3.846   0.329   2.568 -0.1156  0.2508 -0.1568
26490W        W46770  16.457   0.598  14.656 -0.0444 -0.1086 -0.3241
26491W        W46771  12.715   3.071  14.386 -0.0004 -0.1721  0.2164
26492W        W46772   9.554   3.584   0.800 -0.1330 -0.0416 -0.2572
26493W        W46773  13.468  15.130   2.685 -0.0526  0.4084  0.1189
26494W        W46774  17.294   6.526  14.070  0.2647  0.1649 -0.1915
26495W        W46775   4.606   5.029  11.988  0.1577  0.2142 -0.2803
26496W        W46776   6.384   2.805  10.861 -0.5726  0.0354 -0.0021
26497W        W46777   8.065  16.822   4.095  0.0279 -0.2935  0.1169
26498W        W46778   9.267  16.764  13.223 -0.0111 -0.3863  0.0386
26499W        W46779  10.738   5.652  14.451  0.1024 -0.1795 -0.2207
26500W        W46780   6.707  14.889   2.462  0.0316 -0.0008  0.1777
26501W        W46781  14.727   3.447  11.303 -0.0679 -0.2080  0.0265
26502W        W46782   4.720   7.125   0.038  0.0001 -0.2312 -0.1619
26503W        W46783  12.359  10.674   0.710 -0.2308 -0.0986  0.1643
26504W        W46784  18.238  18.043  14.673 -0.1570 -0.4535 -0.1695
26505W        W46785  10.290  16.468  11.673 -0.3650 -0.1494  0.0122
26506W        W46786  17.807  18.696   3.514 -0.3109 -0.0267 -0.1396
26507W        W46787   5.279   7.082   0.886 -0.0514 -0.1761 -0.0648
26508W        W46788   8.975   2.505  12.546  0.1097  0.0927 -0.1288
26509W        W46789  10.010   9.886   0.582  0.0743  0.0214 -0.1739
26510W        W46790  16.227   3.746  12.249 -0.0404  0.2996 -0.4130
26511W        W46791   7.603   5.762  13.105 -0.2247 -0.1950 -0.2967
26512W        W46792  14.309  16.971  14.069 -0.1606 -0.3632 -0.0853
26513W        W46793  13.643   7.049  12.903  0.1176  0.0443  0.1430
26514W        W46794  11.683  13.439  13.614 -0.0895  0.2939  0.2523
26515W        W46795   9.346  14.477  13.197 -0.2772 -0.1209 -0.3581
26516W        W46796  10.965  10.802   2.231 -0.1941 -0.2369  0.0498
26517W        W46797   2.683   6.754   3.866 -0.3106  0.1629 -0.0930
26518W        W46798   6.793   7.010  13.004 -0.0229  0.1400  0.2312
26519W        W46799  18.151   0.553   3.149 -0.0853 -0.2386 -0.1693
26520W        W46800   6.021  12.538  14.979 -0.2824  0.2530  0.2630
26521W        W46801  17.718   1.001  11.241 -0.0285  0.1511  0.0191
26522W        W46802  14.683  13.481  11.413 -0.0080  0.1188  0.1908
26523W        W46803   3.907   2.776  14.849 -0.5446 -0.0315 -0.0884
26524W        W46804  16.348   3.248   2.214  0.0289 -0.1711  0.1275
26525W        W46805  13.807  12.650   2.620 -0.0441 -0.0020 -0.2757
26526W        W46806   4.491  13.365  10.921 -0.1699  0.0217  0.2242
26527W        W46807   4.608  17.032   2.876  0.2751 -0.1649  0.0513
26528W        W46808   7.911   0.442   3.390  0.0100 -0.0920  0.1326
26529W        W46809   5.166   2.092   1.771  0.2361  0.3213  0.1072
26530W        W46810   1.902   4.694   4.680  0.0294  0.0898 -0.1810
26531W        W46811   4.730  10.933  14.639 -0.0872  0.1684  0.1539
26532W        W46812   7.938  12.509  13.273 -0.0763  0.1537  0.1713
26533W        W46813   5.295   7.674  11.529 -0.0593 -0.1768  0.0721
26534W        W46814  14.173   0.123   0.133  0.0058 -0.2657 -0.0596
26535W        W46815   2.354   4.160  15.371 -0.0526 -0.1763 -0.0091
26536W        W46816  10.822  13.110   1.137 -0.1017 -0.2056  0.2022
26537W        W46817   1.417  14.796  15.022  0.1425 -0.1511 -0.0363
26538W        W46818  12.443   0.657  10.142  0.2129 -0.2372 -0.0414
26539W        W46819  11.924   1.147  11.569 -0.1273 -0.2429  0.0652
26540W        W46820   2.924   6.074   1.881  0.0477 -0.0247  0.2134
26541W        W46821   6.563   0.151   1.652  0.1721  0.2447  0.1159
26542W        W46822  16.585   4.964  11.928  0.0219  0.1213  0.0364
26543W        W46823   6.657   6.608  11.838 -0.0051 -0.1068 -0.3338
26544W        W46824   4.588   8.329  12.637  0.0076 -0.1627 -0.0462
26545W        W46825   2.245   5.648  14.223 -0.0020 -0.2212 -0.2668
26546W        W46826   0.085  16.254  14.615  0.2982  0.0663 -0.0199
26547W        W46827  17.573  16.866  14.367  0.0104  0.1014  0.2019
26548W        W46828  12.671   7.105  14.116 -0.1367  0.2508 -0.2519
26549W        W46829   6.055   0.922  14.669  0.1663  0.0038 -0.1666
26550W        W46830  15.076  15.819  11.986  0.1032 -0.1885  0.1461
26551W        W46831  10.626  18.148   0.356  0.1004 -0.0667 -0.3577
26552W        W46832  17.817  16.354   2.200 -0.1982  0.1953  0.0332
26553W        W46833  15.012  11.248  14.167 -0.1626  0.0086  0.0960
26554W        W46834  17.331  12.653   0.821 -0.0151 -0.0783 -0.0406
26555W        W46835  12.243   8.784   3.795  0.0744 -0.1036  0.0320
26556W        W46836  10.565  10.660   0.762  0.0570 -0.1509  0.1070
26557W        W46837   0.628  12.294   0.857  0.0744  0.0580  0.0831
26558W        W46838   9.585  15.054  14.165  0.1386 -0.1620 -0.0618
26559W        W46839   3.469   9.472  14.435  0.1723  0.3031  0.0280
26560W        W46840  12.970  14.563   3.603 -0.1029 -0.1306  0.1879
26561W        W46841   9.979  10.541  12.873  0.1192 -0.1067 -0.0441
26562W        W46842  18.151  12.142  13.877  0.0271  0.1565  0.1198
26563W        W46843  15.775  13.169   3.184 -0.0044 -0.0321  0.4458
26564W        W46844   8.105   0.034  14.519 -0.3851 -0.2192  0.0254
26565W        W46845  10.656  14.812  14.351 -0.3820 -0.0260 -0.0539
26566W        W46846  11.450  15.144  12.141  0.3597  0.1306 -0.2481
26567W        W46847   3.676  13.247  13.306  0.0661  0.0420  0.2259
26568W        W46848   0.214  15.130   0.984  0.0275 -0.0733  0.1204
26569W        W46849   1.175  16.119  15.346 -0.3624  0.0195  0.0504
26570W        W46850   9.515   7.151   0.652 -0.1120 -0.1314 -0.0639
26571W        W46851   8.021   0.902  13.123 -0.0756  0.1448  0.0614
26572W        W46852   4.417   8.627  11.187  0.2251  0.0635  0.1390
26573W        W46853   3.389  16.289   2.026  0.2101 -0.1844 -0.0106
26574W        W46854  18.664  12.879   3.519 -0.1202  0.3889  0.0738
26575W        W46855  13.309  13.781   0.951  0.4227 -0.1622 -0.0324
26576W        W46856  11.803   4.703   0.725 -0.2579  0.2619 -0.1770
26577W        W46857   3.260  18.720   0.878  0.1430  0.0622 -0.1753
26578W        W46858  17.651  10.451  13.322 -0.0091 -0.0502 -0.1775
26579W        W46859   2.078   3.569   1.912 -0.0359 -0.2628 -0.1193
26580W        W46860   9.998  16.180   1.253  0.1750  0.2079  0.0876
26581W        W46861   0.859  10.639   0.528  0.2692  0.0151 -0.0748
26582W        W46862  17.281   8.330   1.943 -0.0191 -0.3393  0.5042
26583W        W46863  17.493   2.631   1.922  0.3574 -0.1787  0.0702
26584W        W46864  18.282   8.300   3.264 -0.0836  0.1628  0.1191
26585W        W46865  10.429   2.051  10.222  0.0650  0.2065  0.2004
26586W        W46866  12.670  10.024   3.172 -0.1038  0.1384  0.1065
26587W        W46867  14.062   0.263  15.055  0.0370  0.0514 -0.1588
26588W        W46868  16.009   5.926  12.021  0.1483  0.1358  0.1408
26589W        W46869  17.343   3.139  14.723  0.0351  0.3347  0.0679
26590W        W46870   2.983  18.650   3.562 -0.0181 -0.1504 -0.1617
26591W        W46871  16.078   8.369  11.256  0.1416 -0.0765  0.2540
26592W        W46872   6.160   0.467   1.489  0.0759  0.0727  0.1461
26593W        W46873  16.772  12.106   3.133 -0.0574 -0.1361  0.0838
26594W        W46874   1.322  17.193   0.564 -0.1843 -0.5156  0.1141
26595W        W46875   0.989   2.426  11.768 -0.1694  0.2703 -0.0019
26596W        W46876   9.037   0.157   3.887 -0.4966 -0.1169  0.1553
26597W        W46877  15.952   0.735  14.605  0.0785 -0.1412 -0.2484
26598W        W46878  15.745  17.515   2.383 -0.1828  0.0017  0.1720
26599W        W46879  14.637   8.963   2.548  0.3624 -0.0619 -0.1902
26600W        W46880   1.973   7.665  12.388  0.1219 -0.1177 -0.0775
26601W        W46881  17.331   0.072   0.978  0.2564  0.0530  0.0953
26602W        W46882   8.356  11.865  13.755  0.3060  0.3840 -0.0363
26603W        W46883   2.375  17.811   4.665 -0.1720  0.1495 -0.2017
26604W        W46884  11.035  16.184  11.059 -0.1358 -0.0851 -0.0884
26605W        W46885   8.381  11.020  13.081  0.1513  0.1919 -0.1246
26606W        W46886   6.938   5.486  12.804 -0.2132 -0.1236  0.0953
26607W        W46887   4.334   3.491   3.429 -0.2028  0.2732 -0.0717
26608W        W46888  11.416  13.936   1.079  0.2950 -0.0722 -0.1954
26609W        W46889   5.484  18.321  15.378  0.1879  0.1006 -0.0742
26610W        W46890   0.902  14.428  12.240 -0.4775  0.1313 -0.1742
26611W        W46891   7.526  13.585   3.499  0.0837  0.0918  0.0671
26612W        W46892   7.694   4.088  12.030  0.3449 -0.0443 -0.3308
26613W        W46893   6.838   7.643   3.249 -0.3658  0.0418 -0.2838
26614W        W46894  16.322   1.379  12.274  0.2627 -0.1196 -0.0223
26615W        W46895  17.548   2.668  14.695 -0.2677 -0.3946 -0.1234
26616W        W46896  10.089  18.216  13.698  0.1475 -0.3042 -0.0188
26617W        W46897   8.223  15.979   3.682  0.0111  0.2637 -0.0745
26618W        W46898  15.114   8.155  14.976  0.0564 -0.4220 -0.0437
26619W        W46899   3.491  17.076   0.805 -0.2136 -0.5206  0.0578
26620W        W46900  13.937   8.715   1.982 -0.1579  0.0303  0.2505
26621W        W46901   2.251  18.200   1.983 -0.1928 -0.2195  0.2095
26622W        W46902  15.431  18.027   0.821  0.0409  0.4335  0.1035
26623W        W46903  16.778  11.698   2.776 -0.0908 -0.2546  0.2862
26624W        W46904   6.521   5.275   2.709 -0.0551  0.1923 -0.0954
26625W        W46905  14.328  17.633   3.934  0.0960  0.1906  0.1016
26626W        W46906   4.535  15.150   2.393  0.0324 -0.0885  0.2052
26627W        W46907  18.195   6.574  13.739  0.0702 -0.1121  0.3179
26628W        W46908  10.065  11.576   3.920 -0.3320 -0.5310  0.1556
26629W        W46909   8.270  18.677   4.401 -0.2819  0.2578  0.0071
26630W        W46910  12.995   4.214  11.587  0.1252 -0.5298  0.1220
26631W        W46911  13.152  12.524   1.824 -0.1103 -0.2152  0.0142
26632W        W46912   0.999  15.455   1.163  0.1269  0.0035 -0.0498
26633W        W46913  12.091  14.452  14.510  0.1176 -0.0450  0.0010
26634W        W46914  15.385  14.441  12.809 -0.0078  0.0317 -0.2103
26635W        W46915   5.080   5.525   1.010 -0.0493 -0.3137 -0.0324
26636W        W46916  15.586  13.175  15.168 -0.1203  0.3147  0.3032
26637W        W46917   8.815   7.305   4.464  0.1196 -0.0192 -0.2210
26638W        W46918   6.686   2.941   2.803 -0.2074  0.1708  0.1595
26639W        W46919   9.692  11.028  14.642  0.1838  0.0302 -0.3028
26640W        W46920   0.628   6.449  12.049  0.1015 -0.1738 -0.2144
26641W        W46921   9.442  12.577  14.935  0.0837  0.3415 -0.0612
26642W        W46922   6.636  10.442   1.403  0.2718  0.0335  0.0242
26643W        W46923  10.080   4.981   2.807  0.1769  0.0234  0.0484
26644W        W46924   1.424   8.172   4.611  0.0663 -0.0333  0.0857
26645W        W46925   2.290  14.611  12.482  0.0270 -0.3095 -0.0641
26646W        W46926  16.073  12.815  12.564  0.2496 -0.0035  0.3546
26647W        W46927  17.374   8.279   2.832  0.0847 -0.3508 -0.0614
26648W        W46928  12.090   3.353   2.850 -0.1186 -0.2246  0.0454
26649W        W46929  14.714   2.686  13.381  0.1841  0.0789 -0.0337
26650W        W46930  10.316  17.184  14.768 -0.0803 -0.2009  0.0806
26651W        W46931   8.171  18.068  13.511 -0.2147 -0.2243  0.0284
26652W        W46932   0.282   7.209  15.121 -0.1216 -0.1181  0.1559
26653W        W46933  14.690   6.823   4.165  0.0658  0.0682  0.0422
26654W        W46934   3.989   0.983   1.658 -0.0081 -0.3100  0.0060
26655W        W46935  10.930  16.004   1.841  0.0736  0.2562 -0.0977
26656W        W46936  16.264  12.866  14.078 -0.0790  0.1636  0.0862
26657W        W46937  10.072  15.594  12.003  0.1233  0.3590  0.2788
26658W        W46938   4.348  15.033  10.515  0.1968 -0.4191  0.1844
26659W        W46939   1.642  12.911  13.195 -0.0712 -0.1338  0.1737
26660W        W46940   8.606  12.094   4.130 -0.0146 -0.2956  0.2945
26661W        W46941   4.317  11.264  14.695  0.2187 -0.2074  0.1711
26662W        W46942  15.714   4.189  12.925  0.1145  0.0431  0.3498
26663W        W46943  14.139   0.602  14.685 -0.0704  0.0659 -0.1008
26664W        W46944   3.726  18.083  12.977  0.0624 -0.3164 -0.0569
26665W        W46945  10.882  10.199  12.709  0.0600 -0.2906  0.0054
26666W        W46946  10.645   7.670   0.519 -0.1521 -0.0130  0.2278
26667W        W46947  11.405   8.421   3.154  0.2557  0.0881 -0.2280
26668W        W46948  13.556   2.293   0.587  0.0147 -0.1435  0.1800
26669W        W46949   8.550   6.325  12.064 -0.1884 -0.2613  0.0256
26670W        W46950   9.406   7.864   1.728  0.3813 -0.1924 -0.1386
26671W        W46951  16.112   1.522  15.269 -0.3519 -0.1127 -0.0912
26672W        W46952   4.324  13.450   3.069  0.0544  0.2439  0.1852
26673W        W46953  18.237  16.679  10.497 -0.0508 -0.1348  0.3114
26674W        W46954   9.954   7.548  14.229 -0.0449 -0.2507 -0.0521
26675W        W46955  17.170   1.043  11.107 -0.0944  0.0107 -0.2713
26676W        W46956   0.822  12.632   2.715 -0.1734 -0.1264  0.0295
26677W        W46957  15.228  11.199   0.374 -0.3572  0.0781  0.1429
26678W        W46958   8.675   9.072  12.274 -0.0486 -0.1204 -0.1026
26679W        W46959  10.475  18.015  14.743 -0.3347  0.0103  0.1301
26680W        W46960  14.219  17.051   4.641 -0.2244  0.1117  0.0154
26681W        W46961   4.763  18.675  10.621 -0.2067 -0.0596 -0.0236
26682W        W46962   2.404   0.527  12.360 -0.0342 -0.0906 -0.1687
26683W        W46963  15.409   7.065   0.692  0.2216 -0.1533 -0.1649
26684W        W46964   4.561   9.216   3.676 -0.0395 -0.1126 -0.2350
26685W        W46965   7.324   0.591   1.282 -0.0190 -0.2570  0.1001
26686W        W46966   9.855   1.327  10.877 -0.2958  0.0222 -0.0316
26687W        W46967  16.931   7.686  15.103 -0.5102 -0.4562  0.2047
26688W        W46968  18.550  16.750   4.098 -0.0030 -0.3262  0.0239
26689W        W46969  17.902  11.532   4.262  0.2676  0.1735  0.1778
26690W        W46970   9.267   3.908  11.407 -0.2467  0.0356 -0.1668
26691W        W46971   0.215   1.354   0.337  0.0043 -0.0921  0.0778
26692W        W46972   2.274   2.912  11.895 -0.1564 -0.3206 -0.1130
26693W        W46973  18.344   7.022  14.552 -0.1466  0.0744 -0.0338
26694W        W46974  18.690   8.544   2.565  0.1362 -0.2614  0.0497
26695W        W46975   4.908   2.979  12.716 -0.2686  0.0726 -0.2133
26696W        W46976  14.384  14.783   0.372 -0.0667  0.1799  0.1229
26697W        W46977  17.267  12.081  15.006  0.1659  0.0645  0.2401
26698W        W46978   3.821   1.589   2.308  0.2034  0.0955 -0.0026
26699W        W46979   4.132   0.723  15.078 -0.0288 -0.0831 -0.1540
26700W        W46980   0.080   6.756  14.179  0.1708 -0.1432  0.2009
26701W        W46981  16.169   3.990  12.815 -0.0553 -0.1096 -0.2071
26702W        W46982  16.801  17.121   4.432 -0.2451 -0.1422  0.2239
26703W        W46983   2.756  11.643  11.110  0.0991  0.0207  0.0771
26704W        W46984   7.234   7.002   3.865 -0.1906 -0.2470  0.2099
26705W        W46985   9.525  12.381   3.115  0.6328 -0.1447  0.0733
26706W        W46986  13.715  18.369  14.770  0.2826 -0.0206 -0.0692
26707W        W46987  17.636   7.062   1.999  0.2667 -0.0914 -0.0627
26708W        W46988  17.260  17.427   0.090 -0.0649 -0.2181 -0.0757
26709W        W46989   6.763   4.166  12.833 -0.2473  0.0888 -0.0058
26710W        W46990   4.618  13.977  14.460 -0.1721  0.0325  0.1162
26711W        W46991  17.401   4.449  14.132 -0.2466  0.0930 -0.0448
26712W        W46992   6.805   2.021   0.249  0.0886  0.0220 -0.1309
26713W        W46993   3.867   2.206  11.140  0.2128 -0.4817  0.2825
26714W        W46994  14.788   5.778   0.581  0.1865  0.0522  0.1906
26715W        W46995  18.252  11.677   2.265  0.2596  0.0408  0.0494
26716W        W46996   0.113   3.015   2.165  0.1426  0.0908 -0.2089
26717W        W46997   7.704  11.792  15.091 -0.1197  0.0546 -0.1517
26718W        W46998   3.250  16.042   2.550 -0.0390  0.1471  0.3183
26719W        W46999   1.260  11.017   2.450 -0.1356  0.2505 -0.1485
26720W        W47000   6.666   9.020  10.869  0.1454  0.1391  0.3795
26721W        W47001   6.485  18.451  14.977  0.3309  0.0825  0.0266
26722W        W47002   7.105  12.856  13.068 -0.1266 -0.1952 -0.1853
26723W        W47003   8.931  18.122   2.289 -0.0129  0.0214 -0.1729
26724W        W47004  10.969  16.093   0.423 -0.4562 -0.0239  0.0740
26725W        W47005   1.836   8.791  10.224 -0.0109 -0.0898  0.0036
26726W        W47006   7.757   1.693   1.684 -0.3601 -0.1424 -0.0871
26727W        W47007  15.100   2.860   3.919 -0.2743  0.1281 -0.0877
26728W        W47008   7.005   8.222   0.167  0.0114  0.0399 -0.0809
26729W        W47009   6.822  16.021  15.201  0.1118  0.0430  0.0849
26730W        W47010  10.656  17.231  11.988  0.1276 -0.4846  0.0429
26731W        W47011   9.101   5.808   1.128 -0.2868  0.1835 -0.0237
26732W        W47012   0.042  10.496   3.227 -0.1316 -0.2062 -0.0225
26733W        W47013  18.261   8.156  12.614 -0.0838 -0.1758  0.2275
26734W        W47014  18.089  15.523  14.442  0.0153 -0.0053 -0.1442
26735W        W47015  11.449  14.320   1.427  0.1127  0.1869  0.0588
26736W        W47016   3.815   4.138  13.441 -0.0582  0.0709  0.3450
26737W        W47017   4.123   8.045   0.330 -0.1840  0.1143 -0.1510
26738W        W47018  15.633  10.258   1.488 -0.0484 -0.0817  0.2372
26739W        W47019   5.247  11.618   1.157 -0.1307 -0.4488  0.0352
26740W        W47020  17.244   7.901  12.873 -0.0847 -0.2167 -0.1089
26741W        W47021  16.322   6.112  12.646  0.0201  0.2630 -0.2643
26742W        W47022   0.552   4.337   0.538  0.1570 -0.0237 -0.2220
26743W        W47023   6.598   7.529   2.395 -0.0990 -0.0718  0.0361
26744W        W47024   8.431  14.644   1.765 -0.1763 -0.2127 -0.1266
26745W        W47025   3.479  18.497  10.432 -0.0846 -0.0252 -0.0729
26746W        W47026   7.956   3.173   0.670  0.0224  0.0600  0.3198
26747W        W47027  16.766  10.017   2.849 -0.2426 -0.2276  0.0360
26748W        W47028   3.137   2.881  12.998  0.1386  0.1558 -0.1707
26749W        W47029   5.426   4.293  12.824 -0.2346 -0.3288  0.0450
26750W        W47030  17.463  18.330  15.351 -0.0249  0.3951  0.0731
26751W        W47031   0.574   1.583  13.559  0.0267 -0.0949 -0.2671
26752W        W47032  15.924  11.511  11.268 -0.1821  0.0717 -0.1209
26753W        W47033   2.957   2.430  12.194  0.2491 -0.2266  0.2739
26754W        W47034  13.911  12.129  12.432  0.2012 -0.0763  0.0707
26755W        W47035  17.566   9.142   4.544  0.0120 -0.3282 -0.1997
26756W        W47036  12.942  11.638   4.423 -0.2099  0.1661  0.1679
26757W        W47037  14.440   3.669   3.039 -0.2843  0.1478  0.1429
26758W        W47038  18.245   4.917   9.878  0.2175 -0.2382 -0.3271
26759W        W47039   5.836   9.191  11.586  0.0365  0.0795 -0.0522
26760W        W47040   0.991  10.785  13.011  0.0086  0.0909 -0.2397
26761W        W47041   9.633  10.669   0.317  0.3131 -0.6635  0.0894
26762W        W47042  10.878   2.303   1.697 -0.1191  0.0306  0.1173
26763W        W47043  11.619  10.072  15.252 -0.2995 -0.0963  0.1803
26764W        W47044   4.370  14.248  14.106  0.0750  0.2129 -0.2241
26765W        W47045   6.996  18.715   0.466 -0.0518 -0.1344  0.1505
26766W        W47046   6.912  13.940   4.201  0.0166 -0.1492  0.4900
26767W        W47047  14.283   3.311  11.648 -0.0108 -0.1574  0.2685
26768W        W47048   4.657   0.021   0.869  0.1385  0.0527 -0.2228
26769W        W47049   6.674  14.771  11.984  0.1892 -0.0890  0.1871
26770W        W47050  12.809   9.722   4.722 -0.0685  0.0643 -0.0200
26771W        W47051   1.615   4.491  12.473 -0.1752  0.1049 -0.2826
26772W        W47052  10.733   3.529  13.374 -0.3598  0.0329  0.1521
26773W        W47053   1.187   9.448   0.762  0.1955  0.4015  0.1354
26774W        W47054  11.183  16.214   3.897 -0.2228 -0.1915  0.0795
26775W        W47055  17.949   7.234   2.376  0.1104 -0.0070 -0.2295
26776W        W47056   7.944   9.405  14.336 -0.1085 -0.2347  0.1988
26777W        W47057   9.190  17.660   2.106  0.4786  0.0830  0.1467
26778W        W47058  18.459  12.935   0.239  0.0211 -0.0028 -0.1090
26779W        W47059   7.640  11.500   1.573  0.0702  0.0819 -0.0936
26780W        W47060  12.091   0.789  13.330 -0.0270  0.1823 -0.2496
26781W        W47061  12.899   2.399  13.235  0.1585  0.0704 -0.1793
26782W        W47062   7.989   8.474   3.788 -0.2576  0.1461 -0.0245
26783W        W47063   7.958  18.553   1.350 -0.1206  0.2997 -0.0313
26784W        W47064   6.309   2.886  15.318 -0.1004 -0.1353  0.2675
26785W        W47065   9.685   5.884   0.096 -0.1794 -0.0700  0.0463
26786W        W47066   5.478  10.985  10.533  0.0088  0.0306  0.0980
26787W        W47067   2.316   2.755   3.507 -0.0805  0.2131 -0.0504
26788W        W47068  17.242   0.870  11.550  0.0582 -0.1292  0.1712
26789W        W47069   4.128  10.933  13.837  0.0476  0.2561  0.2332
26790W        W47070   3.779  13.785   1.173 -0.0699  0.1345 -0.0527
26791W        W47071   6.875   7.217  12.504 -0.0188  0.0423  0.2224
26792W        W47072  16.442  18.158   0.151  0.1867 -0.1330  0.0286
26793W        W47073   2.873   9.789   0.554 -0.1386  0.0677  0.0597
26794W        W47074   0.044   9.497  13.878  0.1449 -0.2074 -0.0250
26795W        W47075  15.869  12.277   4.087 -0.3449 -0.1109  0.1610
26796W        W47076   6.205  10.411  10.960  0.1144  0.1826  0.1165
26797W        W47077  18.164   3.065   2.340  0.1540  0.0171  0.1716
26798W        W47078  10.367   6.857   3.986 -0.0475 -0.0474  0.2565
26799W        W47079   7.491  15.575  14.075  0.0165  0.2142  0.1537
26800W        W47080   3.598  12.758  11.462  0.0994 -0.1540 -0.1756
26801W        W47081   1.631  15.177  15.256  0.0555  0.0180 -0.0805
26802W        W47082   5.401  10.187  11.852  0.1469 -0.0887  0.0244
26803W        W47083  13.446   0.713   3.227  0.0215  0.3055 -0.0616
26804W        W47084   1.788   2.392  14.780  0.1083 -0.1639 -0.0829
26805W        W47085   3.570  17.191  13.468  0.0239  0.0203  0.0563
26806W        W47086   4.618  13.820   2.527  0.3033 -0.0054 -0.0909
26807W        W47087  16.545   7.972   0.214 -0.2463  0.2492 -0.4981
26808W        W47088   1.528   0.019  13.763  0.0343 -0.0174 -0.0572
26809W        W47089   3.756  14.502   2.434  0.0176  0.0733 -0.1365
26810W        W47090   3.974  18.739   1.508 -0.1282 -0.2036  0.2179
26811W        W47091  16.089   3.987   0.112 -0.3740  0.0151 -0.0535
26812W        W47092  17.486  18.268  12.437  0.0104  0.1235  0.0461
26813W        W47093   8.147  12.203  11.282  0.0103  0.0706  0.0782
26814W        W47094   9.396   0.890  14.311  0.4099 -0.2417  0.0928
26815W        W47095  11.894   6.757  14.210  0.1776  0.1139  0.2907
26816W        W47096  10.527  14.412   4.436  0.1539 -0.0155 -0.3177
26817W        W47097   7.877  10.141  11.877 -0.0326  0.1973 -0.1500
26818W        W47098  10.703   7.213  11.466 -0.1027  0.1017  0.1584
26819W        W47099  16.503  17.972   1.487 -0.0973 -0.1801 -0.2120
26820W        W47100   0.176   3.194   1.467 -0.2239  0.3089 -0.1148
26821W        W47101   5.091   1.442   1.919 -0.1260 -0.0115  0.3951
26822W        W47102   9.964  10.693   3.637  0.1267  0.2797  0.1714
26823W        W47103   2.900   6.835   0.003  0.2170  0.1766  0.0321
26824W        W47104   0.360   5.714   4.087 -0.1417  0.2756 -0.0607
26825W        W47105   3.542   3.532   3.769  0.2053  0.1928  0.0624
26826W        W47106  12.162  15.080   0.246 -0.4753 -0.0038 -0.1109
26827W        W47107  16.446  10.173   3.656 -0.0850 -0.0231 -0.2783
26828W        W47108  10.360   1.968  11.039 -0.0163 -0.1219 -0.0914
26829W        W47109  18.089   1.908  15.214 -0.0233 -0.0435  0.2720
26830W        W47110   3.675  18.475  11.379  0.2895 -0.2173 -0.0392
26831W        W47111   1.784  11.629  14.770  0.2145  0.2716  0.2139
26832W        W47112  14.402  17.553  11.854  0.1242 -0.1955  0.0763
26833W        W47113   4.200   4.035   1.975  0.1243 -0.1697 -0.0144
26834W        W47114  12.477   0.209  12.913  0.3522 -0.0473  0.0256
26835W        W47115   4.614  13.107   1.376 -0.1706  0.0279 -0.1472
26836W        W47116   7.685   9.619  14.729 -0.2857 -0.0856 -0.3321
26837W        W47117  17.997   5.323   1.954 -0.0470 -0.2477  0.1213
26838W        W47118  14.843  11.512   4.730  0.0425  0.0816  0.0565
26839W        W47119   3.656   1.778  12.094 -0.0270 -0.0911 -0.1052
26840W        W47120   7.623   7.981   4.000  0.4322  0.1596  0.0925
26841W        W47121   5.076  12.558  13.635  0.1626  0.0863 -0.2049
26842W        W47122  10.138  13.995  11.149 -0.1411  0.1690 -0.1777
26843W        W47123  18.476  13.614  13.580  0.0030 -0.1651 -0.2725
26844W        W47124   8.522   4.912   3.683 -0.1124  0.2146  0.0667
26845W        W47125  13.488   3.974  11.706 -0.2152  0.0874  0.0446
26846W        W47126  18.621   1.935  15.119 -0.2250 -0.2677 -0.1679
26847W        W47127   0.039  12.993  11.639  0.1885  0.3549  0.1603
26848W        W47128  12.122   8.933  11.803 -0.1750 -0.2090  0.1062
26849W        W47129   6.833  18.139   3.509  0.0374 -0.2094 -0.1792
26850W        W47130  13.884   5.142   3.361 -0.2470  0.0198  0.0828
26851W        W47131  18.154  17.656  14.131 -0.1896  0.2254 -0.2365
26852W        W47132  17.887   7.999   3.627  0.0217  0.1175  0.1902
26853W        W47133  11.835   3.918  12.271 -0.0435 -0.0154 -0.0139
26854W        W47134  14.075  14.451  13.081  0.4002 -0.1253  0.2693
26855W        W47135   4.706   1.338  14.620  0.3369  0.5046  0.0173
26856W        W47136   4.611   1.829  12.115 -0.1678  0.1438 -0.0826
26857W        W47137  18.007   5.812  14.133  0.0319 -0.0522  0.0258
26858W        W47138  14.337  14.033   2.469  0.0612 -0.0008 -0.1647
26859W        W47139   2.719  14.341  14.817 -0.0772  0.1572  0.1375
26860W        W47140   5.225  10.729  13.775 -0.0986 -0.2010 -0.0932
26861W        W47141   9.374   3.859  12.446  0.1036  0.1967 -0.0184
26862W        W47142   7.995   5.087  12.459  0.2009 -0.2602  0.2178
26863W        W47143   1.999  10.258  13.187  0.0940 -0.2521 -0.1686
26864W        W47144   6.231   3.201   2.859  0.1171  0.0947  0.0412
26865W        W47145   7.306  16.699   1.557  0.0713 -0.1104 -0.3644
26866W        W47146  13.921  17.752   1.339  0.0465  0.1899 -0.2890
26867W        W47147  13.853   9.366   1.382  0.2539  0.5321 -0.0456
26868W        W47148   0.500   9.538   3.996  0.1081 -0.2390  0.0951
26869W        W47149  12.854  15.991   4.417  0.0364 -0.0346 -0.0957
26870W        W47150   5.847  12.754   0.158  0.1549 -0.0244  0.0975
26871W        W47151   0.635  11.192   3.855  0.2064 -0.0363 -0.1372
26872W        W47152  17.297  18.257  14.004 -0.0262  0.0075  0.1304
26873W        W47153  11.592  14.506  11.810  0.0364  0.0665  0.1093
26874W        W47154   6.858  18.463  12.980 -0.3549  0.0495 -0.3355
26875W        W47155  10.640  14.591  11.955  0.0624  0.2938  0.0943
26876W        W47156   5.771   1.449  10.784 -0.0273  0.1195 -0.1063
26877W        W47157  13.184  15.942   2.940  0.2072  0.1674  0.4076
26878W        W47158  17.122  14.367  15.370  0.2410 -0.0293 -0.0227
26879W        W47159  16.979  12.384   1.134  0.1732 -0.0565 -0.0826
26880W        W47160  10.081   5.863  13.157  0.0381  0.0608  0.2236
26881W        W47161  17.466  12.858   1.725 -0.5614 -0.0353  0.1724
26882W        W47162   2.067   3.828   3.551 -0.1282 -0.0182  0.1943
26883W        W47163   0.376  14.405  12.073 -0.2628 -0.1889  0.0146
26884W        W47164   1.167  11.101  12.440 -0.3364 -0.1796 -0.1802
26885W        W47165  12.224  11.225  14.107  0.2338  0.0542  0.1851
26886W        W47166   8.465  18.250   2.124 -0.1051 -0.5393 -0.3820
26887W        W47167  15.937   4.674   3.647  0.0303 -0.0460 -0.0488
26888W        W47168  15.650   3.763  12.032 -0.1074  0.0753  0.1238
26889W        W47169   7.087   3.950  13.235  0.1117  0.0383 -0.1429
26890W        W47170  17.695   5.403  12.634 -0.2242  0.1165 -0.0771
26891W        W47171   7.045   9.590  14.163 -0.0718 -0.2095 -0.0241
26892W        W47172  10.919  17.909   1.208  0.0869 -0.1851 -0.0001
26893W        W47173   4.129  17.585  11.874 -0.3306 -0.3437 -0.2097
26894W        W47174  17.969   0.088  13.018 -0.3581  0.3222  0.1512
26895W        W47175  18.439   3.053   1.860 -0.0006 -0.2984  0.1219
26896W        W47176   0.655   7.034  12.017 -0.2698 -0.2785 -0.1072
26897W        W47177   4.267  11.099  15.204 -0.0743  0.4060  0.1716
26898W        W47178   1.602   9.218   2.058 -0.1543  0.2756 -0.1797
26899W        W47179  14.105   5.135  11.411 -0.1604  0.1665  0.2760
26900W        W47180  12.584   6.729   3.185  0.3023  0.1115 -0.0960
26901W        W47181  17.756   8.763  12.757  0.1510 -0.2276 -0.1600
26902W        W47182  18.044   5.986   2.880 -0.0568  0.1182  0.1429
26903W        W47183   7.065  15.272  12.097 -0.0211  0.0369 -0.0885
26904W        W47184   0.283  13.360   1.042 -0.3866 -0.1334 -0.0796
26905W        W47185  13.085  15.805   4.885  0.0713 -0.1557  0.2827
26906W        W47186   1.411   3.616   1.092  0.1846 -0.0509  0.0157
26907W        W47187   2.948   4.245   1.627 -0.3820 -0.0084 -0.1675
26908W        W47188  15.792  15.842   2.674  0.2470 -0.1730  0.1045
26909W        W47189   4.645   1.568  11.312 -0.0461 -0.1013 -0.0696
26910W        W47190   9.215   9.853  14.921 -0.1752 -0.1618 -0.0222
26911W        W47191   3.584  10.364  15.390  0.1773  0.1143 -0.0824
26912W        W47192  15.504   4.810  11.347 -0.2698 -0.1891 -0.2353
26913W        W47193   7.200  16.707   3.841  0.0080  0.3391  0.3062
26914W        W47194   1.518   6.067  13.884  0.0007  0.3447 -0.2464
26915W        W47195  14.341   6.892  13.380  0.1081 -0.2509  0.4477
26916W        W47196   9.880   8.045  14.569 -0.0115  0.1406 -0.1382
26917W        W47197   8.313  15.362  15.175  0.0777  0.2280 -0.2735
26918W        W47198   5.948   5.685  12.133 -0.1403  0.2031 -0.2098
26919W        W47199  17.173  10.647  13.044  0.0861 -0.0778 -0.0226
26920W        W47200   8.737   6.671  13.332 -0.1728  0.0126  0.2505
26921W        W47201   6.054  12.344  12.877 -0.1598  0.0503 -0.3872
26922W        W47202  17.658  11.412   1.530 -0.1101  0.1320  0.0459
26923W        W47203   1.078   2.641   4.502  0.0618 -0.3588  0.0469
26924W        W47204   9.903   6.557   1.580  0.0529 -0.0541  0.1842
26925W        W47205   5.384  10.476  12.921  0.1346  0.2248 -0.0141
26926W        W47206  13.578   0.724   4.103 -0.2000  0.0735  0.2171
26927W        W47207   3.169   9.288  11.354  0.1186  0.1404 -0.1063
26928W        W47208  10.585   5.779   0.469  0.1370 -0.2977  0.2664
26929W        W47209  15.901   6.686   4.957 -0.1270  0.2879 -0.2762
26930W        W47210   7.798   9.245   3.413 -0.3320  0.0138 -0.2603
26931W        W47211   6.739   7.913  15.240  0.1273 -0.2633  0.2199
26932W        W47212  15.040   7.776   3.986  0.0464  0.1866 -0.0767
26933W        W47213  17.313  17.022  12.857  0.0791 -0.2791  0.2520
26934W        W47214  11.167  15.269  14.988  0.0532  0.0663  0.2497
26935W        W47215  15.310   0.431   2.569 -0.2253  0.1644 -0.0471
26936W        W47216  13.819   2.310   3.971  0.2670  0.0734 -0.2668
26937W        W47217  10.600  14.349  11.463 -0.2132 -0.0546 -0.1151
26938W        W47218  13.100  16.100   0.303 -0.2284 -0.1625 -0.1765
26939W        W47219   3.835   8.970  15.196 -0.0671  0.1075  0.1132
26940W        W47220  15.533   1.148   0.751 -0.0628  0.0410  0.0076
26941W        W47221   8.417   8.756   4.662 -0.3202 -0.0161 -0.2488
26942W        W47222   5.896  11.218   0.645 -0.2427 -0.1909 -0.1770
26943W        W47223   8.250   3.620  12.728 -0.1535  0.1440  0.1660
26944W        W47224   8.878   2.890   3.512  0.2179 -0.2273 -0.0676
26945W        W47225   2.535  12.226   3.655 -0.0681 -0.1216 -0.0419
26946W        W47226  12.169   5.842   2.086 -0.5826  0.2857 -0.0838
26947W        W47227   0.022  15.324  14.600  0.1524 -0.4237 -0.0480
26948W        W47228  14.009   0.215  12.577 -0.2100 -0.1927  0.3077
26949W        W47229   2.042  16.705   2.015  0.2284  0.0235 -0.0017
26950W        W47230   6.455   0.411   2.427 -0.0682 -0.0447  0.1626
26951W        W47231   9.194  10.985   0.639 -0.0178  0.3724  0.0925
26952W        W47232   7.693  11.306   2.961  0.0060  0.2676  0.0239
26953W        W47233   6.068  10.843   2.478  0.3254  0.2008 -0.0102
26954W        W47234  12.452  14.170   0.644 -0.0816  0.1549  0.2743
26955W        W47235  14.621  11.124   2.886 -0.2020 -0.2997 -0.0492
26956W        W47236   1.260   9.641  13.533  0.0884 -0.2885 -0.0233
26957W        W47237   8.375   5.635  15.326  0.1080  0.2151 -0.0201
26958W        W47238   6.812  16.940  11.534  0.0088  0.1744 -0.3389
26959W        W47239  12.937   6.486   4.218  0.0420  0.2191  0.3220
26960W        W47240  12.499  14.158  14.415  0.0841  0.0290 -0.0987
26961W        W47241   2.944  12.540  15.250 -0.0791  0.0052 -0.1270
26962W        W47242   8.663  17.804   1.992  0.1226  0.1095 -0.0817
26963W        W47243   9.563   2.527   0.605 -0.2143 -0.1986 -0.0756
26964W        W47244   3.716  14.995   0.767  0.3208  0.0503  0.2204
26965W        W47245   5.563   5.242  12.493  0.0461  0.2104  0.3017
26966W        W47246  11.309  17.336   5.539 -0.0847 -0.1801  0.1841
26967W        W47247   5.626   4.876   2.546  0.2018  0.0009  0.2559
26968W        W47248   0.720   8.118  14.881 -0.1392  0.1088 -0.0524
26969W        W47249  17.963  17.294  14.519  0.0288  0.1610 -0.1538
26970W        W47250   5.487  14.373   2.614 -0.2319  0.0046  0.0067
26971W        W47251   1.869  10.665  12.736  0.1085 -0.2232  0.2200
26972W        W47252   9.113   4.204   3.275  0.1825  0.2063 -0.0937
26973W        W47253   6.811   6.277   2.608 -0.4865  0.4544  0.2025
26974W        W47254  18.129   4.977  10.763 -0.1434  0.1097 -0.0812
26975W        W47255   0.597  16.206  14.456 -0.1551  0.0303  0.3133
26976W        W47256   6.731  10.670  11.745 -0.0564  0.2892  0.0105
26977W        W47257   5.165  11.508   0.036  0.1171 -0.2320 -0.1818
26978W        W47258  17.085   9.510   0.382  0.1151  0.1237 -0.3296
26979W        W47259  11.589   4.787  11.280  0.0737  0.0813 -0.4042
26980W        W47260  13.271  17.386   3.991 -0.3091  0.0584  0.0706
26981W        W47261   1.427   2.954  12.579 -0.1641  0.1059 -0.0065
26982W        W47262  12.143  15.777   0.941  0.1503 -0.1097 -0.1605
26983W        W47263   9.373   1.566  10.981  0.0823 -0.3197 -0.2407
26984W        W47264   0.522   7.935   1.845  0.2312  0.0016  0.2267
26985W        W47265  15.299   9.959  12.053 -0.2061  0.0319  0.1086
26986W        W47266   1.430  14.224   3.816  0.0691 -0.1676  0.3765
26987W        W47267   9.990   7.665   4.798 -0.0976 -0.0272  0.1439
26988W        W47268   1.747   1.907  11.606  0.4615 -0.0049  0.0416
26989W        W47269   1.752   0.538  15.274 -0.0769  0.1935  0.1158
26990W        W47270   3.751  15.926   2.417 -0.0106  0.1801 -0.0569
26991W        W47271   6.033   8.119  12.103  0.1003 -0.2004  0.1255
26992W        W47272   1.534   6.635   4.028  0.3261  0.1797  0.4064
26993W        W47273   4.684  12.171   2.462 -0.0661  0.0599 -0.1671
26994W        W47274  14.473  12.949   1.773 -0.1448  0.0290  0.0143
26995W        W47275   7.773   5.020   1.429 -0.0194 -0.1628  0.0542
26996W        W47276   6.699   0.562   4.570  0.3041  0.0278  0.0338
26997W        W47277  13.946   5.448  14.528 -0.0183 -0.1906  0.0907
26998W        W47278  12.145  13.137  12.217  0.0608  0.3034  0.1265
26999W        W47279  12.302  14.953   2.287 -0.0041 -0.1623  0.1008
27000W        W47280  18.358  15.348  12.139  0.0385  0.2500 -0.0379
27001W        W47281  17.871   4.209  11.957  0.1296  0.1443  0.2205
27002W        W47282   2.663   8.210  14.463 -0.1595 -0.1599 -0.0695
27003W        W47283  15.570   5.561  12.767 -0.3018  0.0773  0.0075
27004W        W47284   1.248   8.199  12.768 -0.2840 -0.1452 -0.1232
27005W        W47285  16.489   3.103   1.253  0.0953 -0.0611 -0.0834
27006W        W47286  15.025   8.563  14.564 -0.2243  0.3311  0.1399
27007W        W47287   1.180  16.148  13.612  0.0194 -0.0796  0.2458
27008W        W47288  11.380  11.050   4.115  0.1072 -0.0335  0.1866
27009W        W47289  13.881  15.184   1.469  0.0767 -0.0288 -0.0205
27010W        W47290   4.633   7.838   0.337  0.2083 -0.2061  0.3539
27011W        W47291   9.218   6.150   1.831  0.0058 -0.0165 -0.0378
27012W        W47292  14.003   8.798   0.007  0.0488 -0.1793  0.3134
27013W        W47293  16.419   7.623   1.459  0.2095 -0.1415  0.2031
27014W        W47294   8.277   9.255  14.033  0.2728  0.0054 -0.1771
27015W        W47295  17.644  17.156  12.467  0.2745  0.1598  0.2986
27016W        W47296   4.557  12.717  15.027  0.1905  0.0756  0.2696
27017W        W47297   0.896   6.740   0.363 -0.1991  0.4155  0.0451
27018W        W47298  13.728  17.938  12.191  0.0473 -0.0992  0.0866
27019W        W47299   6.476   9.424  13.209 -0.0618 -0.1338 -0.0619
27020W        W47300  10.767   6.878  15.376  0.0708  0.1018  0.0329
27021W        W47301  15.670  17.257   2.831 -0.3005  0.1450 -0.1537
27022W        W47302  11.934  16.112   1.485  0.0772 -0.0216 -0.2492
27023W        W47303   1.882  13.724   1.253  0.0423  0.0455 -0.1460
27024W        W47304  14.476   8.153   0.867 -0.1680  0.0218 -0.6878
27025W        W47305  13.115  13.109   3.181 -0.0257  0.1016  0.0040
27026W        W47306  16.036   8.952  13.687 -0.1472  0.1592  0.1587
27027W        W47307  14.381   5.757  14.648 -0.1136  0.2457  0.2054
27028W        W47308   0.021  14.018   2.509  0.0012  0.1625 -0.0394
27029W        W47309  10.000   9.472   0.158  0.1084  0.1224  0.0467
27030W        W47310  15.740  14.275  13.284 -0.2740  0.1239 -0.2055
27031W        W47311  17.921  11.438  14.357 -0.3534  0.0990  0.0156
27032W        W47312   9.772  11.949   0.291  0.1421 -0.2428  0.4122
27033W        W47313   3.033  14.989   1.744 -0.1784 -0.2515 -0.2101
27034W        W47314  12.414  10.343   1.210  0.0480  0.2930 -0.1947
27035W        W47315   0.158  12.092   1.285 -0.0928 -0.1660  0.2289
27036W        W47316   0.990   8.085   4.352  0.2239 -0.0973  0.1053
27037W        W47317   8.846  11.015  15.342 -0.1769 -0.0066 -0.0159
27038W        W47318   3.506   8.082   0.853  0.2358  0.2102  0.2909
27039W        W47319   5.644  14.768   0.016 -0.1148 -0.0503  0.0054
27040W        W47320  11.453  16.076   1.622  0.1325  0.0411  0.2821
27041W        W47321   8.813  13.045   4.164  0.0156 -0.0175 -0.1509
27042W        W47322  17.871  15.211   2.388  0.2472 -0.3125 -0.0316
27043W        W47323   7.634   0.337  15.307 -0.2929  0.0138 -0.1176
27044W        W47324  11.187  14.001   3.930  0.3910 -0.0739 -0.1844
27045W        W47325   5.997   4.687   3.441 -0.0537 -0.1649 -0.2763
27046W        W47326  16.217   8.107   1.599 -0.0765  0.0852 -0.0930
27047W        W47327   2.696  16.659  13.603 -0.0833  0.1138 -0.2027
27048W        W47328   8.564   4.264   1.272  0.1204 -0.0601  0.0935
27049W        W47329   9.920   0.630   1.486 -0.0566  0.1093 -0.0979
27050W        W47330  16.934   8.633   2.712 -0.0016 -0.1810  0.1026
27051W        W47331   0.649  10.807  15.359  0.2564 -0.1480  0.0632
27052W        W47332  15.649  14.750  11.104  0.1019 -0.0576 -0.0389
27053W        W47333   4.709   4.115  14.567  0.0715  0.1166 -0.1265
27054W        W47334   3.323   9.127  12.170  0.1313  0.0116  0.2170
27055W        W47335   9.837  12.371  11.474 -0.1422  0.0633 -0.0720
27056W        W47336   1.746   7.785  11.218 -0.2224  0.1634  0.3592
27057W        W47337   9.810   7.312   3.375 -0.1533 -0.1848  0.0996
27058W        W47338  12.477  12.921  11.859 -0.1353 -0.1471 -0.2580
27059W        W47339  16.004  16.483  14.769  0.4932 -0.1253  0.0205
27060W        W47340  10.870   1.927  12.324  0.0199  0.0783 -0.0806
27061W        W47341   7.069  12.711  13.555 -0.2059 -0.1720  0.1363
27062W        W47342   7.222  11.634  10.907  0.1284  0.0008  0.0392
27063W        W47343   6.579   0.646  13.888 -0.1865  0.0833 -0.2885
27064W        W47344   0.173   0.433   3.980  0.1530 -0.1200 -0.0323
27065W        W47345   3.170   1.413  13.119 -0.1457 -0.1056 -0.1413
27066W        W47346   3.578   9.904  13.685 -0.1948 -0.0382  0.0798
27067W        W47347  14.863   0.791   3.471  0.0097 -0.2408 -0.0103
27068W        W47348   5.158   7.030   0.337  0.0852 -0.1174 -0.0514
27069W        W47349   5.760  14.200  14.233  0.1607 -0.0682  0.0595
27070W        W47350   2.564   7.554  12.453  0.0215 -0.1197  0.2323
27071W        W47351   8.947  16.096   3.784 -0.0716 -0.1295 -0.1867
27072W        W47352  12.566  15.857   0.613  0.5243 -0.2596 -0.4254
27073W        W47353  14.132   6.396   2.219 -0.0344  0.1145  0.0470
27074W        W47354  11.269   7.431  11.641 -0.1491 -0.1741 -0.1735
27075W        W47355   0.178  10.281  11.382 -0.0169  0.2414 -0.1483
27076W        W47356  17.556   6.759  14.523 -0.3954 -0.0006 -0.0617
27077W        W47357   8.424   8.240  11.125 -0.2183 -0.0909  0.0706
27078W        W47358  13.819   3.436  13.457 -0.0361 -0.1339 -0.0058
27079W        W47359  15.811   7.907  15.114  0.2471  0.1788  0.1724
27080W        W47360   6.062  13.555   2.829 -0.0264  0.7803  0.1568
27081W        W47361   2.276   3.000   4.087  0.2242 -0.1842 -0.2061
27082W        W47362  13.880  15.711   2.422 -0.1730 -0.2023  0.2068
27083W        W47363  11.979   4.504  11.601  0.0858 -0.0726 -0.0677
27084W        W47364   2.978   1.326  11.434 -0.1970  0.0932  0.2281
27085W        W47365  18.139   5.730  11.339  0.0276  0.2338 -0.1039
27086W        W47366   8.007   8.718  12.721 -0.2364 -0.1513 -0.2621
27087W        W47367   6.307   8.278  14.312  0.2893  0.0109 -0.0408
27088W        W47368  12.970  12.529   4.013  0.2087  0.0234 -0.0675
27089W        W47369   3.593   2.157  14.200 -0.0543 -0.2046  0.0872
27090W        W47370  18.320   7.903  14.784  0.0136 -0.1267  0.1767
27091W        W47371   9.704   3.893  14.032 -0.1808 -0.2504  0.1651
27092W        W47372   9.961  18.371  13.056 -0.0285 -0.0542  0.0171
27093W        W47373   3.138  12.498   1.642  0.3243  0.1217  0.1833
27094W        W47374  17.150  11.047  12.766 -0.1209 -0.2165 -0.1116
27095W        W47375  10.070  17.163   4.755  0.1435 -0.0397  0.1575
27096W        W47376  17.060   9.354  12.294 -0.2023 -0.0597 -0.2443
27097W        W47377   2.675  15.248   2.061 -0.2523 -0.0781  0.1952
27098W        W47378   4.834   4.645  12.853 -0.2000 -0.3403  0.0423
27099W        W47379   8.543  17.837   2.492 -0.0031 -0.0660 -0.1180
27100W        W47380   1.134  12.507   1.070  0.0683 -0.1156 -0.1010
27101W        W47381  15.381  12.637  13.906  0.0655 -0.1121 -0.0051
27102W        W47382  11.219  13.655   0.629 -0.0696  0.2485  0.1809
27103W        W47383   3.062   8.962   4.361 -0.2154  0.2859  0.0600
27104W        W47384  12.625  16.012   2.940 -0.0919  0.1712 -0.0564
27105W        W47385  12.679  18.545   2.214 -0.2648  0.1244 -0.2538
27106W        W47386   4.502  10.150   4.586  0.1466  0.3739 -0.1128
27107W        W47387   9.975   2.757   0.788  0.1394  0.3301 -0.0053
27108W        W47388  17.279   0.603  13.680  0.1891  0.2586 -0.3351
27109W        W47389   6.412   1.234   3.119 -0.0112 -0.1079  0.0192
27110W        W47390  11.600   1.617  11.440  0.0525 -0.2735  0.0472
27111W        W47391   4.847  11.648   4.184  0.0742 -0.0416  0.1392
27112W        W47392   9.815  11.632   0.681 -0.0396 -0.1371  0.0039
27113W        W47393  10.185   0.488   4.234 -0.1792 -0.4826 -0.0315
27114W        W47394  13.170   1.430   3.276 -0.1996 -0.0505  0.0733
27115W        W47395   6.345   2.677   1.800  0.2722 -0.0005 -0.0145
27116W        W47396   9.385   6.044  12.115  0.4826  0.1302 -0.1466
27117W        W47397   9.017  12.185  12.743  0.2198  0.0034  0.0120
27118W        W47398  16.831   3.919  14.379  0.0535  0.0884 -0.2371
27119W        W47399  15.832   7.827   2.165 -0.0987  0.0206 -0.3486
27120W        W47400   6.598  10.049   0.106  0.0785 -0.0597 -0.0561
27121W        W47401  17.319   1.468   1.118  0.2002 -0.1882 -0.2979
27122W        W47402  18.609   2.597  13.460  0.1379 -0.1744 -0.3187
27123W        W47403   7.843  11.451   1.089 -0.2561 -0.2416  0.1140
27124W        W47404   3.579  16.236  12.838  0.0363 -0.1497  0.1524
27125W        W47405   8.367   5.854   1.793 -0.2458 -0.2132 -0.2611
27126W        W47406  14.553  18.193  11.155  0.0401  0.1172  0.4128
27127W        W47407  13.672  12.036  11.591  0.1759  0.1114  0.2686
27128W        W47408   8.611   4.129  13.175 -0.2134 -0.2111 -0.0778
27129W        W47409  16.679   6.318  12.943  0.0965 -0.1328  0.2052
27130W        W47410   5.598  15.569  14.417 -0.1046 -0.0988  0.1792
27131W        W47411  15.095  15.513  11.006 -0.0930  0.1089  0.2616
27132W        W47412  13.283   9.914   1.777 -0.0724 -0.0705 -0.1529
27133W        W47413  15.672  18.288   4.296  0.3090  0.1108 -0.0607
27134W        W47414   4.941   6.379   4.657 -0.1959  0.3810  0.1957
27135W        W47415   5.237   1.392   2.448 -0.1632  0.0588 -0.2345
27136W        W47416   3.991   6.205  13.082 -0.1591  0.3165 -0.1690
27137W        W47417  15.131  18.405   4.111 -0.0730 -0.2192  0.0968
27138W        W47418  16.621  10.557  10.883  0.0753  0.1070 -0.0467
27139W        W47419   1.110   0.239   0.459 -0.1026  0.5152  0.1636
27140W        W47420   2.190  14.994  13.822 -0.2213 -0.0324  0.1055
27141W        W47421   1.065   0.242   1.010  0.3067  0.4101  0.0822
27142W        W47422   5.454   2.321  11.614 -0.2333 -0.4890 -0.0466
27143W        W47423  16.538  17.752  11.442 -0.1749 -0.0491  0.0480
27144W        W47424  15.085   0.234  11.584 -0.1279  0.1586  0.0022
27145W        W47425  12.484   9.155  12.136 -0.1543 -0.0381 -0.2174
27146W        W47426  10.372  18.011   2.098  0.2058  0.0268  0.3439
27147W        W47427  18.307   8.310   0.868  0.0960 -0.0989 -0.1799
27148W        W47428   2.288   1.115   3.652  0.1626  0.2330 -0.1438
27149W        W47429   6.283   1.863  11.360  0.3591  0.3592  0.1431
27150W        W47430   3.987   7.870   3.582 -0.2155 -0.2248 -0.4036
27151W        W47431   3.716   8.070  13.718  0.1184 -0.2187 -0.1203
27152W        W47432  14.263  18.280   2.957 -0.3121 -0.1871  0.1035
27153W        W47433  16.996  18.334  12.118  0.0456  0.0976 -0.0141
27154W        W47434  12.755   1.779  15.116  0.0793 -0.0099 -0.6059
27155W        W47435   7.088   3.319   0.032  0.0314 -0.0167 -0.3665
27156W        W47436  12.512  17.489   2.028  0.1924  0.0712 -0.3781
27157W        W47437  18.093  17.167  13.996 -0.0969 -0.0056 -0.1995
27158W        W47438   5.052   5.251  12.221 -0.0890  0.0830 -0.0553
27159W        W47439  16.624  15.960  11.724 -0.0551  0.2019  0.2839
27160W        W47440   3.924  18.549   3.047 -0.2617  0.0592 -0.1314
27161W        W47441  17.708   4.332   3.547  0.1788  0.0070 -0.0729
27162W        W47442  14.401   3.169  13.757  0.1694  0.0016  0.1414
27163W        W47443   1.102  11.037   0.330 -0.0592 -0.1187  0.0276
27164W        W47444   6.383  14.640  14.758 -0.0825  0.1115  0.0645
27165W        W47445   0.407  17.581   0.197 -0.3770  0.1307 -0.0158
27166W        W47446   5.462  10.475   0.455 -0.3152 -0.1886 -0.1612
27167W        W47447  16.302   0.818   1.426 -0.2729  0.0222 -0.2220
27168W        W47448   6.574   4.366  12.208  0.2020 -0.0176  0.0485
27169W        W47449   7.815   9.088  14.733  0.0077 -0.2054  0.0089
27170W        W47450   7.155   8.246   1.110 -0.2984  0.0274 -0.1907
27171W        W47451   5.823  10.897   2.020  0.1434  0.2159  0.2384
27172W        W47452   7.813  12.527  10.965 -0.3802 -0.0604 -0.0515
27173W        W47453   0.141  13.984  15.065  0.1062 -0.0343 -0.1559
27174W        W47454  16.962   0.247   0.731 -0.2002  0.2327  0.0823
27175W        W47455   7.384   9.319  14.378  0.3732 -0.1676 -0.0841
27176W        W47456   5.655   1.936   1.651  0.0627  0.0538  0.0927
27177W        W47457  16.935  17.288   2.138  0.0860 -0.0581 -0.0702
27178W        W47458   4.791  16.729  13.724 -0.3946 -0.3168 -0.3277
27179W        W47459  13.650  14.318  14.675  0.0038  0.2164  0.1471
27180W        W47460  14.414   8.979  12.603  0.2901  0.2143  0.1725
27181W        W47461  18.293   4.851   0.571  0.0398  0.1434 -0.1337
27182W        W47462  16.357   2.423   3.153 -0.1563 -0.0293  0.1577
27183W        W47463  13.076  18.417  14.925  0.2216 -0.1871  0.2324
27184W        W47464   9.411  15.306   1.269 -0.2235  0.0595  0.0350
27185W        W47465  14.467  12.733  12.870  0.1710  0.2042 -0.0163
27186W        W47466   1.913   1.712  12.716 -0.0558  0.1920  0.2556
27187W        W47467  18.437   4.306   1.073  0.2310  0.2781 -0.0129
27188W        W47468   5.322   3.645   2.745 -0.1015 -0.2738  0.1108
27189W        W47469  10.470  10.929  14.066 -0.2603 -0.0664  0.5115
27190W        W47470  12.317  18.114  12.933  0.2327 -0.1590 -0.0744
27191W        W47471  10.976  17.059  14.907 -0.1352  0.0438  0.1548
27192W        W47472   9.401  13.849   2.320 -0.1035 -0.2403 -0.0674
27193W        W47473  15.751   1.806   2.923 -0.1677  0.3357  0.0557
27194W        W47474   0.174   5.525   3.272 -0.0038  0.2184  0.0139
27195W        W47475   3.395   4.767  11.088  0.1341 -0.1730 -0.0340
27196W        W47476   6.829   8.728  11.735 -0.1280  0.0396 -0.1727
27197W        W47477   0.834  12.853   2.276  0.0143 -0.0245 -0.0085
27198W        W47478   6.451  12.697  13.664  0.1018 -0.2380  0.1044
27199W        W47479  13.972   6.653  13.151  0.1991 -0.0870 -0.0677
27200W        W47480  18.426  14.989  12.537  0.0130 -0.1633 -0.0506
27201W        W47481   6.361   8.800   1.436 -0.1708  0.0492 -0.0290
27202W        W47482  12.990   9.771   4.098  0.2703  0.2936 -0.1902
27203W        W47483  11.449   1.058  14.330 -0.0207  0.1985  0.1025
27204W        W47484   1.986   9.474  12.099  0.2607  0.0588 -0.0700
27205W        W47485  14.234  15.933  15.003 -0.1496  0.0709  0.0333
27206W        W47486   6.559   6.664  14.738  0.1508  0.2344 -0.3924
27207W        W47487  15.622   3.044   1.641  0.1430 -0.2231  0.2544
27208W        W47488  16.346  17.424  13.081  0.0605 -0.3300  0.0453
27209W        W47489   8.222  15.749   4.804 -0.2086  0.1569 -0.2731
27210W        W47490  14.240   9.068   4.014 -0.1910 -0.1085  0.1795
27211W        W47491   3.826  15.494   4.494  0.1897  0.2874  0.3070
27212W        W47492   6.302  16.245  12.544 -0.1509  0.1263  0.1771
27213W        W47493   2.306   8.043  12.398  0.1221 -0.1799 -0.3059
27214W        W47494  14.936   7.967   2.925  0.1828 -0.0187  0.1922
27215W        W47495  10.302  12.287  10.550  0.1276  0.2001  0.0735
27216W        W47496  14.992   5.744   3.694  0.2462  0.1163 -0.0866
27217W        W47497   7.003   7.180   4.256 -0.0447 -0.1594  0.1211
27218W        W47498   2.887  16.793   0.153  0.1594  0.1872  0.1903
27219W        W47499   7.433  12.425  11.812  0.1367 -0.0172  0.0942
27220W        W47500   0.472  11.669  14.759  0.1357 -0.0635 -0.1130
27221W        W47501   7.775   8.408   0.583  0.0336  0.0054  0.0914
27222W        W47502   2.571   4.749  14.684 -0.3707  0.0920 -0.2773
27223W        W47503  18.500   7.857  11.102 -0.0763  0.1337 -0.0225
27224W        W47504   1.869   1.338   3.530  0.0877  0.2698  0.0728
27225W        W47505  13.599   1.262   3.979  0.0754  0.0013  0.1279
27226W        W47506   5.877  14.516   2.976 -0.1406  0.0018  0.2560
27227W        W47507   5.913   3.838   3.307  0.3058  0.1153 -0.2215
27228W        W47508   6.157   6.474  13.653 -0.0700  0.1889  0.4735
27229W        W47509  18.281   9.357   2.655 -0.0286 -0.1287  0.0378
27230W        W47510  16.991  10.737   3.031 -0.4607  0.0480  0.1439
27231W        W47511  16.144   5.920   2.273 -0.1205 -0.1392  0.0083
27232W        W47512  11.659  11.416   2.838  0.0746  0.3546 -0.0231
27233W        W47513  12.161   0.586  14.690  0.1053  0.0181 -0.0582
27234W        W47514   6.696  17.938  12.246 -0.1390 -0.0440 -0.1288
27235W        W47515   5.322   6.148  13.420  0.0055  0.0234 -0.2024
27236W        W47516   1.233  10.553   0.171 -0.0193 -0.0089 -0.0849
27237W        W47517  10.721  18.468  13.183 -0.0003 -0.0293 -0.3023
27238W        W47518  17.079  10.650   1.668  0.1749  0.0072  0.0425
27239W        W47519  10.232   1.023  14.156 -0.2491 -0.1306 -0.0399
27240W        W47520   6.494   2.252   0.721  0.2990 -0.0175 -0.1979
27241W        W47521   1.235  18.258   3.064  0.1368 -0.2014 -0.2117
27242W        W47522   4.640   2.498  11.493 -0.0588  0.0976  0.0004
27243W        W47523  18.205   7.757   3.956  0.0234 -0.1766 -0.3684
27244W        W47524   8.571   4.957  11.796 -0.0975 -0.0428 -0.2318
27245W        W47525  17.947   6.997   2.813  0.0959 -0.0585 -0.0148
27246W        W47526   2.450  13.218  11.801  0.1746 -0.1534  0.1824
27247W        W47527  12.304  14.869   1.299  0.0439  0.0040 -0.0070
27248W        W47528   0.649   8.158  10.224  0.0849  0.0853  0.0470
27249W        W47529  15.804  11.243  11.751  0.2081  0.0988 -0.1683
27250W        W47530  13.971  12.279   0.225  0.0361  0.1434  0.0225
27251W        W47531   6.152   8.818   4.406 -0.0985 -0.2944  0.0690
27252W        W47532   5.051  12.015  14.568  0.0677 -0.1141 -0.0251
27253W        W47533   2.497  10.824  15.373 -0.1061 -0.2182 -0.0827
27254W        W47534  13.894   9.295  12.371 -0.2305  0.1041  0.0530
27255W        W47535   0.537   3.097   3.785  0.1044 -0.1123 -0.1316
27256W        W47536  12.368  11.124   2.169  0.1067 -0.0349 -0.0021
27257W        W47537   6.314   6.807   3.670 -0.1759 -0.0456 -0.1386
27258W        W47538   0.766   6.377  12.503  0.0357 -0.3062  0.1266
27259W        W47539   8.327   9.940  12.138  0.1760 -0.3466  0.4862
27260W        W47540   1.769   2.325  13.767 -0.0579  0.0414  0.3376
27261W        W47541  18.086   6.847  15.370 -0.0817  0.2757  0.2581
27262W        W47542   9.594  14.758   3.411  0.0464 -0.1415  0.1723
27263W        W47543   1.319  16.104   0.851 -0.0208 -0.1247 -0.1087
27264W        W47544   8.437  17.524   3.800 -0.1264  0.0696  0.1758
27265W        W47545   2.874  17.890  14.114 -0.1551  0.1138  0.1256
27266W        W47546  10.668   7.807  12.122  0.0540  0.1134  0.1569
27267W        W47547  14.232   4.765   0.449 -0.3222 -0.1235 -0.0125
27268W        W47548  15.717  17.102  13.689  0.0210 -0.0443  0.0174
27269W        W47549   2.651   7.899  10.881 -0.0148  0.2320  0.1584
27270W        W47550  17.311  16.133   3.967 -0.0191  0.2843 -0.1806
27271W        W47551   8.101  11.973   4.021  0.0342  0.1643 -0.0535
27272W        W47552  10.284   5.506  14.850  0.1617  0.0656 -0.0509
27273W        W47553   5.504   0.592  10.829  0.1994 -0.1835  0.0048
27274W        W47554   3.959   7.961  14.272 -0.0627 -0.1184 -0.2540
27275W        W47555  11.648   5.254  12.203 -0.0639 -0.0934  0.0932
27276W        W47556   3.774   5.356   4.039  0.0483 -0.2693  0.0842
27277W        W47557   5.710   0.773   4.574  0.2725  0.1513 -0.2110
27278W        W47558  11.258   6.583   3.663 -0.0243  0.0744  0.0117
27279W        W47559   5.313  18.665   3.438 -0.1666 -0.1204  0.0530
27280W        W47560   3.527   8.681   4.654  0.1499 -0.2135  0.1313
27281W        W47561  12.279  11.316  15.017 -0.0818  0.1095  0.1991
27282W        W47562   1.577   2.753  14.426 -0.0997 -0.2896 -0.1871
27283W        W47563   4.173  10.555   3.719 -0.1222 -0.1607  0.1424
27284W        W47564   4.202  17.862   1.803 -0.1568 -0.0340  0.2909
27285W        W47565   2.441  13.019   3.787 -0.0229 -0.2438 -0.0390
27286W        W47566   7.447   7.346   4.641 -0.3286  0.0262 -0.0264
27287W        W47567  11.586  13.618  14.108 -0.0160  0.2283 -0.3389
27288W        W47568  13.609  13.671   3.814  0.1377 -0.1440 -0.0369
27289W        W47569   4.403  18.484  14.610 -0.1043  0.2748 -0.0269
27290W        W47570   7.888  14.647  11.505  0.0858 -0.0663  0.3266
27291W        W47571  10.137   9.802   1.128 -0.0916 -0.0985  0.0435
27292W        W47572  15.084  17.214   3.662  0.3078 -0.1845  0.1399
27293W        W47573   6.815   8.026  11.737 -0.2687  0.0813 -0.1081
27294W        W47574  16.063  16.467  13.288 -0.0832  0.3634 -0.0235
27295W        W47575  17.219  12.518  14.021  0.1516 -0.0706 -0.1958
27296W        W47576  15.281  15.735   3.031  0.3640 -0.0927  0.1609
27297W        W47577   2.509   9.255  14.559 -0.0580 -0.1594 -0.1285
27298W        W47578  14.112   3.830   4.618 -0.3458 -0.1497  0.0282
27299W        W47579   5.985  13.529   4.277  0.2648 -0.0664 -0.3103
27300W        W47580   7.265  16.211   1.715  0.1643  0.0085  0.1236
27301W        W47581  14.218   9.507  11.864  0.1073 -0.0961  0.0921
27302W        W47582   2.631  17.356   3.768  0.2521  0.2188 -0.0229
27303W        W47583  16.639  15.779   2.165  0.1277 -0.1057  0.3815
27304W        W47584   7.744   1.153   4.154  0.3328  0.1560 -0.0736
27305W        W47585  10.447  10.920   2.164 -0.0224  0.2320  0.1428
27306W        W47586   8.138   6.424  15.062 -0.0105 -0.2718  0.0098
27307W        W47587   0.601  14.184  12.615 -0.0597  0.3538 -0.1023
27308W        W47588   1.633   8.690   2.010  0.1823  0.2224 -0.0622
27309W        W47589   8.639   7.778  14.120  0.1159 -0.3115 -0.1015
27310W        W47590   8.343   6.434   2.009 -0.0646 -0.3002 -0.1027
27311W        W47591   3.181  15.314  13.983  0.4326 -0.0896  0.0160
27312W        W47592  14.712  18.592  14.594 -0.0074 -0.3045 -0.1433
27313W        W47593   9.431   1.096  14.795 -0.1480  0.0177 -0.1239
27314W        W47594   5.367  10.701   1.995  0.0087 -0.1356 -0.2294
27315W        W47595  10.831   7.405  12.467 -0.3309  0.1543  0.1273
27316W        W47596   6.375  18.731  14.541 -0.0234 -0.2259  0.0859
27317W        W47597  15.588   5.778  13.639 -0.0196  0.1443  0.1032
27318W        W47598   4.434   8.915   0.595 -0.0837  0.1349 -0.1906
27319W        W47599   5.900   9.195   2.966  0.3514 -0.1150  0.3990
27320W        W47600   1.875  13.920   3.175 -0.3063  0.1008 -0.2431
27321W        W47601   9.311   0.466  13.985 -0.0576  0.0708  0.1791
27322W        W47602  15.943  15.303   0.820  0.0051  0.3512 -0.1095
27323W        W47603   4.727  13.281  12.008 -0.0299 -0.1372  0.1598
27324W        W47604   0.493  16.641   2.440 -0.1339 -0.4149 -0.2290
27325W        W47605   0.129  14.733   1.730  0.2716 -0.0609  0.0661
27326W        W47606   0.047  18.677   2.739  0.0411 -0.2130 -0.2669
27327W        W47607   8.880   5.841  12.210  0.0555 -0.3008 -0.0634
27328W        W47608   5.615  18.598  11.253 -0.1580 -0.1203  0.0980
27329W        W47609   0.261  13.814  13.634 -0.2050 -0.0078 -0.1670
27330W        W47610  13.636  16.067  11.765  0.1087 -0.1873  0.1920
27331W        W47611  13.810  17.807  11.118  0.0195 -0.0377 -0.3978
27332W        W47612  14.389   4.872  14.193  0.1664  0.4442 -0.0056
27333W        W47613  16.413   3.863  11.726 -0.2137  0.0084 -0.1067
27334W        W47614  15.652   8.748   1.503  0.0224  0.2254  0.3280
27335W        W47615  10.231   5.285   1.158 -0.3760  0.0375 -0.2402
27336W        W47616   3.250   5.016   1.851  0.1761  0.0529  0.2380
27337W        W47617  14.078  14.040  12.142  0.2734  0.1633  0.2622
27338W        W47618  13.199  11.526   3.978  0.2625  0.0167 -0.3385
27339W        W47619  17.068   1.008  12.029 -0.0463 -0.0133  0.1195
27340W        W47620  16.595   4.866   3.139  0.0009 -0.1454 -0.2462
27341W        W47621   7.068  13.372  12.270 -0.0589 -0.1769 -0.1395
27342W        W47622  17.855   4.570  10.773  0.0716  0.1472  0.1024
27343W        W47623  12.165   1.845  12.219  0.2127  0.0982  0.2537
27344W        W47624   9.783  12.217   0.770 -0.0510  0.1776  0.0097
27345W        W47625  13.941   3.841  11.512  0.0584 -0.0511 -0.2143
27346W        W47626  11.237  15.724   0.808  0.1653 -0.0463 -0.2965
27347W        W47627   6.441   3.232   3.758  0.1120  0.1508 -0.1303
27348W        W47628  17.929   8.549   3.507  0.0697  0.1615  0.1086
27349W        W47629   9.989   3.741   0.011  0.1987 -0.0061 -0.0559
27350W        W47630   8.401  13.843  13.000  0.0231  0.0377 -0.1015
27351W        W47631   1.267  13.539   1.289  0.0039 -0.1154  0.0381
27352W        W47632  17.481   0.485   1.359 -0.0200  0.0367  0.1886
27353W        W47633  10.068   0.614   1.004  0.1185  0.1615  0.2534
27354W        W47634   3.382   5.829  13.692 -0.1009  0.0735 -0.2931
27355W        W47635   2.968  16.606   1.948 -0.2091 -0.1014  0.0975
27356W        W47636   7.460  16.506   0.279  0.2700 -0.2716  0.0570
27357W        W47637   2.988   5.772  12.134  0.0171 -0.1076  0.1582
27358W        W47638   8.759   8.233   2.441 -0.1224 -0.0195 -0.1401
27359W        W47639   1.624   4.967  12.575  0.2334  0.2603  0.0687
27360W        W47640  18.092  17.623  13.151  0.1038  0.1064  0.1275
27361W        W47641   2.759   2.721  14.974 -0.2808 -0.3554  0.0375
27362W        W47642  17.184   5.024   2.021  0.3043 -0.1484  0.1423
27363W        W47643   2.980  10.277   0.748 -0.0746 -0.3025 -0.0424
27364W        W47644  11.162   5.204  13.483 -0.2211 -0.1029  0.0343
27365W        W47645  12.477  11.599   2.429 -0.5287  0.1734  0.1456
27366W        W47646   8.498   0.581  14.432 -0.0334  0.1743  0.0495
27367W        W47647   3.083   2.425  13.287  0.0361  0.0404 -0.0263
27368W        W47648  17.902   0.381  11.172  0.3379  0.0607 -0.0981
27369W        W47649  17.168  13.015  11.049 -0.1633  0.2287  0.0279
27370W        W47650  14.363  11.449  12.076 -0.1336  0.0235  0.2816
27371W        W47651  13.673   0.397   2.945 -0.1353  0.3022 -0.0375
27372W        W47652   5.922   5.015  12.138  0.1819 -0.2591 -0.3009
27373W        W47653   5.631  13.952   0.516 -0.0999 -0.0823  0.4165
27374W        W47654  15.097  12.506   3.869  0.0587 -0.3347  0.1106
27375W        W47655   8.899   2.429   2.848  0.1247  0.0131  0.3395
27376W        W47656   5.051   7.499   3.135  0.0738  0.0335  0.2637
27377W        W47657   3.734   5.654  11.283 -0.2109 -0.3458  0.1261
27378W        W47658  16.367  10.904   3.503  0.1711  0.1440  0.1309
27379W        W47659  13.028   7.185  10.736  0.1512 -0.2184  0.2244
27380W        W47660  15.106   1.517  11.912 -0.1921 -0.0312  0.1410
27381W        W47661  15.493   5.920   3.912 -0.0950 -0.1205 -0.0075
27382W        W47662   8.293  18.583   1.720  0.2999  0.0268  0.1214
27383W        W47663   0.793  16.390   1.622 -0.0326  0.0120 -0.1546
27384W        W47664   5.570   1.290  15.296 -0.0032  0.2107 -0.1296
27385W        W47665   1.683   0.124   2.660 -0.0465 -0.2590  0.0981
27386W        W47666   1.499   2.649   4.196  0.0603 -0.0054  0.3428
27387W        W47667  10.172  14.187  11.792 -0.0820  0.1991  0.0313
27388W        W47668   3.201   6.139   2.369  0.1009  0.3947  0.1838
27389W        W47669  17.607   4.071  13.777 -0.0471 -0.3162 -0.1180
27390W        W47670  16.822  17.496  11.816  0.0044 -0.0116  0.1884
27391W        W47671   8.388  14.984   9.926  0.6492  0.0577  0.0821
27392W        W47672   0.799  10.058   4.479 -0.1400  0.4484  0.3327
27393W        W47673  11.830   8.707  12.715  0.1642 -0.0718  0.0111
27394W        W47674   6.316   6.136   2.501 -0.0067  0.1037  0.2619
27395W        W47675   1.327   0.811   3.954  0.0394 -0.2838  0.0442
27396W        W47676  10.430  17.483  11.131  0.0523  0.1993  0.0433
27397W        W47677   0.156  12.235   0.780  0.3325  0.0259 -0.1331
27398W        W47678  17.080   3.278  11.212  0.3031  0.3870  0.1164
27399W        W47679  12.914  15.390  15.221 -0.2773 -0.1031 -0.2155
27400W        W47680   9.295   4.989  15.370 -0.1850  0.4120  0.0804
27401W        W47681  15.259   2.760  14.170 -0.2169 -0.0379  0.0071
27402W        W47682   1.232   4.985   3.038  0.0997 -0.0978  0.2362
27403W        W47683   7.343   5.368   2.225 -0.0979  0.1763 -0.1419
27404W        W47684   4.780  18.193  14.310  0.2780  0.0864  0.1025
27405W        W47685  12.543  12.663   1.830 -0.0573  0.4596 -0.2382
27406W        W47686  13.557  17.517   1.030 -0.1140  0.1442 -0.1260
27407W        W47687   6.197  18.422  13.548 -0.0894  0.1108  0.0881
27408W        W47688  12.745  16.931  12.130  0.0927  0.1209  0.0298
27409W        W47689   5.027  17.300   2.782  0.2938 -0.3741 -0.3154
27410W        W47690   1.131   8.376  11.323  0.1342  0.2274 -0.2076
27411W        W47691  10.846  11.997   0.291 -0.0826  0.0813 -0.0098
27412W        W47692  15.437   2.464   0.564  0.0854  0.0747  0.0107
27413W        W47693   6.002   0.999  10.913 -0.1306 -0.1797 -0.0586
27414W        W47694   3.192   1.053  12.053  0.2149 -0.0524  0.2265
27415W        W47695   6.400  17.877   1.768 -0.1943  0.1516  0.1772
27416W        W47696  14.400  12.999   0.290 -0.1712  0.1509 -0.2162
27417W        W47697  17.438   0.281   2.244 -0.1821 -0.1195 -0.3368
27418W        W47698   8.992   0.077   3.422  0.0365 -0.1197 -0.0339
27419W        W47699   5.613  17.570   2.042  0.3504  0.0323 -0.0510
27420W        W47700   0.968   1.169   3.043  0.2904  0.3593  0.0944
27421W        W47701   5.550  17.558   3.782 -0.1088  0.1051 -0.0430
27422W        W47702  11.940  18.099  14.262  0.1531  0.1490  0.2792
27423W        W47703  16.438  12.686  13.278  0.1627  0.0331 -0.0932
27424W        W47704   4.894   9.414   3.213 -0.1121  0.0211 -0.1253
27425W        W47705  10.545   9.300  14.805  0.1758 -0.1356 -0.0289
27426W        W47706   7.987   8.622  14.567  0.0295 -0.1796  0.1240
27427W        W47707  16.669  11.523  13.247 -0.1326  0.0186 -0.3734
27428W        W47708  15.640   1.793   3.451  0.0446 -0.0851  0.0877
27429W        W47709   7.666   9.496  11.123  0.0990 -0.1700  0.1892
27430W        W47710  11.859  11.317  11.792 -0.0469 -0.0568 -0.1607
27431W        W47711  16.226   5.876   5.753  0.1860  0.3129  0.0038
27432W        W47712   3.961  16.091  14.846 -0.0303 -0.0579 -0.1359
27433W        W47713   6.537   6.865  12.359 -0.0009 -0.1230 -0.0187
27434W        W47714   8.369  13.560   3.054  0.0190  0.0726  0.3420
27435W        W47715  17.256  14.602  12.549 -0.3587 -0.3092 -0.0450
27436W        W47716   5.687   7.334  11.685  0.1720  0.0327 -0.2657
27437W        W47717  14.417  14.908  11.467  0.1177 -0.1860 -0.0917
27438W        W47718   3.831  11.145  12.962 -0.0810  0.2082  0.0116
27439W        W47719  12.592  10.338   0.443  0.0279 -0.2539 -0.0075
27440W        W47720  11.791   2.144  10.399  0.1049  0.0936 -0.1634
27441W        W47721   8.926   5.914  13.086  0.1340  0.2675 -0.0950
27442W        W47722  17.400   5.873   2.367 -0.0808 -0.0839 -0.2065
27443W        W47723   8.546  16.892   3.539  0.1012 -0.0694  0.0375
27444W        W47724   0.300  15.252   0.376  0.5262  0.1389  0.0123
27445W        W47725   2.747   6.699  12.952 -0.5179  0.3296  0.0822
27446W        W47726  16.566  12.734  11.823  0.1155 -0.1994  0.1297
27447W        W47727   2.941  18.713  13.975  0.3752  0.0535 -0.1477
27448W        W47728   4.539   3.725   0.074 -0.1325  0.0896  0.1539
27449W        W47729   7.733  14.777   2.186 -0.0231 -0.0509 -0.0711
27450W        W47730   7.087  11.456   2.204  0.0782 -0.1872 -0.0650
27451W        W47731   1.312  14.367  10.808 -0.1533 -0.0303 -0.2585
27452W        W47732   3.709   1.789   0.153 -0.0419  0.1398 -0.0875
27453W        W47733  13.482  11.232  11.807  0.2073  0.2004 -0.0557
27454W        W47734   7.560  14.009   0.582  0.1791 -0.0871  0.2420
27455W        W47735   0.455   7.515  11.972 -0.1112  0.1502  0.2614
27456W        W47736  10.354  14.178   3.793 -0.1348 -0.0311 -0.1294
27457W        W47737   7.722   7.185   2.496 -0.1406  0.0252 -0.2634
27458W        W47738   0.440   5.236  13.006 -0.2509 -0.0364 -0.3389
27459W        W47739   5.623   6.594   2.366  0.0734 -0.3028 -0.3169
27460W        W47740   5.287  15.375  12.034  0.0828 -0.1436  0.1412
27461W        W47741  18.438  16.768   2.666  0.1142 -0.3388  0.1230
27462W        W47742  16.913   8.108  15.335 -0.1257 -0.1532  0.1662
27463W        W47743  13.898   3.736   1.209 -0.0787 -0.1821 -0.1538
27464W        W47744   8.519  10.309   5.718 -0.1213 -0.1164  0.4163
27465W        W47745   1.926  16.655  13.608  0.3277 -0.1153  0.0232
27466W        W47746  14.386   1.049  14.507 -0.0984 -0.0956  0.1268
27467W        W47747  15.455   4.541  13.813  0.0964 -0.0025 -0.1881
27468W        W47748   7.141   8.727  14.333 -0.0669  0.0877  0.2366
27469W        W47749  17.370  17.319   5.677  0.0275  0.1357 -0.1301
27470W        W47750  14.270  10.692   2.936 -0.1068 -0.2075 -0.1149
27471W        W47751   5.586   7.198  12.529 -0.0970 -0.0080 -0.0983
27472W        W47752  17.898  15.675   3.451 -0.0208 -0.0094  0.2814
27473W        W47753   5.205  17.435   2.278  0.4180  0.3285 -0.0225
27474W        W47754  12.637  10.655   2.136  0.0029  0.1947  0.0113
27475W        W47755  10.924   1.758   2.941 -0.2068  0.1211 -0.0991
27476W        W47756  14.294   0.428  12.922 -0.0414  0.2295  0.0246
27477W        W47757   8.141  15.031  10.358 -0.0052 -0.3290 -0.2272
27478W        W47758   0.791   3.969   2.296  0.2246 -0.0935 -0.2102
27479W        W47759  13.151  17.611  15.150 -0.2107  0.1175 -0.0433
27480W        W47760  13.117  13.953   0.470 -0.2400 -0.2119 -0.1346
27481W        W47761   3.190   7.777  11.466  0.0031 -0.0892 -0.1697
27482W        W47762   4.841  12.503  14.593  0.0769 -0.0107  0.0048
27483W        W47763   6.729  13.905   2.206  0.2297  0.0678  0.0487
27484W        W47764  13.512   2.820   1.091 -0.0625  0.1275 -0.0089
27485W        W47765   9.256   3.123   3.801  0.0330  0.0183  0.0566
27486W        W47766   3.886   4.507   1.647  0.1852  0.0139 -0.0122
27487W        W47767   2.189   3.438  14.466 -0.1047  0.2547 -0.4117
27488W        W47768   7.570  13.651  11.024 -0.1135 -0.0874 -0.1715
27489W        W47769  12.039   2.350   3.217 -0.0273 -0.0945  0.0458
27490W        W47770   9.831  10.451  14.055  0.0321  0.2296 -0.2727
27491W        W47771  16.258  18.276   1.151  0.0274 -0.0510  0.0532
27492W        W47772  18.630  11.267  15.065  0.0537 -0.1277  0.2078
27493W        W47773  10.009   6.654  11.497  0.1301  0.0554  0.0765
27494W        W47774  11.567  16.681   2.232  0.0847  0.0556 -0.1913
27495W        W47775   6.032   3.469  13.518  0.0977  0.1166  0.3347
27496W        W47776  13.558   5.822   1.088 -0.2881 -0.1272  0.0167
27497W        W47777   9.190   6.578   2.082  0.1180  0.0733  0.0946
27498W        W47778  11.403  12.083   3.506  0.2616 -0.0955 -0.4074
27499W        W47779   0.957  13.758   2.235 -0.0261 -0.1111  0.1002
27500W        W47780  11.030   9.925   0.896 -0.0767  0.1435 -0.0242
27501W        W47781   0.225  13.113  12.899 -0.0120 -0.1650 -0.4044
27502W        W47782   8.619  16.812   1.744  0.0818  0.0680 -0.0155
27503W        W47783   6.635  10.916  12.644  0.0447 -0.0296 -0.0195
27504W        W47784   5.026   0.780  10.940  0.3034 -0.2364  0.1815
27505W        W47785  12.225  15.388   3.386 -0.2653 -0.0590  0.1217
27506W        W47786  13.330  14.004  13.146  0.0406  0.1824  0.1265
27507W        W47787  15.314   0.606   3.555  0.1983  0.0094 -0.1477
27508W        W47788  17.223   0.393   2.955 -0.0355 -0.0096 -0.1940
27509W        W47789  15.419  12.840  14.792 -0.0250  0.0554  0.3629
27510W        W47790   8.389  17.616  13.717  0.1192 -0.1099  0.1458
27511W        W47791  12.743   5.970   0.763 -0.0049 -0.1941 -0.0305
27512W        W47792   0.105  15.315   1.950 -0.2779 -0.2615 -0.1368
27513W        W47793  14.739   2.064  14.142  0.0133  0.0991 -0.0567
27514W        W47794  16.797  13.345   1.154 -0.1990 -0.1031  0.3994
27515W        W47795   2.850   8.583  11.524 -0.1999  0.0917  0.0195
27516W        W47796   7.113   8.371  11.516  0.0931  0.0193  0.3854
27517W        W47797  12.943   5.125   1.839 -0.0197  0.0442  0.0745
27518W        W47798   8.570   9.809   2.307  0.0610 -0.0298 -0.1063
27519W        W47799  17.256   0.220   1.728 -0.4199  0.1303 -0.2955
27520W        W47800   4.665   1.966  13.991  0.2940  0.2578  0.0393
27521W        W47801   8.977   8.913  11.824  0.0937  0.1364  0.0470
27522W        W47802  15.728   9.666   1.483  0.1422  0.3498 -0.0772
27523W        W47803   9.996   9.492   2.001 -0.2338  0.1510  0.0267
27524W        W47804   4.165   7.029  14.655  0.4367  0.1620 -0.1660
27525W        W47805   3.957   9.795  11.074 -0.0132 -0.2236 -0.2013
27526W        W47806   6.760   1.837  11.283 -0.2961 -0.1451  0.1150
27527W        W47807   6.615   4.792  14.692 -0.2204  0.0570  0.0570
27528W        W47808  11.052  16.400   2.079 -0.1315 -0.0712 -0.0133
27529W        W47809  11.970  17.380  15.017 -0.1129 -0.0625 -0.0892
27530W        W47810  11.566   6.205   3.082 -0.0619  0.1819  0.1096
27531W        W47811   5.625   9.144   0.615 -0.0688  0.2030 -0.2155
27532W        W47812  18.143  12.524  12.666 -0.1193 -0.3608 -0.2423
27533W        W47813   1.159   8.274  10.854  0.1842 -0.1443 -0.2068
27534W        W47814   8.003  18.651  13.517  0.0238 -0.0464 -0.4215
27535W        W47815   5.523   4.778  15.206  0.0148  0.1147 -0.2235
27536W        W47816  13.892   1.805   1.248 -0.1112 -0.2076  0.2600
27537W        W47817  13.105  14.505  12.115 -0.4558  0.0465 -0.1518
27538W        W47818   9.740   6.780  13.275  0.1886  0.0361  0.0860
27539W        W47819  10.339  15.534   3.730 -0.2907  0.0930 -0.0323
27540W        W47820   9.513   7.869   2.738  0.2901 -0.2692 -0.3949
27541W        W47821  15.080  17.772   3.532  0.0404  0.1061  0.0890
27542W        W47822  10.663  12.087  13.610 -0.1908  0.4187 -0.1211
27543W        W47823   2.557  11.535  12.379 -0.0243 -0.2556  0.3742
27544W        W47824   0.080  11.154   0.098  0.2282  0.2655  0.0467
27545W        W47825   8.200   0.582  11.573  0.1237 -0.0426 -0.1879
27546W        W47826   2.480   6.711   4.948 -0.1934  0.0253 -0.1833
27547W        W47827   6.317  15.560  10.184 -0.0354 -0.0592 -0.0115
27548W        W47828  17.382   0.143  12.835  0.3987 -0.0395  0.0079
27549W        W47829  17.583   1.080  11.855 -0.0431 -0.5039 -0.0518
27550W        W47830  13.934  16.542   2.541  0.1542 -0.1205  0.0393
27551W        W47831  15.871   0.945  10.236 -0.0397 -0.0478  0.0977
27552W        W47832   8.260   1.921   3.444 -0.0580  0.2167 -0.1588
27553W        W47833   9.934   3.481  14.414 -0.0720  0.1763  0.1289
27554W        W47834  17.017   2.913   1.981  0.0374  0.0329  0.0927
27555W        W47835   7.772  16.730  14.640  0.2744 -0.1268  0.1296
27556W        W47836  13.715   2.964   4.240  0.1924 -0.1669 -0.0903
27557W        W47837   9.209   5.531  11.362  0.1281 -0.1035 -0.2788
27558W        W47838   2.980   1.122   2.791 -0.2121 -0.0799 -0.0778
27559W        W47839  14.354   3.337   1.567 -0.1522 -0.0957 -0.0260
27560W        W47840   0.456   4.108  15.112  0.4368 -0.1644  0.0039
27561W        W47841  10.405  18.528  14.881  0.0909 -0.1450  0.2372
27562W        W47842  17.470  14.405   2.221  0.3534 -0.0235 -0.1345
27563W        W47843   9.129   4.663   0.530 -0.0645 -0.2493 -0.1738
27564W        W47844  13.373   3.494  11.984  0.1521  0.2358 -0.2356
27565W        W47845  16.506  11.387  11.284 -0.2671  0.3710  0.3667
27566W        W47846   1.571  17.282  12.923 -0.3798 -0.1100 -0.0727
27567W        W47847  15.418   0.846  13.436 -0.0855  0.1275 -0.1332
27568W        W47848  13.792   4.320  14.412 -0.2958  0.0676  0.1620
27569W        W47849   9.022   7.318   1.462  0.1771 -0.0388 -0.1181
27570W        W47850  13.540   4.725  14.213 -0.0738 -0.0449 -0.2722
27571W        W47851   7.118   6.014   3.696  0.0944 -0.3058 -0.1437
27572W        W47852   9.982  11.892   1.126 -0.0883 -0.2849 -0.1512
27573W        W47853   2.187   0.830   2.411  0.0580 -0.0660  0.0992
27574W        W47854  18.535   6.196  14.995 -0.4271  0.5450  0.2071
27575W        W47855   7.308  10.931   0.730  0.0489  0.3082  0.0884
27576W        W47856   9.051   3.727   0.642  0.2213 -0.2364 -0.0708
27577W        W47857   9.906   0.390   0.476  0.1593 -0.3610 -0.3946
27578W        W47858  12.441   2.144   3.046 -0.0786  0.0749  0.1521
27579W        W47859  16.242   3.998  14.304 -0.0079  0.1659  0.0610
27580W        W47860  17.562  10.635   3.827 -0.1352  0.0069 -0.2198
27581W        W47861  18.075   0.348   2.300  0.0718 -0.1771 -0.0208
27582W        W47862   4.689  17.602   9.264  0.0860  0.1652 -0.0417
27583W        W47863  12.373  13.967   3.812  0.2763  0.2377 -0.3458
27584W        W47864   4.243  14.326   4.467  0.0280 -0.1793  0.2876
27585W        W47865  17.971  16.776   2.473  0.0396 -0.1538 -0.2327
27586W        W47866   2.463  18.694   0.406 -0.2153  0.3193 -0.3680
27587W        W47867   6.638   4.397  11.289 -0.1631 -0.0539 -0.1304
27588W        W47868   7.666  10.626   0.596 -0.1128 -0.0422  0.0791
27589W        W47869   7.768   0.391  14.823  0.4411 -0.0304  0.1995
27590W        W47870   5.442  13.055  11.330 -0.1203  0.1319 -0.0377
27591W        W47871  14.214  16.918   2.811 -0.1820  0.0755 -0.1185
27592W        W47872   9.042   8.403  13.720  0.2692  0.0438  0.0201
27593W        W47873   7.810  14.080   3.953  0.1656  0.0300  0.2994
27594W        W47874   4.116  13.076   2.494 -0.3426  0.0585 -0.1760
27595W        W47875   8.780  18.635   1.915  0.1859 -0.3098  0.0838
27596W        W47876  18.184   0.776  11.346 -0.1343  0.0017 -0.0965
27597W        W47877   8.009  11.100   5.592 -0.0313 -0.0135 -0.1023
27598W        W47878   2.186  12.851   1.557 -0.0700 -0.3172  0.0380
27599W        W47879  13.072   7.735  15.345  0.1658 -0.1361  0.2793
27600W        W47880   6.906   9.668  10.917  0.1247 -0.0864  0.0852
27601W        W47881  13.164   7.357  11.726 -0.1938 -0.0472  0.0253
27602W        W47882  14.741  11.677  12.341  0.2266  0.2178 -0.1489
27603W        W47883   9.015   6.604   1.621 -0.0809 -0.2190 -0.0688
27604W        W47884  17.996  14.970  12.111 -0.3997 -0.1403 -0.3375
27605W        W47885  16.103   1.359  13.032  0.0233  0.0677 -0.2223
27606W        W47886   2.638  14.874   0.468  0.3149 -0.1662  0.0762
27607W        W47887   2.927  13.704   3.100  0.3185 -0.1559  0.1620
27608W        W47888   8.025  15.880   2.509 -0.1178  0.0993  0.0915
27609W        W47889   5.834  15.912  13.190  0.0280 -0.0251 -0.0263
27610W        W47890   2.586   1.054  11.677  0.0959  0.1331 -0.1108
27611W        W47891   9.141  13.719   1.368 -0.0804  0.1526  0.0611
27612W        W47892   8.243   9.187   1.003  0.4720 -0.0314  0.0757
27613W        W47893   6.270   6.442   1.434  0.0593  0.1694  0.0804
27614W        W47894  17.349  15.872  11.025 -0.0047  0.1241 -0.0590
27615W        W47895  10.368   6.686   0.782 -0.2377 -0.0306 -0.0409
27616W        W47896   4.487  12.026   4.344  0.2561  0.0261 -0.0334
27617W        W47897   3.307  17.515  12.303 -0.4110 -0.3308  0.2800
27618W        W47898  17.735   5.490  15.305 -0.2437 -0.1846 -0.0048
27619W        W47899  10.514  13.183  12.455  0.1951 -0.1271 -0.2828
27620W        W47900   1.677   1.409   4.024  0.0028 -0.0671  0.1680
27621W        W47901  15.726   1.254   4.260 -0.0604 -0.1367 -0.0625
27622W        W47902  10.668   7.293   0.844 -0.1589 -0.0363 -0.1970
27623W        W47903   4.711  15.484  13.301  0.2089  0.2229 -0.0727
27624W        W47904   7.193  16.901  14.550 -0.0395  0.2095  0.2823
27625W        W47905   8.510  10.749  14.900 -0.2927  0.1922 -0.2603
27626W        W47906  17.652   7.795   0.811  0.1734  0.0854  0.1388
27627W        W47907   4.437  14.228   1.782  0.0064 -0.0557 -0.1840
27628W        W47908   7.175  10.487   0.490  0.3454  0.0348 -0.1038
27629W        W47909   8.292   9.035  13.507 -0.1835  0.0743 -0.1030
27630W        W47910  11.760   5.512   1.297  0.0482 -0.3736  0.0961
27631W        W47911  13.045   8.032  12.206 -0.1818 -0.3764 -0.2037
27632W        W47912   4.879  15.589   3.241  0.2536  0.0836  0.0744
27633W        W47913   0.245   7.651   4.711  0.0668 -0.0535  0.1930
27634W        W47914   3.674  10.923   1.777 -0.0305  0.3159  0.1527
27635W        W47915   2.902  16.651  13.129  0.3919 -0.1152 -0.0571
27636W        W47916  13.283   1.433  14.027  0.4768  0.1382 -0.1363
27637W        W47917   9.144   1.585   4.124  0.2585 -0.2775 -0.0007
27638W        W47918   7.514  13.451  14.046  0.2053 -0.0952  0.0661
27639W        W47919   0.038   9.316  14.748 -0.1112  0.1815  0.1453
27640W        W47920   0.221   3.533   2.971  0.1015 -0.0474 -0.1003
27641W        W47921   4.421   3.785   1.586 -0.5162  0.0395  0.0066
27642W        W47922   0.627   6.248  13.938  0.0806 -0.0894  0.1783
27643W        W47923   9.634   4.221   3.972 -0.3763 -0.1021  0.1298
27644W        W47924   6.223  18.719   3.449  0.0738  0.0525  0.0545
27645W        W47925  16.600  13.189   0.732  0.1882  0.2608 -0.0159
27646W        W47926   9.710   0.175   1.696  0.0276  0.1594 -0.0266
27647W        W47927  12.123  10.591  12.034  0.1977  0.0507 -0.2957
27648W        W47928   1.530   1.108  13.191  0.1123  0.3198 -0.2045
27649W        W47929  12.348  10.824   5.170 -0.0210 -0.1395  0.0215
27650W        W47930   4.056  11.181   0.281 -0.1625  0.1185 -0.1795
27651W        W47931  13.014  16.459   3.495  0.1167  0.1720 -0.2452
27652W        W47932  16.459   8.922  13.971 -0.0883 -0.0850 -0.0923
27653W        W47933  18.624  12.548   1.050 -0.2275 -0.0930 -0.4476
27654W        W47934   3.811   5.470   3.092  0.1125 -0.2990  0.2100
27655W        W47935   5.304   4.058   0.844 -0.1165 -0.2387  0.4516
27656W        W47936  11.053   1.610   1.188  0.0170  0.0294 -0.3049
27657W        W47937   0.732   9.688  13.567  0.0769  0.1800  0.1703
27658W        W47938   6.470   4.517   3.416 -0.0445 -0.3990 -0.0379
27659W        W47939   3.599   5.623   1.115 -0.0047 -0.1480  0.3953
27660W        W47940  11.188  18.444  14.450 -0.0966 -0.1156 -0.1778
27661W        W47941  12.856   0.066   2.946 -0.1216 -0.0949 -0.0852
27662W        W47942   6.680   3.130   1.120  0.0056  0.2660  0.3533
27663W        W47943   5.310   2.233  14.859 -0.0346 -0.0834 -0.2342
27664W        W47944   7.667   5.909   3.873  0.0449 -0.0775 -0.0476
27665W        W47945   6.653   1.988  11.791 -0.0199 -0.3119 -0.1352
27666W        W47946   7.450   9.576   4.383 -0.0874  0.0624 -0.1534
27667W        W47947   8.058   0.351  12.953 -0.1624  0.0416  0.2941
27668W        W47948   0.632   9.192   1.314  0.1813  0.0810 -0.0010
27669W        W47949  18.147  16.262  13.720 -0.0186  0.0734  0.2539
27670W        W47950   6.847  17.028  12.040  0.2328  0.1376  0.2711
27671W        W47951  11.123   6.554  13.626  0.0309  0.0971  0.3698
27672W        W47952  12.424  14.401   1.107 -0.1133  0.0032  0.2474
27673W        W47953   5.050  13.926   4.189  0.0072  0.0314 -0.2287
27674W        W47954  16.031   0.677  11.148  0.3253 -0.2920 -0.0878
27675W        W47955  18.571   2.728  14.141 -0.1452 -0.3284  0.1718
27676W        W47956   3.733  15.916   0.635  0.3219 -0.0862 -0.0679
27677W        W47957   4.015   2.159   0.840 -0.1626 -0.0804 -0.2976
27678W        W47958  10.906   7.235  15.084 -0.1238  0.0564  0.0025
27679W        W47959   0.827   4.725  11.310  0.1610  0.2660 -0.2471
27680W        W47960   0.383  15.628   1.698 -0.2198 -0.0285  0.0544
27681W        W47961  13.838   2.417  13.548  0.1837 -0.0988 -0.2409
27682W        W47962   0.079  10.374  11.936  0.1089 -0.0727 -0.0480
27683W        W47963  17.625   2.137   1.865 -0.1625  0.3207 -0.0802
27684W        W47964   0.548   3.196  12.538  0.0619  0.0630  0.1810
27685W        W47965   1.598  10.852   1.526 -0.2472 -0.1260 -0.0892
27686W        W47966   4.909   4.131  12.828  0.0059  0.0722 -0.0750
27687W        W47967   0.032  13.517   2.334 -0.1652 -0.0014  0.0419
27688W        W47968  14.012  12.422  12.831 -0.1656 -0.0491 -0.1488
27689W        W47969   4.645   0.005   0.315  0.1261  0.0834  0.0555
27690W        W47970   8.489  16.638   1.205  0.2573  0.3863  0.5157
27691W        W47971  16.875   6.691  12.633  0.1155  0.3729  0.1211
27692W        W47972  17.512   8.665   0.523 -0.0766  0.0079  0.0332
27693W        W47973  10.749  12.795  12.309 -0.1595  0.0956  0.0041
27694W        W47974   6.904   5.733  14.423  0.0739 -0.2960 -0.0175
27695W        W47975   5.512   1.775   0.166 -0.1748 -0.1368  0.0854
27696W        W47976   7.202   2.073  11.906  0.1883 -0.0808  0.1986
27697W        W47977  14.864  14.001   2.328  0.1133  0.0024  0.0637
27698W        W47978  15.553   5.571   1.286 -0.3433 -0.1024  0.1216
27699W        W47979   1.299  10.006  10.525 -0.0271 -0.0574  0.1454
27700W        W47980   1.526  18.545  14.411 -0.3076  0.0903 -0.1206
27701W        W47981  12.405   9.860  11.681 -0.2642 -0.3336 -0.2947
27702W        W47982  11.384  11.834   1.384 -0.1356  0.2694  0.1487
27703W        W47983   6.308  11.829   4.033 -0.1609 -0.0480 -0.0336
27704W        W47984  14.296   2.103   2.123 -0.4031 -0.0944 -0.1451
27705W        W47985   2.914  17.790  12.068  0.2711 -0.1403 -0.4294
27706W        W47986   9.071  15.611  12.208  0.1634 -0.0662 -0.1240
27707W        W47987  13.691   0.167  13.073 -0.1873 -0.1247  0.1134
27708W        W47988   3.410  10.088  13.104 -0.1634 -0.2199  0.4780
27709W        W47989   9.112   3.155  12.863  0.1021  0.1266 -0.0051
27710W        W47990   5.683   2.686  11.341  0.1588 -0.1726 -0.3089
27711W        W47991   0.821  11.965  14.564  0.1123  0.1194 -0.0484
27712W        W47992  16.205  11.652  13.324  0.3496  0.0337 -0.0522
27713W        W47993  14.005   4.092   3.258  0.2278  0.1694  0.0201
27714W        W47994  13.302   4.386  13.403 -0.0284 -0.1266  0.2231
27715W        W47995  17.318  14.132   3.509  0.2435  0.0072  0.2500
27716W        W47996   0.200   8.816  13.574 -0.0865  0.1256 -0.0482
27717W        W47997  18.075  14.282   1.356  0.1960 -0.1556  0.3117
27718W        W47998  10.460  13.467  15.233  0.2936  0.0699  0.1586
27719W        W47999   3.901   3.055  12.584  0.3098  0.0408 -0.1525
27720W        W48000   3.056  14.455  11.221  0.0675  0.1117  0.3396
27721W        W48001   2.653  14.531   3.887 -0.0630  0.1114  0.1236
27722W        W48002  13.743  12.680  13.766  0.3719 -0.1349 -0.0195
27723W        W48003  13.175  12.850  14.457  0.1022 -0.2736 -0.1466
27724W        W48004   7.206   4.140   2.779  0.0396  0.1734  0.0567
27725W        W48005  14.723   6.896  14.986  0.4535 -0.3104  0.3879
27726W        W48006   0.042   8.132   3.204 -0.2496 -0.0855 -0.0624
27727W        W48007  10.514  15.312  10.757  0.4170 -0.1011  0.1059
27728W        W48008   9.533  16.667  11.471  0.1124 -0.0098 -0.0545
27729W        W48009  13.167   7.177   1.193 -0.0350  0.0536  0.1592
27730W        W48010  16.887  16.182   0.932  0.3690  0.2376  0.1470
27731W        W48011   2.675  12.459  14.216 -0.0328 -0.4615  0.1024
27732W        W48012   7.978  12.169  12.889  0.0145  0.3034 -0.0387
27733W        W48013  12.849  18.611  15.309  0.1404 -0.0127  0.3052
27734W        W48014   5.914   7.642   3.545 -0.1112  0.1644  0.0833
27735W        W48015  13.653  17.763   4.787 -0.2348  0.4149 -0.1966
27736W        W48016  17.980   5.646   4.604 -0.3050 -0.1795 -0.0282
27737W        W48017  11.189   0.600  14.212 -0.0277  0.1728  0.1017
27738W        W48018   6.593   2.435   3.135  0.0898 -0.1035  0.3890
27739W        W48019   0.467   6.505   4.066 -0.0246 -0.1192  0.0014
27740W        W48020  15.085  17.195  11.683 -0.0004  0.0570  0.0713
27741W        W48021  16.573   4.512  15.198  0.2397 -0.0998  0.0544
27742W        W48022  12.377   1.436  13.619  0.0598 -0.0736 -0.0816
27743W        W48023  18.425  10.414   2.208  0.3507 -0.1346 -0.2145
27744W        W48024  17.416   9.858   3.844 -0.1616 -0.1192 -0.3461
27745W        W48025   7.514   4.600   3.713 -0.0663 -0.2029  0.0984
27746W        W48026  13.471   0.691   1.749 -0.2493 -0.2192  0.2401
27747W        W48027  16.139  14.422  13.027 -0.2228 -0.0763  0.0414
27748W        W48028   6.147  14.579  12.050  0.0773  0.1767 -0.2339
27749W        W48029  11.114   8.010   2.570  0.2082 -0.1199 -0.1637
27750W        W48030  16.545  10.239   2.369 -0.0255  0.4379 -0.0314
27751W        W48031  11.258   3.090   1.410  0.2586  0.0360  0.0440
27752W        W48032  16.582   8.352   4.809 -0.2313 -0.2912 -0.0578
27753W        W48033   3.209   2.490   2.209 -0.1908  0.0452 -0.2433
27754W        W48034   1.657  16.583   4.232 -0.0344  0.0208  0.0044
27755W        W48035  12.901  16.491   4.343  0.1972  0.0204  0.0305
27756W        W48036  14.059   0.680   1.906 -0.3639  0.0801  0.1287
27757W        W48037   4.880  12.428  11.921 -0.0412 -0.5327  0.2255
27758W        W48038  11.329   8.522   5.759 -0.1723  0.0214 -0.1715
27759W        W48039  17.459  18.686  14.237 -0.3446  0.0778 -0.2885
27760W        W48040   8.082   9.893   2.190  0.0177 -0.1607 -0.0681
27761W        W48041   0.402  12.315   4.549 -0.0858  0.3466  0.3386
27762W        W48042   2.109   0.889  13.097  0.2245 -0.1535 -0.0720
27763W        W48043  16.185   1.133   3.624  0.0387  0.0645 -0.1305
27764W        W48044   0.866  18.740  10.898 -0.0770 -0.1922  0.0820
27765W        W48045  11.689  18.018  12.492 -0.4248 -0.0542 -0.2655
27766W        W48046  16.308   2.874  12.981  0.0228  0.0413 -0.3015
27767W        W48047  12.628  15.336   0.335  0.3969 -0.2506 -0.1039
27768W        W48048   3.812   6.768   0.233  0.0842 -0.1276  0.3379
27769W        W48049  12.266  12.042  13.478 -0.0368 -0.3069  0.1668
27770W        W48050  10.916   4.045  13.253  0.1574 -0.1119 -0.1262
27771W        W48051   5.406   5.498   3.386  0.0228 -0.1090  0.1361
27772W        W48052   7.797  15.641  10.719  0.0514  0.1443 -0.0134
27773W        W48053   0.929   1.770  13.117  0.1456  0.2437 -0.0430
27774W        W48054  18.077   1.504  12.382 -0.0061  0.1203 -0.0513
27775W        W48055  16.596   9.451   1.807  0.0070 -0.1299  0.0673
27776W        W48056   8.768   4.792  13.973 -0.0483 -0.1212  0.2168
27777W        W48057  11.304   1.677   0.163  0.0173 -0.0365  0.2851
27778W        W48058   0.965  16.648  14.352 -0.2133 -0.3488  0.2050
27779W        W48059   6.910  10.190  15.054 -0.0600  0.0059  0.0380
27780W        W48060  15.575  16.257   1.491 -0.1287 -0.0073  0.1552
27781W        W48061  11.824  10.285   1.980 -0.0561  0.0801 -0.3610
27782W        W48062   0.783   0.603   2.449 -0.0882 -0.0434  0.1435
27783W        W48063   3.023  14.868  14.259  0.0506  0.2059 -0.2550
27784W        W48064   3.708   7.885  12.810 -0.0804  0.0225 -0.1243
27785W        W48065   9.781   8.278   3.925  0.0936  0.0846  0.0106
27786W        W48066   9.833  11.855   2.773  0.0782 -0.1314  0.4541
27787W        W48067   3.896  14.445  12.856 -0.0471 -0.2641  0.2423
27788W        W48068   5.226  12.537   0.846 -0.1745 -0.0067  0.2405
27789W        W48069   3.075  13.139   0.968 -0.0266 -0.0986  0.1317
27790W        W48070   8.767   3.243  13.329  0.1620 -0.2371  0.2227
27791W        W48071   0.414   6.105  11.603  0.0007  0.0389  0.1412
27792W        W48072  14.592   8.210  15.073  0.1443  0.0401 -0.0382
27793W        W48073   7.434  11.714   1.185 -0.0460 -0.3176  0.2229
27794W        W48074   8.817  15.320  13.442 -0.2774  0.3626  0.2144
27795W        W48075  11.159   8.488   3.794 -0.0603  0.1189 -0.0051
27796W        W48076  17.274  18.573   2.007 -0.0497 -0.1847  0.0236
27797W        W48077  18.036  10.407  15.190 -0.2550  0.2420 -0.1010
27798W        W48078   6.582  10.750   4.487  0.0713 -0.0241 -0.1449
27799W        W48079   5.450  10.306   4.294  0.0095 -0.2824  0.0066
27800W        W48080   5.142   9.206  13.428 -0.0579 -0.1282  0.0814
27801W        W48081   4.655  14.940  14.990 -0.2116  0.1952 -0.0115
27802W        W48082   5.865  10.070   4.175  0.0089  0.2191 -0.0931
27803W        W48083  13.468   0.204  14.152  0.0006 -0.2663  0.3342
27804W        W48084   9.499   1.250   2.972  0.1825 -0.0120  0.1833
27805W        W48085  17.271   4.368  11.665  0.0350  0.0503 -0.0085
27806W        W48086  16.180   1.589  14.486 -0.0586  0.0005  0.1832
27807W        W48087   4.935   5.953   0.742 -0.0228 -0.1240 -0.1128
27808W        W48088   5.933   8.592   1.608  0.1158  0.2262 -0.1221
27809W        W48089   1.358  16.240   2.282  0.2352  0.0244 -0.0600
27810W        W48090   3.322   2.641   3.848  0.0164  0.0822  0.1075
27811W        W48091  11.424  17.076  11.312  0.0255 -0.3770 -0.0346
27812W        W48092  18.325   0.141  15.389 -0.4262  0.1696  0.2278
27813W        W48093   8.811   7.851   2.868  0.1337 -0.0005 -0.0878
27814W        W48094   9.385   0.804  13.588 -0.1735 -0.0192 -0.2903
27815W        W48095   8.182   2.854   1.839  0.0129  0.1094 -0.0552
27816W        W48096   6.453   6.987   1.634  0.0019 -0.1107  0.0871
27817W        W48097   0.276   9.993  10.576 -0.1077  0.0236 -0.0342
27818W        W48098   0.661  17.931  14.443  0.2969 -0.2843  0.0370
27819W        W48099  15.192   3.674   3.973 -0.2930 -0.1591  0.3366
27820W        W48100   5.419  17.037   2.558  0.1881 -0.0123 -0.0750
27821W        W48101  18.585   7.378   1.706 -0.0248 -0.0520  0.0692
27822W        W48102   7.609   0.603  13.126 -0.0513  0.3179  0.2221
27823W        W48103   6.685   9.650  12.058  0.0621 -0.1027  0.1482
27824W        W48104   2.520   8.147   0.007  0.1460  0.0822  0.0775
27825W        W48105   3.630  11.081  11.217  0.1678  0.0050  0.3200
27826W        W48106  13.051   3.499  13.681  0.1091  0.0514 -0.0989
27827W        W48107  13.154   9.434  15.112  0.0262  0.2529  0.0578
27828W        W48108  13.705  18.337  13.077 -0.1435  0.0409  0.1648
27829W        W48109   6.319   1.855   1.974 -0.0375  0.0696  0.0951
27830W        W48110   7.746  13.980   3.362 -0.1435 -0.1204 -0.1302
27831W        W48111   4.968   3.541  13.428 -0.1078  0.1227 -0.1040
27832W        W48112  12.354   4.279   2.910 -0.1060  0.0647 -0.1757
27833W        W48113  11.721   6.018   0.532  0.0715  0.1601 -0.0983
27834W        W48114  17.258  11.165   3.757 -0.3738 -0.1287  0.0297
27835W        W48115   9.629   9.747   2.301 -0.0652 -0.0080  0.3805
27836W        W48116   0.707  17.459  14.640 -0.1394  0.0606  0.0330
27837W        W48117  13.460  16.961   1.160 -0.1635  0.1503  0.0015
27838W        W48118   5.516  15.582   0.038  0.5852  0.2235 -0.0491
27839W        W48119   4.405   4.035  14.190  0.2076 -0.0186 -0.0823
27840W        W48120  12.801   5.887  12.882 -0.1265 -0.0078 -0.0564
27841W        W48121  15.746   7.016  13.712 -0.1635 -0.0963  0.1423
27842W        W48122  14.322   4.448   0.024  0.1692 -0.0575  0.0593
27843W        W48123  17.790   3.930  14.910 -0.0155 -0.0300 -0.1357
27844W        W48124   4.870  14.531  11.162  0.0165  0.0916 -0.2091
27845W        W48125   1.032  17.773   1.134  0.2378  0.0973  0.1481
27846W        W48126   3.517   0.985   2.990  0.0076  0.0919  0.1228
27847W        W48127   1.265  16.910   1.630  0.0322  0.0326  0.3209
27848W        W48128   1.619  16.560   2.980 -0.0899 -0.2802  0.1231
27849W        W48129  15.306   2.857   2.000 -0.1318  0.0698 -0.5276
27850W        W48130   2.337  18.639  11.746 -0.1933 -0.1463  0.0718
27851W        W48131  10.364   0.033  12.924  0.2086 -0.0191 -0.0219
27852W        W48132  12.668  16.828   3.428  0.0097 -0.0958  0.1310
27853W        W48133   6.374   4.257  11.670  0.0595 -0.0171 -0.0115
27854W        W48134   7.886   0.280   1.875 -0.0341 -0.1035  0.2173
27855W        W48135  18.257  11.358  14.729  0.0554  0.0979 -0.1937
27856W        W48136  10.159  13.531  14.767  0.1821  0.0656  0.0493
27857W        W48137   0.680   6.413  15.190 -0.0547  0.0030 -0.2005
27858W        W48138  13.017  15.832  14.520  0.1240 -0.1866 -0.0511
27859W        W48139   3.375  14.056  11.226 -0.1593  0.2073  0.5271
27860W        W48140   6.090  15.413   0.736  0.0146 -0.1012  0.1477
27861W        W48141  18.104  13.188   3.452 -0.2217  0.1578  0.1282
27862W        W48142   7.085   2.706  12.770  0.1097 -0.2356  0.0108
27863W        W48143  11.897   6.459   0.709  0.0745 -0.0809  0.0383
27864W        W48144  11.620  10.377   1.556  0.1993 -0.0477 -0.0750
27865W        W48145  11.207  14.301  15.323 -0.2239 -0.1414  0.0415
27866W        W48146   2.772   6.578   1.055 -0.0274  0.2920  0.2670
27867W        W48147  15.597   6.435   3.161 -0.0960  0.1488 -0.0976
27868W        W48148   8.006  18.296   0.910  0.2791 -0.2551  0.1795
27869W        W48149  18.738  10.734  15.135 -0.0120 -0.2637 -0.0665
27870W        W48150  10.360   5.634  15.317  0.4768 -0.0674 -0.0097
27871W        W48151   4.894   6.397  14.956 -0.4161 -0.2410 -0.0274
27872W        W48152  15.541   3.027   2.594 -0.1723  0.0852  0.1079
27873W        W48153   7.525  15.149   2.486 -0.0384 -0.4699  0.5017
27874W        W48154  10.737  15.976   1.413 -0.3951  0.2542 -0.5205
27875W        W48155   0.364  15.118   3.634 -0.3352  0.2374 -0.1359
27876W        W48156   7.044   7.154  13.385 -0.0963  0.0012 -0.3081
27877W        W48157  15.976   3.538   2.280  0.1830 -0.1900  0.0920
27878W        W48158  16.745   8.123  11.978  0.1044  0.0636 -0.2833
27879W        W48159   9.808   0.825   4.169 -0.1458 -0.2503  0.0478
27880W        W48160  13.112  14.829   2.873  0.1171 -0.2994 -0.2939
27881W        W48161  10.382   5.696   1.759  0.1353  0.1463 -0.0421
27882W        W48162  15.145   2.087   0.745 -0.0298  0.2607 -0.2908
27883W        W48163  17.334   6.015   0.135  0.0155  0.0405  0.0727
27884W        W48164  13.923  14.567   0.400 -0.0144  0.1550 -0.2607
27885W        W48165  14.642  12.438   3.622 -0.2915 -0.0533  0.1007
27886W        W48166   8.628   1.931  14.032 -0.3024 -0.2249 -0.0663
27887W        W48167  10.517  16.931   0.906  0.3017 -0.2049  0.1262
27888W        W48168  18.625   9.188  11.287  0.0934  0.4448  0.2203
27889W        W48169   7.308   5.268  13.576  0.1007 -0.0811  0.2019
27890W        W48170  11.674   7.576   1.868  0.1529 -0.0548  0.0298
27891W        W48171   9.757   4.041   2.548  0.2823 -0.0312  0.2277
27892W        W48172  11.261  17.024  15.289 -0.1541 -0.0717  0.0178
27893W        W48173   5.899  18.086  13.315  0.0824 -0.1295 -0.0597
27894W        W48174  15.902  16.882  15.057 -0.0968 -0.1181  0.1544
27895W        W48175  12.436  11.174   0.761 -0.1180 -0.0961 -0.0428
27896W        W48176   0.780  18.456  12.766  0.1493 -0.0801  0.0898
27897W        W48177  11.665  10.351  12.140 -0.0133  0.0372 -0.0637
27898W        W48178  16.812  10.849   2.071 -0.1620  0.0329 -0.1881
27899W        W48179  17.924   6.326  13.420 -0.0568  0.3693  0.1363
27900W        W48180  14.993  10.762  12.783  0.1575  0.1751  0.0785
27901W        W48181  10.854  11.655  15.323 -0.0872 -0.2769  0.1484
27902W        W48182  11.000   3.361  15.008 -0.0914  0.0075  0.1719
27903W        W48183  12.113  17.293   0.761 -0.1378 -0.1454 -0.1283
27904W        W48184  15.473   4.418  13.258 -0.3306  0.0619  0.1442
27905W        W48185  12.017   4.187  13.177  0.2960  0.1304 -0.1611
27906W        W48186   7.989  17.302   0.557 -0.1091  0.1095  0.2723
27907W        W48187   1.031  10.075   0.640  0.1882  0.2604 -0.2141
27908W        W48188   5.382   8.082   0.496 -0.2911  0.1263 -0.0292
27909W        W48189   7.587   3.219   3.001  0.1520 -0.1999 -0.0416
27910W        W48190   9.014  18.608  13.228 -0.1524 -0.0109  0.0436
27911W        W48191   8.743  13.732   1.781  0.2096  0.0769 -0.2205
27912W        W48192  14.983  17.597   4.435 -0.1180 -0.3334 -0.1334
27913W        W48193   3.364   6.546   0.288 -0.1314  0.2452  0.0127
27914W        W48194   9.454   9.276  11.019 -0.2219 -0.0584  0.0308
27915W        W48195   5.372  18.361   1.468 -0.2318 -0.0879 -0.2323
27916W        W48196   7.848   3.345  12.698  0.2571  0.2013  0.0381
27917W        W48197  18.356   2.402  14.448 -0.0257 -0.0840 -0.2017
27918W        W48198   2.562   5.263   1.354 -0.0483  0.1334 -0.0176
27919W        W48199   9.307   3.987   4.220 -0.1156  0.0128  0.0323
27920W        W48200   2.745  16.161  12.756  0.1984  0.3402  0.1114
27921W        W48201  17.821   2.478   4.244 -0.2960 -0.0813 -0.3351
27922W        W48202  17.376   3.619  14.651 -0.2512 -0.0784 -0.0321
27923W        W48203   3.988  18.694  11.115  0.1441 -0.1343  0.1027
27924W        W48204  12.673   7.178  11.847  0.3048  0.1269  0.0970
27925W        W48205  10.894   9.113  11.894 -0.2166  0.3062  0.0738
27926W        W48206  10.083  15.921  12.941  0.1889  0.2329 -0.0867
27927W        W48207   5.485  15.743   0.509 -0.0709 -0.0316  0.1159
27928W        W48208   4.139  14.868  12.678  0.2594 -0.1272 -0.1092
27929W        W48209  17.773   1.537  13.042 -0.1585 -0.0380  0.1577
27930W        W48210  12.961   4.192   2.079 -0.0567 -0.0006 -0.0670
27931W        W48211  10.046  11.421  11.903  0.0863  0.2334  0.0584
27932W        W48212  10.370   8.094   4.644 -0.3995 -0.1127  0.2447
27933W        W48213   2.290   3.639   2.397  0.2371  0.2352  0.1622
27934W        W48214   6.610   1.636   0.003 -0.1847 -0.3503  0.1743
27935W        W48215  13.445  13.463   3.308  0.2085 -0.0587  0.3195
27936W        W48216   8.893   8.390  14.574  0.1161 -0.0738 -0.2455
27937W        W48217   9.444   4.885  11.665 -0.2408  0.0750 -0.0838
27938W        W48218  11.778   4.022  14.848  0.0789 -0.2265 -0.2126
27939W        W48219  15.301   6.453   3.990  0.0239 -0.2510  0.0412
27940W        W48220  16.419   5.352  13.290 -0.3346 -0.1419  0.0780
27941W        W48221  17.140  10.588  14.983 -0.0816  0.1380  0.0171
27942W        W48222  14.826  15.323  11.716 -0.0825 -0.1175 -0.0629
27943W        W48223  16.510   5.882   1.946 -0.3665  0.0918  0.0823
27944W        W48224  14.100  18.009   4.725 -0.0206  0.0980  0.1175
27945W        W48225  18.236  18.262  13.560 -0.0377  0.0058 -0.0120
27946W        W48226   7.879  10.877   3.040 -0.1295 -0.0653  0.1853
27947W        W48227   4.817   7.875  13.558  0.2826  0.0779  0.2929
27948W        W48228   6.167   7.971  14.653 -0.0385 -0.1899  0.0197
27949W        W48229   1.843   2.996   5.089 -0.1106  0.0175  0.0901
27950W        W48230   7.360   9.767  10.769 -0.2597  0.0943  0.1601
27951W        W48231   8.303  14.788   4.190 -0.0472  0.0069 -0.0948
27952W        W48232   3.805   2.626   3.669  0.1354  0.0387  0.3424
27953W        W48233  10.645   0.344   1.843  0.0120  0.2801 -0.0518
27954W        W48234   0.884   7.087  10.880 -0.1901  0.2253  0.2195
27955W        W48235  10.128  12.370  11.009  0.1529 -0.0885 -0.0271
27956W        W48236   7.455   8.605  13.989  0.0849 -0.0152  0.0387
27957W        W48237   9.381  13.808   0.426 -0.0998 -0.0054 -0.1377
27958W        W48238   9.450   6.333  15.337  0.3009 -0.0162  0.0020
27959W        W48239   2.303  11.165  13.247 -0.0455 -0.0399  0.0992
27960W        W48240  17.005  15.463  14.883 -0.2814 -0.1457 -0.0040
27961W        W48241   8.342   5.017  13.986  0.0822  0.0758 -0.2493
27962W        W48242   4.401   0.131   1.887 -0.0656  0.0149 -0.0832
27963W        W48243   0.271   2.509   3.983  0.0005  0.1462  0.0302
27964W        W48244   2.395  16.495   1.014  0.1462  0.1004  0.1989
27965W        W48245   0.035   5.173  12.760 -0.0023 -0.0018  0.2208
27966W        W48246  16.036   7.466  13.290  0.0309 -0.0288 -0.0735
27967W        W48247   0.122   1.050   3.312 -0.1079  0.0124  0.0857
27968W        W48248  11.774   5.267   2.880 -0.1085 -0.1065  0.0625
27969W        W48249  13.634  11.181  14.337  0.3024  0.0794  0.0576
27970W        W48250   8.779  11.142   3.847  0.3068 -0.3337  0.1157
27971W        W48251   2.330   5.375   2.272 -0.2182  0.0432 -0.3067
27972W        W48252   4.628   1.080   1.115  0.0569  0.2032  0.1389
27973W        W48253  15.616  11.201  12.568  0.2317 -0.0322 -0.0766
27974W        W48254   6.626   8.605  14.489 -0.1709  0.0259 -0.1862
27975W        W48255  16.793   9.706   0.760 -0.1886  0.0938  0.2306
27976W        W48256   5.094   4.286   2.116  0.2091  0.2349  0.0048
27977W        W48257  11.770   1.967   2.454  0.0640  0.0385 -0.1694
27978W        W48258  14.962   3.797   1.414 -0.1388 -0.0239 -0.0477
27979W        W48259  11.512  17.068  12.196 -0.3833 -0.0481 -0.2680
27980W        W48260  11.429   0.565  14.615 -0.0999 -0.1359  0.3047
27981W        W48261  13.487   7.206   3.135  0.1352  0.1047  0.1425
27982W        W48262   7.930  16.152  10.712  0.1652  0.0525 -0.0675
27983W        W48263   2.708   9.320   0.956 -0.1698  0.0352 -0.2303
27984W        W48264  17.034  17.756  12.243  0.0185 -0.0148  0.2691
27985W        W48265   8.390  18.549   0.507  0.0438 -0.2712  0.3365
27986W        W48266  16.846   3.636  13.965 -0.1838 -0.1714 -0.3116
27987W        W48267  14.316  16.250   1.642  0.1570  0.1634  0.1200
27988W        W48268   0.117   6.195  12.914 -0.0835 -0.1296  0.1014
27989W        W48269   5.915   1.095   1.566  0.0129  0.0182  0.3579
27990W        W48270   8.699   7.254   2.206  0.0613  0.0887  0.0794
27991W        W48271   3.262  11.829  14.650  0.0480 -0.1336  0.0001
27992W        W48272  10.235  16.535  12.214 -0.1256 -0.2000  0.2782
27993W        W48273   9.678   7.328   3.851 -0.0196  0.0762 -0.1788
27994W        W48274   7.012  16.970   0.190 -0.2758 -0.0731  0.1545
27995W        W48275  14.234   1.951   2.589 -0.1240  0.0086 -0.2426
27996W        W48276   3.949   6.957  11.256 -0.0091 -0.1112 -0.2610
27997W        W48277   2.773   7.137  13.907  0.1300 -0.0220  0.0104
27998W        W48278  14.614  18.040  14.063  0.0277  0.2635  0.1070
27999W        W48279   1.251   8.924   0.248  0.1800  0.1422 -0.5950
28000W        W48280   4.012   4.595   3.226  0.0413 -0.1145  0.0791
28001W        W48281  15.593   0.400   4.026  0.2730  0.0295  0.0661
28002W        W48282   3.311  16.832  11.812  0.3383  0.4767 -0.3590
28003W        W48283  15.410  11.036  13.035  0.0410 -0.3459 -0.2439
28004W        W48284   6.729  11.498   3.979 -0.0179 -0.1966 -0.1729
28005W        W48285  18.153   1.885  14.215 -0.4060  0.0992 -0.3262
28006W        W48286   5.099   8.107  11.693  0.3119 -0.0508 -0.2480
28007W        W48287  16.982  18.133  13.210 -0.0251  0.2649 -0.2192
28008W        W48288   6.029   1.209  12.270 -0.1292  0.1616  0.0317
28009W        W48289   1.423   5.668   0.247 -0.1755  0.1971  0.2258
28010W        W48290   6.950   2.610   3.990  0.3123 -0.1773  0.0257
28011W        W48291  15.366   6.540   2.617 -0.0056  0.4145 -0.4001
28012W        W48292   2.575   0.108   3.231  0.0661 -0.2977  0.0955
28013W        W48293  15.939   7.405   2.613 -0.3529  0.4029  0.0588
28014W        W48294  15.393  14.759   1.620 -0.2324  0.2821  0.3709
28015W        W48295   6.111   1.472   0.707  0.1799  0.1220 -0.0578
28016W        W48296  18.439  14.193   0.564 -0.1462  0.2415  0.0585
28017W        W48297   1.658  18.008   3.269 -0.6038  0.3658 -0.2187
28018W        W48298   6.940  17.764   3.063  0.0674 -0.1757  0.0468
28019W        W48299   6.462  17.843  10.830  0.1287 -0.1647  0.0770
28020W        W48300  12.053  11.447   3.148  0.0767  0.0680 -0.0746
28021W        W48301   5.806   1.371  14.883 -0.1077  0.0641 -0.1169
28022W        W48302   2.593   7.104  12.713 -0.0805  0.1952 -0.3749
28023W        W48303  17.307   7.654  14.803 -0.1009 -0.0438  0.3925
28024W        W48304  10.345  13.423  14.285 -0.3009 -0.3417 -0.2783
28025W        W48305  11.946   7.500  12.012 -0.3568  0.0231  0.1781
28026W        W48306   2.793   3.844   2.162 -0.1888 -0.2773 -0.0301
28027W        W48307   7.694  10.184  14.748  0.1471  0.2887  0.1847
28028W        W48308   0.308  18.188   2.855  0.3747 -0.0082  0.1682
28029W        W48309   7.481   0.205   2.618 -0.1207 -0.0739  0.3038
28030W        W48310  14.451   8.148  12.976 -0.1273 -0.2771 -0.4214
28031W        W48311   5.156   7.678   2.499  0.4290 -0.1074 -0.1933
28032W        W48312   7.087   1.505   0.282  0.0286 -0.2647 -0.0847
28033W        W48313   9.864   5.380   0.033 -0.1888 -0.0763  0.2997
28034W        W48314  14.578   4.363  14.026 -0.3904  0.4206 -0.2242
28035W        W48315   4.025  16.536  11.526 -0.0562 -0.2575  0.1113
28036W        W48316  10.213  14.808   3.052  0.0127 -0.0529  0.0679
28037W        W48317   9.858   3.242  11.735 -0.1134 -0.1055 -0.1786
28038W        W48318  11.701  12.457   3.846  0.2290 -0.1663 -0.2040
28039W        W48319  11.778  14.115   1.765  0.1858 -0.1351  0.0865
28040W        W48320  13.528   8.033   4.844 -0.4138  0.0253  0.3849
28041W        W48321   0.210   4.031   4.587 -0.0443  0.0983 -0.0311
28042W        W48322   0.269  17.508  13.745  0.1251 -0.3231  0.1317
28043W        W48323   9.363   7.707   0.033  0.1783 -0.0633 -0.1541
28044ION     NA48324  11.804   7.734   5.307 -0.0971 -0.1368  0.1951
28045ION     NA48325   5.838   7.175   5.158 -0.2216 -0.2586 -0.0891
28046ION     NA48326   2.945   3.873  10.182  0.3043  0.2123 -0.1500
28047ION     NA48327  14.692  17.952  12.648 -0.0745  0.0644  0.0371
28048ION     NA48328  13.274   4.462  10.709 -0.1270 -0.0481 -0.0281
28049ION     NA48329   6.077   4.725   4.754 -0.3631  0.1113  0.0852
28050ION     NA48330   5.978   8.725  10.258  0.1059  0.1040  0.0517
28051ION     NA48331   5.352   7.198   2.722 -0.0977 -0.2553  0.0460
28052ION     NA48332   2.338  12.364   5.116  0.0111 -0.2626  0.0698
28053ION     NA48333  16.672  15.857  14.549  0.2616 -0.1045 -0.2782
28054ION     NA48334  10.330  18.428   0.040  0.2628 -0.2766  0.0568
28055ION     NA48335  14.974  11.514  10.550 -0.0561  0.1681 -0.0686
28056ION     NA48336  16.523   5.551  10.735  0.1127 -0.0114 -0.2759
28057ION     NA48337  18.218  10.728  10.777  0.1943 -0.0115  0.0343
28058ION     NA48338   0.001  11.248  11.474 -0.0300 -0.2520 -0.1194
28059ION     NA48339   8.848   9.356  12.739 -0.2172  0.2362 -0.0264
28060ION     NA48340   6.868  16.367  14.821  0.2058  0.1489 -0.0048
28061ION     NA48341  16.576  17.409   2.893  0.1590 -0.2571 -0.0684
28062ION     NA48342   6.030   1.679  10.433  0.1003  0.0449 -0.2061
28063ION     NA48343   9.051  13.158   3.348  0.1937 -0.0163  0.0444
28064ION     NA48344  12.890   5.456   5.193  0.3897 -0.2076  0.2705
28065ION     NA48345   2.891   3.989  14.206  0.1366 -0.0730  0.0643
28066ION     NA48346   8.931  14.791  14.580 -0.1029 -0.0405 -0.2446
28067ION     NA48347   6.630   1.493  14.131  0.0876 -0.0678 -0.2303
28068ION     NA48348   2.486  15.597  15.249  0.1448 -0.0698 -0.0543
28069ION     NA48349  17.672   8.171   5.659  0.1670  0.1269  0.5325
28070ION     NA48350   1.171  10.872  10.501 -0.1132 -0.3814 -0.0069
28071ION     NA48351   1.752  13.628  10.276 -0.0138 -0.0795 -0.0400
28072ION     NA48352   3.061   4.739  11.490 -0.1068  0.1698 -0.0531
28073ION     NA48353   3.148   4.669  10.148  0.0951  0.2137  0.3684
28074ION     NA48354   6.388   7.483   3.374  0.0789 -0.1334 -0.1363
28075ION     NA48355   6.620   5.552   4.896  0.1683  0.1715  0.0092
28076ION     NA48356  14.997   9.717  11.639 -0.0036  0.0040  0.0773
28077ION     NA48357   1.411   0.585  13.960 -0.2267  0.0492 -0.0412
28078ION     NA48358   2.808   5.405   4.895  0.0426  0.0564  0.0820
28079ION     NA48359  10.104  17.678   2.410  0.0593 -0.0793  0.3016
28080ION     NA48360  12.537   7.374   5.653 -0.0455 -0.0515 -0.0845
28081ION     NA48361   1.350  15.637  14.382 -0.1147  0.1490  0.1170
28082ION     NA48362   0.944   4.342  10.479 -0.1290  0.0835  0.0486
28083ION     NA48363   6.300  13.168  10.439  0.0967 -0.0539 -0.1876
28084ION     NA48364  15.836  12.355   0.251  0.1430  0.1192 -0.1009
28085ION     NA48365  17.210   3.347   3.345  0.0182  0.0708 -0.1465
28086ION     NA48366   3.524  13.754  10.257 -0.0101 -0.0498 -0.0925
28087ION     NA48367  13.111  17.024   3.589 -0.1938 -0.0933 -0.1195
28088ION     NA48368  15.092   2.361  13.931  0.1905 -0.0943  0.1072
28089ION     NA48369   7.548   8.596   5.718  0.1432 -0.3319  0.0907
28090ION     NA48370   1.666  12.721  10.359 -0.3418 -0.0349 -0.3164
28091ION     NA48371   1.410  18.240  13.952  0.2189  0.3418  0.2281
28092ION     NA48372   9.434   9.058  10.565  0.0971  0.1554  0.2013
28093ION     NA48373   1.965   9.254  13.499  0.3943  0.0716  0.0940
28094ION     NA48374   6.910  10.020   5.538 -0.0155 -0.1482  0.1165
28095ION     NA48375   9.670  15.937  15.361 -0.1143  0.2019 -0.0267
28096ION     NA48376   2.083  13.735   4.968  0.1008  0.0054 -0.0478
28097ION     NA48377  17.482  12.992   5.323  0.0250  0.0663 -0.2755
28098ION     NA48378  15.969   9.244   5.149  0.1706  0.1693 -0.1184
28099ION     NA48379   8.137   1.555   9.999 -0.0746 -0.0130 -0.0892
28100ION     NA48380   5.019   3.679  12.118 -0.1230  0.0420 -0.0790
28101ION     NA48381  15.422   9.794  14.174 -0.1271 -0.0864  0.3414
28102ION     NA48382  11.587   5.396  14.582 -0.0762  0.0600 -0.1713
28103ION     NA48383  14.924  11.715  11.364 -0.2604  0.2132  0.0947
28104ION     NA48384   2.919   6.217  12.980  0.0994  0.0467  0.1618
28105ION     NA48385  13.935  14.452  14.269 -0.1747 -0.1563 -0.0941
28106ION     NA48386   4.702   2.522   4.863 -0.2786  0.1675 -0.0699
28107ION     NA48387  18.097   7.842  12.980  0.0145  0.0548 -0.1026
28108ION     NA48388  17.101   3.767  13.525 -0.0595 -0.1050  0.1351
28109ION     NA48389   6.888  11.747  10.483  0.2256  0.3268  0.1888
28110ION     NA48390  11.242   9.282  10.904 -0.0512 -0.1465 -0.0573
28111ION     NA48391  15.833   1.090  13.609  0.1198  0.1363 -0.1945
28112ION     NA48392  17.358  18.215  11.165 -0.1765  0.0050 -0.1616
28113ION     NA48393   0.005   1.978  12.449  0.0983 -0.3153 -0.2022
28114ION     NA48394  14.645   1.775  12.715 -0.3056 -0.3542 -0.2151
28115ION     NA48395   8.409   8.153  10.597 -0.0871  0.0370  0.0958
28116ION     NA48396  15.592  10.025   5.165 -0.0476  0.2135  0.1314
28117ION     NA48397  16.762   0.126   5.283  0.3644 -0.1153  0.2863
28118ION     NA48398   7.378   2.520   1.231  0.0719 -0.1567 -0.4118
28119ION     NA48399   1.496   1.463   1.010  0.0262  0.2945  0.0769
28120ION     NA48400   2.107   4.909  14.755  0.0280  0.3161 -0.0930
28121ION     NA48401   5.619   9.884  10.134  0.0120  0.0656 -0.1634
28122ION     NA48402   5.101   9.054   0.493 -0.3364 -0.0261  0.2933
28123ION     NA48403   2.235   7.715   9.974 -0.0387 -0.0843  0.2540
28124ION     NA48404  13.765   4.256   1.390  0.0662  0.0530 -0.1823
28125ION     NA48405  11.420  15.645  15.192  0.0871 -0.1250 -0.2143
28126ION     NA48406  15.410  17.333   1.414 -0.0831 -0.0887  0.1285
28127ION     NA48407   2.064  18.378  10.599  0.1128  0.1910 -0.1333
28128ION     NA48408   9.917  10.124  13.707 -0.1071 -0.1881 -0.3452
28129ION     NA48409  16.451   1.828   5.306 -0.1241 -0.3279 -0.1753
28130ION     NA48410   7.962   1.884   5.202  0.1621 -0.2354 -0.1569
28131ION     NA48411   4.884   2.623  10.234  0.1880 -0.0363  0.2179
28132ION     NA48412   5.012  17.898   4.595 -0.0385  0.0055  0.1536
28133ION     NA48413   2.871   0.416  12.428 -0.0260  0.1158 -0.0196
28134ION     NA48414   9.995   3.687  10.571  0.2434 -0.1329 -0.0080
28135ION     NA48415  15.065   5.360  15.157 -0.0224 -0.1116  0.0260
28136ION     NA48416   1.820   7.481   5.384 -0.1797  0.0641  0.0210
28137ION     NA48417   7.730   5.160  10.580  0.1234 -0.3550  0.2785
28138ION     NA48418  16.362   8.194  11.621 -0.0992  0.1382  0.2011
28139ION     NA48419   5.219   7.053  11.856  0.0951 -0.1723  0.0919
28140ION     NA48420  15.505   3.464   4.400  0.0701  0.1462 -0.1899
28141ION     NA48421  11.942   2.704   5.077  0.2766  0.2930 -0.1483
28142ION     NA48422   1.004   0.595   1.384 -0.1747  0.2517 -0.2702
28143ION     NA48423   2.142   8.372  15.209 -0.2577 -0.4492  0.2042
28144ION     NA48424   9.681   9.749  12.950  0.0284  0.0760 -0.2687
28145ION     NA48425  16.496  11.019  10.941  0.4114  0.2755 -0.0775
28146ION     NA48426   4.143   9.475  10.159  0.1818  0.0878 -0.0596
28147ION     NA48427   0.772   7.303   5.426 -0.0847  0.2056 -0.1170
28148ION     NA48428   2.124  10.834   0.982 -0.2804 -0.1292  0.2233
28149ION     NA48429   9.148   2.119  15.275  0.0845 -0.2825 -0.4629
28150ION     NA48430   2.225  16.676   0.436  0.1672 -0.1532  0.0420
28151ION     NA48431   9.252   1.279   9.967 -0.3700  0.2880  0.1525
28152ION     NA48432   1.590  14.884   5.222 -0.0465 -0.1506  0.0892
28153ION     NA48433  16.004  17.084  13.292  0.2527 -0.1411  0.0262
28154ION     NA48434   8.126   3.117  15.071 -0.1832 -0.1739 -0.1332
28155ION     NA48435   8.686   0.334  14.039 -0.3186 -0.0503 -0.1135
28156ION     NA48436   7.372   7.718  15.373  0.2019 -0.3613 -0.1345
28157ION     NA48437  11.785  13.122   5.124 -0.1083 -0.0222  0.0139
28158ION     NA48438   9.251   9.834  10.269  0.1764 -0.0638 -0.2994
28159ION     NA48439   2.548  14.857  14.193  0.0692 -0.1375  0.2761
28160ION     NA48440   8.410   2.624   4.985  0.0375  0.0591 -0.3506
28161ION     NA48441  15.121   0.277   1.003  0.1259  0.1414 -0.0676
28162ION     NA48442  18.108   9.322   0.857  0.0396  0.2099  0.2126
28163ION     NA48443   5.861   4.406  14.988 -0.1056  0.1497 -0.0599
28164ION     NA48444   7.614   7.539   1.601  0.1143  0.0629 -0.1192
28165ION     NA48445   4.162   2.993   4.742 -0.1811  0.0867 -0.0415
28166ION     NA48446   4.511   2.816  13.170 -0.0109 -0.4436  0.1061
28167ION     NA48447  12.453  11.473  10.162 -0.2640 -0.1325 -0.1173
28168ION     NA48448  14.867  11.210   5.130 -0.1821  0.3245 -0.1111
28169ION     NA48449   0.649   0.141  13.676  0.1810 -0.2975 -0.1302
28170ION     NA48450   6.227   7.434   5.319  0.2229 -0.0447 -0.2444
28171ION     NA48451  10.181  15.379   1.904 -0.0002  0.1027  0.1056
28172ION     NA48452  15.138  12.815  10.749 -0.2549  0.1265  0.0776
28173ION     NA48453  11.541  12.626  11.999 -0.2998  0.1819 -0.1837
28174ION     NA48454  10.783  10.160   5.332  0.0914 -0.3920  0.1324
28175ION     NA48455  12.907  15.412  10.163  0.1102  0.0336 -0.1005
28176ION     NA48456   3.878   6.986   5.003 -0.2703 -0.1249  0.0139
28177ION     NA48457  17.017  12.933   2.078 -0.0843 -0.1240 -0.1953
28178ION     NA48458  18.320   4.409  11.763  0.2904 -0.0273  0.0591
28179ION     NA48459  15.958  13.847   5.695 -0.0143  0.0209  0.6445
28180ION     NA48460  13.873   3.686   5.265 -0.1210  0.1824 -0.1820
28181ION     NA48461   4.167   7.962  10.297  0.0987 -0.1948  0.0058
28182ION     NA48462   8.475   1.545  12.099 -0.0066  0.0855 -0.1656
28183ION     NA48463   4.439   5.988  10.375  0.2380  0.1460  0.1453
28184ION     NA48464   0.829   1.946  14.598  0.1524  0.2313  0.0287
28185ION     NA48465  18.062   8.784   4.095  0.0726  0.2538 -0.2565
28186ION     NA48466  13.636  11.916   0.100 -0.0870  0.0853 -0.0140
28187ION     NA48467   4.839  10.546   9.868  0.2496  0.1521  0.2319
28188ION     NA48468  15.188   7.413   5.494  0.1515 -0.1985 -0.0525
28189ION     NA48469   5.604   1.431   1.998  0.2088  0.2335 -0.3428
28190ION     NA48470  14.270  15.487  15.148 -0.0752 -0.2977 -0.0929
28191ION     NA48471   0.916   5.520  11.848 -0.0166 -0.1410 -0.0663
28192ION     NA48472  12.603   3.715  13.730 -0.0396  0.0207 -0.1590
28193ION     NA48473   8.986  14.429   0.275  0.1192  0.0378 -0.1287
28194ION     NA48474  11.830  15.020  12.429  0.1568 -0.0457 -0.0693
28195ION     NA48475   4.410   4.060   4.670 -0.0285 -0.2861  0.2376
28196ION     NA48476   8.010   6.650  10.807 -0.0658  0.4451 -0.0555
28197ION     NA48477   2.797  10.561   1.734 -0.1473  0.1869 -0.0264
28198ION     NA48478  12.659   9.966   5.529  0.1837  0.3213  0.1059
28199ION     NA48479  18.438  10.483   0.064 -0.1862  0.2835 -0.1916
28200ION     NA48480  14.279  17.392   5.084 -0.0573  0.0848 -0.0367
28201ION     NA48481  14.535  10.626  10.674  0.1126  0.1313  0.1575
28202ION     NA48482  16.707   7.401  13.900  0.2132  0.1172  0.0149
28203ION     NA48483   9.636  15.496  13.888  0.1332  0.1213 -0.1953
28204ION     NA48484   2.137  10.211   0.343  0.0498 -0.0450 -0.2195
28205ION     NA48485   4.062   3.055  10.909  0.1830 -0.3519 -0.2569
28206ION     NA48486   1.311  17.028  11.947  0.0933 -0.0809  0.1795
28207ION     NA48487   1.773  10.121  10.419 -0.0059  0.0131 -0.2331
28208ION     NA48488  18.155   4.662  10.333  0.1065  0.0006  0.1300
28209ION     NA48489   5.733  18.715  11.698  0.0616 -0.1676  0.2206
28210ION     NA48490  10.872  12.225  13.118 -0.1005  0.0038 -0.3941
28211ION     NA48491  13.454  16.041   5.268 -0.0958  0.0668  0.1700
28212ION     NA48492   4.059  17.784   4.734 -0.1756  0.0936 -0.2053
28213ION     NA48493   1.888   6.667   3.647  0.2013  0.1859 -0.1746
28214ION     NA48494  14.486   5.642   5.410  0.2251  0.3510  0.1792
28215ION     NA48495  15.878   8.525  13.901  0.0534 -0.1311 -0.1064
28216ION     NA48496  13.575   0.865   2.208  0.1809 -0.1108  0.0795
28217ION     NA48497  18.684   7.063   2.159 -0.0140  0.1358  0.2639
28218ION     NA48498  17.763  16.895  10.375  0.3322 -0.5897  0.1672
28219ION     NA48499   6.532   4.481  10.308  0.0945 -0.3302  0.0927
28220ION     NA48500  16.210  10.721  10.479  0.3608  0.3338 -0.0654
28221ION     NA48501   5.634  13.904  10.255 -0.0624 -0.0274 -0.2667
28222ION     NA48502   5.198  10.190   0.205  0.2135  0.2713  0.3147
28223ION     NA48503  16.557   0.638  10.869  0.0145 -0.0493  0.0770
28224ION     NA48504  16.912  16.135   5.322 -0.0321  0.0679 -0.3384
28225ION     NA48505   3.089   6.895   4.789 -0.0948  0.0543 -0.3542
28226ION     NA48506  12.243   7.276   3.677 -0.2030  0.2191 -0.0986
28227ION     NA48507   9.350  10.013   5.339  0.2465  0.0428 -0.1456
28228ION     NA48508   5.856  17.297   4.656 -0.2655 -0.1633 -0.0428
28229ION     NA48509   8.340   7.048   2.018 -0.4434 -0.0522 -0.0461
28230ION     NA48510  14.909   6.429  10.830  0.2546  0.3614  0.0095
28231ION     NA48511  10.864  11.514   4.701 -0.0843  0.0984  0.0388
28232ION     NA48512   4.246   9.827   1.181 -0.1785  0.2254 -0.1677
28233ION     NA48513  18.565  16.699   5.165  0.0275 -0.0697  0.0667
28234ION     NA48514   9.748  17.230  12.734  0.4474 -0.3867  0.0208
28235ION     NA48515  12.805   1.537   5.099  0.0327  0.0565  0.0510
28236ION     NA48516  12.490   8.610  10.838  0.0196 -0.2771 -0.0052
28237ION     NA48517   7.539  13.771  11.542 -0.1698  0.1026 -0.0354
28238ION     NA48518  16.131   9.226  14.733  0.1987 -0.2194  0.1916
28239ION     NA48519   0.867  11.546   4.077  0.1067 -0.0347  0.1004
28240ION     NA48520  13.051   3.375  14.566  0.2177  0.2202  0.1055
28241ION     NA48521  14.799   3.674   5.275 -0.2133 -0.1107 -0.0129
28242ION     NA48522   0.529   6.914   0.678 -0.1353  0.0201 -0.0106
28243ION     NA48523   6.573   2.149  14.678 -0.1812  0.1401 -0.3348
28244ION     NA48524  13.664   4.674  13.649  0.0844 -0.1708  0.0763
28245ION     NA48525   3.495   7.216   0.622 -0.0524  0.1301  0.0944
28246ION     NA48526   9.899  13.503   4.977 -0.0116 -0.2453  0.2783
28247ION     NA48527  12.918   2.445   4.227 -0.1586 -0.2668 -0.0461
28248ION     NA48528   4.467  16.881   9.556 -0.2171 -0.0879  0.2136
28249ION     NA48529   5.865   5.695  13.927  0.2526 -0.0914  0.0396
28250ION     NA48530   8.923  18.191   5.074  0.0227  0.1721  0.0749
28251ION     NA48531   1.256  14.281  10.292 -0.0847 -0.2188  0.2880
28252ION     NA48532   9.852  17.248  14.733  0.1004 -0.0601 -0.1298
28253ION     NA48533   1.638  17.127  14.597 -0.0977 -0.1140  0.1151
28254ION     NA48534   5.877   6.918  13.561  0.0632 -0.0632 -0.0921
28255ION     NA48535   6.721  18.400   1.254 -0.2209 -0.0610 -0.3276
28256ION     NA48536   4.821   9.898  14.886 -0.1700  0.0409  0.0195
28257ION     NA48537   1.583   0.381   2.073 -0.2745 -0.0975  0.1675
28258ION     NA48538   7.938   7.855   1.385 -0.3029 -0.2746  0.0562
28259ION     NA48539  14.301   1.894  11.628  0.1982  0.0846  0.1861
28260ION     NA48540  11.975   6.220   1.686  0.1959  0.1494 -0.1740
28261ION     NA48541   7.637   4.153  10.535  0.0952  0.1228 -0.2513
28262ION     NA48542   1.467  11.790   5.004  0.0383  0.0763  0.1747
28263ION     NA48543   4.008   4.880  10.417  0.2431 -0.2749 -0.2203
28264ION     NA48544  12.032  17.272   2.176  0.1582  0.2040  0.0817
28265ION     NA48545  16.193  15.027   2.284  0.3330  0.1449  0.0313
28266ION     NA48546  15.270  10.832  10.443  0.0527 -0.0170  0.2627
28267ION     NA48547  12.340   7.213   4.550  0.1141  0.3480 -0.2482
28268ION     NA48548  12.539   0.601   3.758 -0.2069 -0.1073 -0.0866
28269ION     NA48549  15.064  12.276  11.951 -0.0267 -0.0186 -0.0952
28270ION     NA48550   9.899  10.433  10.384 -0.3043  0.2746  0.0468
28271ION     NA48551   2.641  14.101  10.375  0.1951  0.1220  0.2491
28272ION     NA48552  17.034  10.397  10.659  0.1367  0.1418 -0.0137
28273ION     NA48553   3.579  14.453   4.669 -0.0346 -0.3299 -0.2230
28274ION     NA48554  15.656   6.354   1.986  0.3468 -0.1753 -0.0151
28275ION     NA48555  10.136   9.263  13.157  0.1369  0.0227 -0.1453
28276ION     NA48556   3.556  11.676   2.085  0.0300 -0.1314  0.1770
28277ION     NA48557   9.945  10.220   3.451 -0.0812  0.1646  0.2138
28278ION     NA48558   2.332   3.037   5.039 -0.2525 -0.1364 -0.0008
28279ION     NA48559   8.796  16.031   0.359  0.1623  0.5315  0.1301
28280ION     NA48560   0.316   9.650   3.205  0.1977 -0.0380 -0.0210
28281ION     NA48561   0.631  10.224   0.273 -0.2165  0.0021 -0.0991
28282ION     NA48562  14.054   2.177  10.446 -0.0182  0.0346  0.1154
28283ION     NA48563  16.359   6.957  13.032  0.1891  0.1079  0.0765
28284ION     NA48564  18.707   0.135  10.862 -0.0881  0.1443 -0.0905
28285ION     NA48565   0.180  14.311   1.389  0.3491 -0.0620 -0.1393
28286ION     NA48566  11.276  11.906   0.051  0.0202  0.1222 -0.1696
28287ION     NA48567  11.407  16.972   0.496  0.2407 -0.1983 -0.0285
28288ION     NA48568  11.724  11.928   5.185  0.1789  0.1113  0.0107
28289ION     NA48569   2.231  10.669  13.488  0.0122 -0.0738  0.0368
28290ION     NA48570  18.694  17.382   4.060  0.1599  0.0852  0.3216
28291ION     NA48571   4.577  15.325  10.157 -0.0350  0.0868  0.2797
28292ION     NA48572  16.030   7.773   5.452  0.1328  0.0404 -0.0955
28293ION     NA48573  14.055   7.795   2.754 -0.2705  0.0273  0.0839
28294ION     NA48574  14.885   9.551   5.501  0.1139 -0.4616  0.1569
28295ION     NA48575   1.952   8.414  12.269  0.0304  0.5846 -0.3898
28296ION     NA48576   0.726   0.881  10.572  0.2229  0.1493 -0.0055
28297ION     NA48577  16.873  12.340   5.393  0.3344 -0.0170 -0.0062
28298ION     NA48578   2.363  14.929  11.550 -0.1795  0.1556 -0.3955
28299ION     NA48579   1.471   6.629  13.702 -0.0426 -0.1803  0.2392
28300ION     NA48580  11.354  16.972   4.248  0.0996 -0.3990  0.3188
28301ION     NA48581   2.980   4.928   2.770  0.2250  0.0875  0.0031
28302ION     NA48582  12.355  12.430  14.448 -0.1015 -0.1501 -0.0624
28303ION     NA48583   9.392   6.214   2.434 -0.0221  0.2829  0.1179
28304ION     NA48584   5.213  14.591  10.266  0.1253  0.4405 -0.0201
28305ION     NA48585  14.015   4.566  14.071 -0.4380 -0.1658 -0.3198
28306ION     NA48586   5.368   2.644   2.761 -0.1212 -0.1264  0.0709
28307ION     NA48587   2.137  11.874  10.195  0.1301 -0.0808 -0.1910
28308ION     NA48588  11.664  11.113   3.287  0.1585  0.0836  0.2059
28309ION     NA48589  12.785  17.899   5.105  0.0928  0.1990  0.0305
28310ION     NA48590  14.251  10.853  11.562  0.0552  0.1292  0.1493
28311ION     NA48591   0.336  13.725  14.184  0.1942  0.1022  0.1010
28312ION     NA48592  11.232  17.411   4.986 -0.0150  0.0546  0.0602
28313ION     NA48593  12.620  17.750   3.473  0.1490 -0.4189 -0.1708
28314ION     NA48594   7.451  15.144   3.001 -0.0318  0.1016 -0.2084
28315ION     NA48595   4.532  10.464   5.576  0.2190  0.0642 -0.0164
28316ION     NA48596  16.399  15.964  10.155 -0.1195 -0.1807 -0.0648
28317ION     NA48597   1.542  13.492   3.100 -0.1993  0.3012  0.1151
28318ION     NA48598   2.610   8.370   4.869 -0.0358 -0.0999  0.2020
28319ION     NA48599   9.608  17.626   0.967 -0.1090 -0.0974 -0.0502
28320ION     NA48600  10.508  14.932  10.418  0.1588 -0.1646 -0.2005
28321ION     NA48601   8.370  13.170  13.804 -0.1137 -0.0231 -0.0371
28322ION     NA48602   1.332  14.719  12.123  0.1938 -0.2302  0.0859
28323ION     NA48603   9.387  12.182  12.387 -0.2486  0.4005 -0.1455
28324ION     NA48604   3.140   9.105   4.878  0.1331  0.1621  0.0286
28325ION     NA48605  13.874  18.215   5.154  0.1455 -0.1990  0.0565
28326ION     NA48606   0.864   0.021  10.422  0.2629  0.0021 -0.0531
28327ION     NA48607   0.415   9.537   1.025 -0.0917  0.1370  0.1637
28328ION     NA48608   3.141  17.510   4.876 -0.1066  0.2273 -0.3461
28329ION     NA48609   8.776   1.560   1.777  0.3102  0.0654  0.1141
28330ION     NA48610   3.600   4.889   4.036 -0.3234  0.0849  0.1368
28331ION     NA48611  11.182   1.046   4.902  0.2002  0.3335 -0.0460
28332ION     NA48612   5.365   8.613   4.409  0.2848 -0.0011  0.1694
28333ION     NA48613   7.661   4.378   1.456  0.2731 -0.3135  0.0906
28334ION     NA48614   4.145  11.875  10.167  0.2069  0.1261 -0.0809
28335ION     NA48615   5.175  13.732  12.691  0.1953 -0.1163 -0.1962
28336ION     NA48616  17.028  10.173   1.469 -0.0124 -0.0087  0.0538
28337ION     NA48617  11.687   4.853   1.533 -0.0565 -0.1346  0.3272
28338ION     NA48618  14.317   1.277  10.513  0.1608  0.3486 -0.0761
28339ION     NA48619  11.314  17.077   1.047 -0.1157 -0.0119 -0.0218
28340ION     NA48620   1.986  14.650  10.423  0.0472  0.0935  0.4422
28341ION     NA48621   6.231  18.234  12.359 -0.0626 -0.0120 -0.1691
28342ION     NA48622   3.564   9.153   3.336 -0.2079  0.0255  0.1734
28343ION     NA48623   2.080  10.959  10.382  0.0509 -0.0683  0.3060
28344ION     NA48624  12.789  13.324   5.402  0.1697  0.1405 -0.3274
28345ION     NA48625  12.858   3.378  10.477  0.0009 -0.1634 -0.0794
28346ION     NA48626  10.805  12.334   5.194  0.1185  0.3764 -0.1175
28347ION     NA48627  14.472  15.972  13.399  0.0574  0.2217 -0.3440
28348ION     NA48628   1.731   8.760   3.216  0.4076  0.3158 -0.0660
28349ION     NA48629  14.303   9.078  12.122 -0.1176 -0.1044  0.1266
28350ION     NA48630  11.649  10.756   1.965 -0.2677  0.1479 -0.0367
28351ION     NA48631  12.476   6.620  12.458 -0.2629 -0.1000  0.2681
28352ION     NA48632  11.037  11.877   2.227 -0.3397 -0.1256  0.4057
28353ION     NA48633  11.539  18.273  13.239  0.1141 -0.3036 -0.0169
28354ION     NA48634   5.675  18.339  14.277  0.2044 -0.1474  0.0049
28355ION     NA48635  11.326  14.009   4.993 -0.2651 -0.0941 -0.1642
28356ION     NA48636   8.785  13.809   4.795 -0.0750 -0.0466  0.2622
28357ION     NA48637   6.784  10.940  10.384 -0.0134  0.1455 -0.0853
28358ION     NA48638  12.300  13.764   4.530  0.3100 -0.1666 -0.0916
28359ION     NA48639   3.154   0.585   2.022 -0.1914 -0.0065 -0.1088
28360ION     NA48640   3.037   2.880  13.523  0.1263  0.0259  0.0447
28361ION     NA48641  11.957  11.508  10.239 -0.2323  0.2348 -0.1252
28362ION     NA48642   1.940   3.375   2.731 -0.1963 -0.1682  0.2784
28363ION     NA48643   3.367  15.487   1.363  0.0507 -0.0048  0.0582
28364ION     NA48644   5.916  13.593   0.708 -0.1669 -0.0024 -0.0978
28365ION     NA48645  11.413   4.050   4.850  0.0067 -0.0525 -0.0817
28366ION     NA48646   1.908   6.544   1.267  0.1626 -0.0253  0.1052
28367ION     NA48647   1.816   6.008  10.254  0.2667 -0.2289 -0.1265
28368ION     NA48648   1.626   7.216  10.250 -0.0361 -0.1933 -0.0026
28369ION     NA48649   6.223   2.569  10.441 -0.0588  0.1011  0.0796
28370ION     NA48650   4.867  11.925  13.766  0.1801 -0.0401  0.2177
28371ION     NA48651   4.334   8.972  13.298 -0.1425 -0.1356  0.1845
28372ION     NA48652   0.940   7.701   0.181 -0.1054 -0.1983 -0.1875
28373ION     NA48653  11.977   1.663   5.023  0.3820  0.1044 -0.1044
28374ION     NA48654   0.187  13.146  11.189  0.1799  0.3015 -0.2029
28375ION     NA48655   2.192   6.537  12.054  0.2071 -0.1357 -0.0759
28376ION     NA48656   6.732  17.036   1.316 -0.1635 -0.0073 -0.1129
28377ION     NA48657   6.049   2.323   1.710  0.3832 -0.2450 -0.1173
28378ION     NA48658  13.642   5.932   5.296  0.0958  0.2473 -0.0191
28379ION     NA48659   5.801  17.361   0.866  0.1228 -0.0167  0.1287
28380ION     NA48660  10.161   3.068   4.833 -0.0177  0.1571  0.1473
28381ION     NA48661   9.069   3.720  10.439  0.0412  0.0123 -0.0962
28382ION     NA48662  15.883  10.904   5.121 -0.1545  0.0216 -0.2172
28383ION     NA48663  10.669   5.791   5.064  0.1543  0.3069  0.1384
28384ION     NA48664   3.700  17.362   3.249  0.1199 -0.0735 -0.0199
28385ION     NA48665   9.330  12.781   4.980  0.0662  0.1978  0.0550
28386ION     NA48666   7.498  14.338  10.028  0.3278 -0.1577 -0.3266
28387ION     NA48667  16.834   5.859   5.535 -0.1963 -0.1652 -0.3305
28388ION     NA48668   5.632  10.167  11.253 -0.2969  0.0103 -0.1090
28389ION     NA48669  14.597   8.366   5.580 -0.1781  0.1479 -0.2475
28390ION     NA48670   8.601   7.977  11.840 -0.0579  0.0081  0.1230
28391ION     NA48671   0.463   8.435   3.564  0.4767 -0.2048 -0.1531
28392ION     NA48672  12.291   5.906   0.270  0.1601  0.0621  0.0313
28393ION     NA48673   3.023  17.561   3.530 -0.0997  0.0378 -0.1080
28394ION     NA48674  11.001   3.213   4.991 -0.2787  0.4123 -0.0861
28395ION     NA48675   5.852   1.648   4.265  0.0722  0.1533  0.0610
28396ION     NA48676   7.843   9.895  12.364 -0.2743 -0.1168  0.0632
28397ION     NA48677  13.234  17.798  13.603 -0.0913 -0.0566  0.1863
28398ION     NA48678   1.863  18.548  14.928 -0.1330 -0.0019 -0.2927
28399ION     NA48679  15.747   2.446  10.116 -0.2325  0.0623  0.0651
28400ION     NA48680  15.758  14.923  14.788  0.1576 -0.0001  0.1617
28401ION     NA48681  14.253  10.399   5.151  0.1334  0.1787  0.2692
28402ION     NA48682   9.999   6.019   4.131 -0.0605  0.0984  0.0960
28403ION     NA48683  11.768   1.640   1.693  0.1316  0.1885 -0.4052
28404ION     NA48684  11.953   0.097   1.154  0.2157 -0.2042  0.3867
28405ION     NA48685   6.390  14.928  13.484 -0.5041  0.0016 -0.0678
28406ION     NA48686  16.958  16.210   0.319  0.1998 -0.0424 -0.0052
28407ION     NA48687  17.901  13.392   4.176  0.4629  0.0900 -0.0277
28408ION     NA48688  11.910  11.478   5.231  0.0117  0.0047  0.1687
28409ION     NA48689  13.343  11.580   5.293 -0.1489  0.1845 -0.0021
28410ION     NA48690  12.665  17.686  11.606 -0.3672 -0.0530 -0.0754
28411ION     NA48691  12.779  14.152  13.349  0.0669  0.2440  0.4434
28412ION     NA48692  14.209  11.818  10.315  0.1778  0.0371  0.4963
28413ION     NA48693  10.722  13.188   5.031 -0.1718  0.0121 -0.4044
28414ION     NA48694   4.722   8.947  14.076  0.0402 -0.0462  0.3828
28415ION     NA48695  10.958  14.012   0.297 -0.2950 -0.2674  0.0832
28416ION     NA48696  10.880   7.717   5.337 -0.1793 -0.4067  0.0311
28417ION     NA48697   7.791  10.770   1.987  0.0645  0.1841  0.3116
28418ION     NA48698  10.298   4.742   5.034  0.1745 -0.1766  0.2603
28419ION     NA48699   1.246   3.598  13.352 -0.3475  0.3192 -0.1210
28420ION     NA48700   7.299  13.003   5.006  0.1321 -0.1422 -0.1574
28421ION     NA48701  18.237   8.273   4.360  0.1000  0.2884 -0.0698
28422ION     NA48702   9.509   0.166   0.112  0.3256 -0.0468 -0.0416
28423ION     NA48703  18.533   8.087   0.440 -0.0013  0.0829  0.1274
28424ION     NA48704   0.509   2.867   4.815 -0.0548 -0.2437  0.3089
28425ION     NA48705  12.455   0.439  15.172  0.1617  0.0508  0.0084
28426ION     NA48706   9.961   7.651   2.666  0.3860 -0.3626  0.0603
28427ION     NA48707  18.268  11.605  14.059 -0.4043  0.0173 -0.1456
28428ION     NA48708   9.311  14.359   9.835  0.0060  0.2583 -0.2384
28429ION     NA48709  13.198   1.111  10.097 -0.0136  0.1974  0.1403
28430ION     NA48710  12.799   2.714   3.226  0.0758  0.2116  0.1596
28431ION     NA48711   0.130  17.701  11.547  0.2006  0.2850 -0.2176
28432ION     NA48712   6.104   3.371  10.110  0.0135 -0.0197  0.1149
28433ION     NA48713  10.441   4.458   3.484  0.0179 -0.0416 -0.1444
28434ION     NA48714  17.916  13.221   2.985 -0.0837 -0.0619  0.2466
28435ION     NA48715  14.201   4.988   1.796  0.1071  0.0218 -0.2377
28436ION     NA48716   1.125   3.467  13.940  0.1601 -0.0995  0.0173
28437ION     NA48717  15.293   2.251  10.215 -0.1795  0.3054  0.1964
28438ION     NA48718   9.109   9.882   3.090  0.3151 -0.1411 -0.0425
28439ION     NA48719  10.138  16.067   4.984  0.1365 -0.0480  0.2857
28440ION     NA48720   9.924  17.947   9.994  0.1558  0.0350  0.3520
28441ION     NA48721  12.500  16.020   5.472 -0.1113 -0.2129 -0.0123
28442ION     NA48722   5.929   7.411  13.369  0.0256  0.0300  0.0031
28443ION     NA48723  17.175   0.918   5.181 -0.0297  0.1149 -0.1917
28444ION     NA48724  12.012   5.004  11.273  0.1807 -0.1117  0.2413
28445ION     NA48725   4.569  11.663  11.616  0.0103  0.1213  0.0083
28446ION     NA48726   8.955   7.162  13.939 -0.3531 -0.0440  0.0915
28447ION     NA48727   6.488  12.582   5.070 -0.3492  0.1146 -0.1151
28448ION     NA48728   0.165   0.251   4.834  0.2332  0.1384  0.0205
28449ION     NA48729   0.633  11.578  14.201 -0.0281  0.0414  0.0653
28450ION     NA48730   8.375   2.871  10.884 -0.0753  0.2498  0.0426
28451ION     NA48731  12.976  17.599   0.251 -0.6413 -0.0867  0.1294
28452ION     NA48732   0.235   5.616  14.403  0.1410 -0.4164 -0.0065
28453ION     NA48733   0.817  10.930  14.806  0.2255  0.2646 -0.1714
28454ION     NA48734  13.692   7.226   3.832 -0.1827 -0.0484  0.2095
28455ION     NA48735   0.159  15.219  12.206  0.2045  0.1313 -0.1310
28456ION     NA48736  16.558  10.361   5.135  0.1940  0.1502  0.2249
28457ION     NA48737   8.220  13.645   1.767  0.0101 -0.1082  0.0484
28458ION     NA48738   5.626  12.080   5.154 -0.0278 -0.0799 -0.0518
28459ION     NA48739   7.842  10.855  10.440 -0.2718  0.1074  0.3085
28460ION     NA48740   9.645  11.491   5.322 -0.0663 -0.0641  0.0220
28461ION     NA48741   2.221   8.887   4.096 -0.0768  0.2941  0.0453
28462ION     NA48742  11.557  13.563  10.311 -0.1175 -0.0876  0.4041
28463ION     NA48743  16.770   4.779  14.616 -0.1710  0.5963 -0.1400
28464ION     NA48744  13.177   6.785   5.172  0.2383  0.0363  0.0408
28465ION     NA48745  18.441  15.154   1.075  0.1279  0.0420 -0.0596
28466ION     NA48746   1.723   5.176  10.381 -0.0368 -0.3227  0.1492
28467ION     NA48747  18.600   2.010  10.406 -0.2186 -0.0265  0.2570
28468ION     NA48748  10.441   2.782  13.758 -0.0203 -0.0890  0.0433
28469ION     NA48749  10.222   0.220   4.744 -0.0331 -0.1814  0.1322
28470ION     NA48750  12.428  16.966  13.754 -0.0393 -0.0828  0.0751
28471ION     NA48751  13.061  12.479   5.368  0.0461  0.4827  0.0784
28472ION     NA48752  17.915   1.206   1.100 -0.1547  0.3633  0.1780
28473ION     NA48753  14.442  18.129   2.463 -0.3076 -0.0567 -0.0426
28474ION     NA48754  10.066   7.926   0.308  0.0201  0.0477  0.0146
28475ION     NA48755  16.712   8.431  13.279 -0.2294  0.0996  0.4199
28476ION     NA48756   5.088  15.684   5.039 -0.0431 -0.1280 -0.1201
28477ION     NA48757  10.363   7.029   5.387  0.1441 -0.2546  0.0623
28478ION     NA48758  18.649  13.392   0.256  0.0887 -0.1349 -0.2018
28479ION     NA48759  17.072   2.411   0.248 -0.2330 -0.0509  0.1903
28480ION     NA48760  10.502   7.850  14.035  0.1003  0.3707 -0.1283
28481ION     NA48761  14.450  16.489  11.680  0.0666  0.2362  0.0834
28482ION     NA48762  16.268  16.309   2.118  0.0984  0.1290 -0.1712
28483ION     NA48763   6.267  15.159  10.949 -0.1047 -0.2170  0.1062
28484ION     NA48764   7.627   8.846   3.727  0.0464  0.2510  0.0889
28485ION     NA48765  10.765   5.951  11.353 -0.0989 -0.1087  0.1826
28486ION     NA48766  18.150  15.266  10.322 -0.0031 -0.3097  0.3088
28487ION     NA48767  17.494   9.791  10.905 -0.0428  0.2113  0.0405
28488ION     NA48768   9.307  16.628   4.551 -0.1343  0.0803 -0.1536
28489ION     NA48769  14.058   9.178   5.742  0.0045 -0.1464 -0.0176
28490ION     NA48770   1.786   9.516   5.061  0.1021 -0.2220  0.2197
28491ION     NA48771  15.965   1.826   1.471  0.0392  0.1422 -0.0255
28492ION     NA48772  14.709   4.421  11.526 -0.0458 -0.1234  0.0451
28493ION     NA48773   0.820   9.472  12.501  0.1883 -0.1498 -0.0914
28494ION     NA48774  15.220   1.463   0.308 -0.1164 -0.1306  0.1533
28495ION     NA48775   5.663   6.944  10.599 -0.3520 -0.1359  0.3195
28496ION     NA48776   4.000  12.561   2.627 -0.0015  0.1377  0.1081
28497ION     NA48777  16.329   9.222   0.969 -0.0828  0.1436  0.0214
28498ION     NA48778   3.470   3.686   4.692  0.0405  0.1147  0.0092
28499ION     NA48779   0.814   5.957   5.410  0.2182 -0.2090  0.1739
28500ION     NA48780  13.407   1.530   0.909  0.0633 -0.0902 -0.1229
28501ION     NA48781   6.657  17.260   4.215 -0.2817  0.1170 -0.0654
28502ION     NA48782  11.032   5.593  10.464 -0.1363 -0.3262  0.0004
28503ION     NA48783  17.281   7.674  11.158 -0.0615 -0.0842  0.1959
28504ION     NA48784  11.676   1.676  13.420 -0.1215 -0.1009 -0.1607
28505ION     NA48785   4.989  11.632  10.092  0.0136 -0.1886 -0.3782
28506ION     NA48786   9.894  14.567  10.338  0.2731  0.0971 -0.0946
28507ION     NA48787   0.760   8.231  12.867 -0.1018 -0.3154 -0.0592
28508ION     NA48788  10.919  18.399  13.995 -0.2929  0.1147  0.2906
28509ION     NA48789  11.775  11.309  14.274  0.1842  0.2166  0.0493
28510ION     NA48790   5.085  14.113  15.333 -0.3201 -0.1965 -0.0756
28511ION     NA48791   3.463  11.472   5.320 -0.0513 -0.2804 -0.1110
28512ION     NA48792   0.405  11.031   4.985 -0.0659 -0.1392  0.2977
28513ION     NA48793   7.273   9.603   5.579 -0.0938  0.0911  0.3314
28514ION     NA48794   6.475  14.060  10.419 -0.3403  0.1066  0.0473
28515ION     NA48795  15.331  13.415   1.174 -0.1246  0.0057 -0.3303
28516ION     NA48796  10.130  11.888   2.069  0.2129  0.0443 -0.1753
28517ION     NA48797  18.648  15.438  12.608 -0.4772  0.2200 -0.1855
28518ION     NA48798   5.232  15.308  11.043 -0.1310 -0.1984 -0.0157
28519ION     NA48799  13.638   1.235   3.180 -0.2203 -0.0065  0.1456
28520ION     NA48800   0.544   9.538  10.477  0.1096 -0.1422 -0.0171
28521ION     NA48801   8.895   9.743  14.481 -0.2496  0.0805 -0.1269
28522ION     NA48802   0.769  17.384   3.084 -0.2761 -0.3361  0.1241
28523ION     NA48803  13.295   1.001   4.381 -0.1898  0.1425  0.1882
28524ION     NA48804   6.553  15.970  11.600  0.1601 -0.0568  0.0149
28525ION     NA48805  15.009  18.690  10.166 -0.0247  0.0371  0.0505
28526ION     NA48806   2.069   2.481  14.330  0.2623 -0.2672  0.0520
28527ION     NA48807   5.273  13.572   2.787  0.3619 -0.2570  0.2978
28528ION     NA48808   6.678  12.065   2.272 -0.0334 -0.1460 -0.1671
28529ION     NA48809  13.755  13.594   2.621  0.3680 -0.1864  0.0019
28530ION     NA48810   2.972   0.389  11.056 -0.4116 -0.0745  0.2674
28531ION     NA48811   5.546  18.506   4.847 -0.2446 -0.3996 -0.0890
28532ION     NA48812  12.041   2.667   4.116  0.0185  0.0221 -0.2837
28533ION     NA48813  12.856  14.390   0.344 -0.0275 -0.1556 -0.0771
28534ION     NA48814   1.503   0.537  10.662 -0.0629  0.3011  0.1748
28535ION     NA48815  10.684  16.564  10.337 -0.2516  0.2806  0.0626
28536ION     NA48816  16.579  14.571  10.799 -0.1755  0.3458  0.1923
28537ION     NA48817  15.946   7.207   1.339 -0.4909  0.0717 -0.0735
28538ION     NA48818   8.136   3.526   5.109 -0.2585  0.2019  0.3597
28539ION     NA48819   1.545  16.496  10.608 -0.3877  0.1112 -0.3108
28540ION     NA48820   9.665  14.297  13.556  0.1057 -0.1688 -0.1352
28541ION     NA48821   3.185   9.679  12.896 -0.2279  0.1370  0.0455
28542ION     NA48822   7.248   1.034   1.301 -0.1897  0.0818 -0.1109
28543ION     NA48823   2.332   0.448   4.815 -0.0643  0.1016  0.1878
28544ION     NA48824  12.854  13.628   0.716 -0.1740  0.0696 -0.0627
28545ION     NA48825  16.101  14.108   1.591  0.0733  0.2380  0.1550
28546ION     NA48826  15.335  17.755   5.207  0.0444  0.2377 -0.0580
28547ION     NA48827   2.439   1.651   1.948  0.0500 -0.2534 -0.0623
28548ION     NA48828   5.500  11.804   0.300 -0.0223 -0.0987  0.0403
28549ION     NA48829   6.897   8.612   3.364  0.0569 -0.1393 -0.1798
28550ION     NA48830   5.137   9.051  10.155  0.0489  0.0839  0.0298
28551ION     NA48831  14.482   6.380   5.376  0.4093  0.1028 -0.0542
28552ION     NA48832   5.244   3.827  13.087  0.1879 -0.4144  0.2709
28553ION     NA48833   3.546   5.526  10.053 -0.0800  0.1073 -0.0311
28554ION     NA48834  13.830  14.061  15.301 -0.1065  0.0514 -0.2897
28555ION     NA48835  14.661  12.687  14.443 -0.0083 -0.1541 -0.1713
28556ION     NA48836   7.987   5.884   2.175 -0.2489 -0.1824 -0.0261
28557ION     NA48837  12.396   1.410  10.809 -0.0447  0.3029  0.2761
28558ION     NA48838  11.542  14.793   5.225 -0.1859  0.0312  0.1197
28559ION     NA48839   2.671  16.720  14.462  0.2699  0.2345  0.0077
28560ION     NA48840  18.408  17.354  10.892 -0.2628  0.0439  0.0757
28561ION     NA48841   4.521  14.107   4.964  0.0836  0.0209 -0.0346
28562ION     NA48842  15.752   8.467  10.830 -0.0768  0.1585  0.0284
28563ION     NA48843   5.308   6.407  12.805 -0.1377 -0.0811 -0.0094
28564ION     NA48844  12.072   2.257  14.067 -0.1757 -0.0858  0.1450
28565ION     NA48845  11.480  16.516   1.762 -0.2549  0.1823 -0.0699
28566ION     NA48846  17.770   5.820  10.189  0.0681 -0.4002  0.0664
28567ION     NA48847   5.760  12.497  14.519 -0.0771  0.0522  0.2176
28568ION     NA48848  13.403  17.176   1.875 -0.0032 -0.1116  0.2281
28569ION     NA48849   0.407   2.240  11.681  0.1492  0.0041  0.2334
28570ION     NA48850   1.701   8.525   4.831 -0.0199 -0.0521  0.0814
28571ION     NA48851   9.870   6.365  10.700  0.1633  0.1250 -0.1176
28572ION     NA48852  18.648   6.101   5.507 -0.3859  0.1389  0.0545
28573ION     NA48853   5.693   4.418   1.375 -0.0506 -0.5523  0.0772
28574ION     NA48854  17.937   3.640  10.799 -0.0888  0.0620  0.0368
28575ION     NA48855   8.155   3.827  10.440 -0.0561  0.0909 -0.0972
28576ION     NA48856  15.637  17.771  15.349 -0.1817 -0.5036  0.0144
28577ION     NA48857   6.510  16.341   1.031  0.2232 -0.2770 -0.1975
28578ION     NA48858  17.019  18.583  10.779 -0.1262 -0.4619 -0.4002
28579ION     NA48859   6.188  18.521   2.998  0.0893  0.2526  0.2597
28580ION     NA48860  13.464   6.803   0.269 -0.2685 -0.0967  0.0734
28581ION     NA48861  11.594   0.085  10.102 -0.0998  0.1710  0.0172
28582ION     NA48862   6.460  11.605   4.897 -0.3469  0.2636  0.1660
28583ION     NA48863   6.585  15.945   3.521 -0.1671  0.1648 -0.0437
28584ION     NA48864   7.592   3.334   0.361 -0.2757 -0.3771 -0.0029
28585ION     NA48865   8.920   5.157   4.504 -0.1244 -0.1413  0.2484
28586ION     NA48866  14.958  10.398  13.616  0.1667  0.1686 -0.1559
28587ION     NA48867   8.055  16.260   4.741 -0.0889 -0.0699  0.1202
28588ION     NA48868   2.474  16.957   4.918  0.1983 -0.1218  0.3391
28589ION     NA48869  15.170   4.268   1.313  0.2192 -0.0454  0.0212
28590ION     NA48870   4.020   8.318   3.444 -0.3358  0.0467  0.2073
28591ION     NA48871   9.592   5.459  10.549 -0.0129 -0.1435 -0.1098
28592ION     NA48872   2.873  18.125  11.003 -0.1041 -0.1207 -0.5673
28593ION     NA48873  12.461  17.796  10.760 -0.1488 -0.1133 -0.1398
28594ION     NA48874   2.230  10.474   4.484 -0.1768 -0.0071 -0.4964
28595ION     NA48875   4.475   6.534   4.841  0.1322  0.2051  0.0557
28596ION     NA48876   8.452   2.936  14.110  0.0743 -0.0051 -0.0178
28597ION     NA48877  15.211  12.468   3.400 -0.0671 -0.0419  0.1214
28598ION     NA48878  17.798   2.120   5.257  0.1809 -0.2585 -0.1622
28599ION     NA48879   2.023   1.148  14.269  0.1931  0.1262 -0.1408
28600ION     NA48880   5.172  15.511  13.119 -0.1774  0.1770  0.0237
28601ION     NA48881   2.793   6.208  10.230 -0.2495  0.1298 -0.0073
28602ION     NA48882  17.244  16.274   9.976 -0.1841 -0.0053 -0.1854
28603ION     NA48883   3.606  12.659  13.959  0.1896 -0.0949  0.1068
28604ION     NA48884   2.762  15.919  10.519  0.0410  0.1388  0.2363
28605ION     NA48885   4.492   3.373   4.038 -0.0017 -0.1693 -0.0210
28606ION     NA48886  15.589   3.271   5.384  0.0820  0.1997 -0.1719
28607ION     NA48887  17.612  14.023   5.494  0.3004 -0.1916  0.0728
28608ION     NA48888   2.107  12.497   0.711 -0.0967  0.1547  0.0986
28609ION     NA48889   7.406  13.822   4.776 -0.0074 -0.1179 -0.2529
28610ION     NA48890   8.319  17.059   4.991 -0.2104  0.2218 -0.1152
28611ION     NA48891   1.106   8.208   5.362  0.0231 -0.1173  0.1636
28612ION     NA48892  12.183  18.504  14.390 -0.0589 -0.0435  0.1101
28613ION     NA48893   7.292   3.967   4.873 -0.3430  0.0973 -0.1097
28614ION     NA48894  16.097  14.226  11.773  0.1070  0.0689  0.0528
28615ION     NA48895   2.575   5.050   3.468 -0.0732 -0.0894 -0.0475
28616ION     NA48896   7.925   7.898   5.609  0.0816  0.1277  0.1020
28617ION     NA48897  12.017   3.008   2.030 -0.1284 -0.1610 -0.2272
28618ION     NA48898  15.493  11.946  13.743 -0.1877  0.0109 -0.2528
28619ION     NA48899   5.446  17.909   1.725 -0.2550  0.1415 -0.1664
28620ION     NA48900   4.534   8.006   1.647  0.0475  0.3074 -0.0332
28621ION     NA48901  17.357   5.863   0.812 -0.1681 -0.0695  0.0577
28622ION     NA48902   1.640   8.235  10.212 -0.0328  0.2504 -0.3442
28623ION     NA48903  14.954   2.869   5.375  0.1497 -0.0658 -0.2574
28624ION     NA48904  10.535  14.002  10.491  0.1014  0.1144  0.0118
28625ION     NA48905   8.603  10.379   4.127  0.1932  0.2011 -0.2130
28626ION     NA48906  15.461   9.008   4.300  0.1153  0.0061  0.0441
28627ION     NA48907   9.190  13.876   3.462  0.1643 -0.0455 -0.0979
28628ION     NA48908  13.558   5.538  14.892  0.0666  0.0398  0.0484
28629ION     NA48909   3.894   7.096  15.105  0.0992 -0.2574  0.1270
28630ION     NA48910  14.439   9.762   0.788  0.4115 -0.2555 -0.0618
28631ION     NA48911  17.134  11.205  14.178 -0.1047  0.3848 -0.5832
28632ION     NA48912  11.006  15.801  13.975  0.0319 -0.0397  0.1844
28633ION     NA48913   1.282  13.112   5.182 -0.0181 -0.2449  0.0901
28634ION     NA48914   1.922  13.956   2.484  0.1285 -0.0739 -0.1433
28635ION     NA48915   0.106   0.138  10.336 -0.1814  0.0782  0.0592
28636ION     NA48916  17.818   4.600   1.427 -0.0995  0.2901  0.1720
28637ION     NA48917  12.125  12.720   5.314  0.1461  0.5446  0.2093
28638ION     NA48918   4.872   0.544   9.658 -0.0325 -0.0588 -0.3898
28639ION     NA48919  13.131  18.001  10.161 -0.1508  0.1187  0.1401
28640ION     NA48920   1.486  13.873  12.850 -0.1114 -0.1193 -0.0704
28641ION     NA48921   8.121  17.312   9.901 -0.2176 -0.0124 -0.0977
28642ION     NA48922  18.679   8.567  10.496 -0.0551 -0.3333 -0.0159
28643ION     NA48923   5.521   8.001  12.131 -0.0551 -0.0761 -0.0108
28644ION     NA48924   9.405   2.767  14.513  0.1624  0.0778  0.1189
28645ION     NA48925  10.888  13.111  10.159  0.0655 -0.1615 -0.0079
28646ION     NA48926  10.523  12.258  14.609 -0.2108 -0.1452 -0.1971
28647ION     NA48927  15.812  11.731   3.332  0.0115 -0.5197  0.1229
28648ION     NA48928  15.595   8.813   0.869 -0.0328  0.0545 -0.1575
28649ION     NA48929   9.078  13.457   9.980  0.0433 -0.2630 -0.0761
28650ION     NA48930  13.453   0.016   3.339 -0.1832  0.2003  0.0800
28651ION     NA48931  15.703   6.574  14.844 -0.0340 -0.0380  0.2187
28652ION     NA48932   9.471   4.622  10.620  0.1206  0.0573  0.0573
28653ION     NA48933  11.863   1.286  15.146 -0.0933  0.2424 -0.0844
28654ION     NA48934  18.058   0.863  10.851  0.1406 -0.1756 -0.0760
28655ION     NA48935  16.130   3.959  13.324  0.0781  0.2296 -0.3861
28656ION     NA48936   1.338  15.200  10.192  0.0050 -0.2746  0.2767
28657ION     NA48937   4.926   7.862   0.741 -0.3453 -0.1453  0.2259
28658ION     NA48938  13.642   9.954  10.619 -0.0715  0.3553  0.0452
28659ION     NA48939  14.660   3.807  10.428 -0.0565 -0.1839 -0.0899
28660ION     NA48940  18.741   1.820   2.691  0.4897 -0.0599 -0.0916
28661ION     NA48941  15.957  12.551  10.516 -0.0441 -0.0437 -0.1388
28662ION     NA48942   8.092   1.009   9.871 -0.1660  0.0646  0.1807
28663ION     NA48943  12.992  12.194   3.030 -0.1532 -0.1510 -0.0109
28664ION     NA48944  12.075  13.466   3.762 -0.0797 -0.0702 -0.2886
28665ION     NA48945  18.234  10.821   0.893 -0.3088  0.1217 -0.2141
28666ION     NA48946   9.623  15.788  10.544  0.1246  0.0334  0.2695
28667ION     NA48947   3.523  17.498   2.017 -0.1261  0.3719  0.2559
28668ION     NA48948  10.778  12.548  11.664 -0.0694 -0.1597  0.0628
28669ION     NA48949   1.315  13.144  14.647 -0.0687 -0.0407 -0.2441
28670ION     NA48950   1.209  10.576   5.209 -0.2907  0.3261  0.2092
28671ION     NA48951   7.005  15.234   9.937 -0.0090  0.0296  0.1448
28672ION     NA48952   7.808  15.202   9.968 -0.3482  0.1959  0.2895
28673ION     NA48953   8.282   5.828   5.176  0.3445 -0.1355  0.0187
28674ION     NA48954   5.955   7.890   5.582  0.1164  0.2830 -0.2664
28675ION     NA48955   8.595  17.342   4.667  0.3113 -0.1928  0.0240
28676ION     NA48956  18.449  14.264   5.508  0.3138  0.0360  0.2869
28677ION     NA48957  15.538  15.473  10.671 -0.0995  0.1228 -0.0010
28678ION     NA48958  10.811   5.633  13.793  0.1722  0.2197 -0.1288
28679ION     NA48959  13.527   9.373   3.274 -0.0024  0.1440  0.0631
28680ION     NA48960  17.501   7.121  12.368  0.1776  0.2677  0.0099
28681ION     NA48961   1.014   3.458  10.319 -0.0765 -0.2368  0.1494
28682ION     NA48962  13.218   0.060  12.117  0.1289  0.0996 -0.0186
28683ION     NA48963   1.077   2.277   3.007 -0.1024 -0.0420 -0.0566
28684ION     NA48964   8.875   1.401   5.118 -0.0858 -0.3179 -0.1738
28685ION     NA48965  14.875   1.865   5.196 -0.1795 -0.0338  0.0771
28686ION     NA48966   3.046  12.748   4.868  0.0103  0.0815  0.1483
28687ION     NA48967  13.126   7.785  12.654  0.2164  0.1542  0.3341
28688ION     NA48968  17.933  12.885  14.748 -0.0341 -0.0121 -0.1887
28689ION     NA48969   9.349   7.742  10.624 -0.2646 -0.0239  0.1926
28690ION     NA48970  15.173   0.930   5.024 -0.3102 -0.0783  0.3080
28691ION     NA48971   6.090   9.673  14.179 -0.1063 -0.2683 -0.0651
28692ION     NA48972  15.942  18.299   3.885 -0.0369 -0.0499 -0.0518
28693ION     NA48973   9.668  16.874   4.920 -0.3327  0.0532  0.0190
28694ION     NA48974   0.430   2.527  13.518 -0.0857  0.0502  0.2274
28695ION     NA48975  12.048   4.286  12.605 -0.2450 -0.2073  0.0434
28696ION     NA48976   3.975   7.603   1.272 -0.1737 -0.0395 -0.0299
28697ION     NA48977  15.830   0.410  10.382 -0.0191  0.0558 -0.0392
28698ION     NA48978  18.405  15.840  11.590 -0.3007  0.2415  0.0094
28699ION     NA48979  15.698  18.352   2.595  0.2960  0.0443  0.3184
28700ION     NA48980   2.597  16.199   5.145  0.2429 -0.0841 -0.0119
28701ION     NA48981  17.381   1.419  12.751  0.2551  0.0509 -0.1457
28702ION     NA48982   6.871   6.097  15.070 -0.1381 -0.2020  0.0942
28703ION     NA48983  10.597   8.282  12.666 -0.0835 -0.0238 -0.2373
28704ION     NA48984  10.248   9.363  11.049 -0.1488 -0.1501 -0.1084
28705ION     NA48985  16.841  18.255   1.283  0.1969 -0.0116 -0.1664
28706ION     NA48986   3.889  11.598   0.404  0.2929 -0.0225  0.0501
28707ION     NA48987   4.122   8.475   0.754 -0.0223 -0.0200 -0.0697
28708ION     NA48988  14.564  13.333  10.373  0.5277 -0.0891  0.0089
28709ION     NA48989  16.650   4.110   5.552 -0.2292 -0.1887  0.0192
28710ION     NA48990   8.534  15.936  10.208 -0.0282 -0.3465  0.0059
28711ION     NA48991   7.348  10.427  11.077  0.2204  0.5284  0.2676
28712ION     NA48992  12.905  13.612  10.995  0.3647 -0.2546  0.2528
28713ION     NA48993   9.994   4.693   1.161 -0.0463 -0.0612  0.1770
28714ION     NA48994  18.740  17.940  12.457 -0.0867 -0.2409  0.2156
28715ION     NA48995   5.844  13.994  11.238 -0.2615  0.4893 -0.0545
28716ION     NA48996   2.751  17.757   0.873 -0.2136  0.4013 -0.0876
28717ION     NA48997   7.231   7.158  10.343  0.1857  0.1863  0.0502
28718ION     NA48998  16.352  12.498  12.200  0.1731  0.3719 -0.2098
28719ION     NA48999   6.431   5.263   1.055  0.2579  0.2774  0.1817
28720ION     NA49000  11.130  11.948   9.898  0.1611  0.2924 -0.1474
28721ION     NA49001   7.219   1.186  10.251  0.0624  0.0532  0.1236
28722ION     NA49002  13.680  17.892  10.165 -0.1617  0.1338 -0.3137
28723ION     NA49003  11.276   8.411  10.745  0.1270 -0.3464  0.1530
28724ION     NA49004   4.769   8.185  14.584 -0.1665  0.1734  0.2175
28725ION     NA49005   0.893   6.303   3.615 -0.2121 -0.0316 -0.2060
28726ION     NA49006  15.674   7.703  10.742 -0.0421  0.1106 -0.1938
28727ION     NA49007   8.573   9.375  10.494 -0.0388  0.1617  0.0681
28728ION     NA49008   1.450  17.848   4.789 -0.0568 -0.0968  0.1034
28729ION     NA49009  15.745   1.435  10.216 -0.1252 -0.1364  0.0684
28730ION     NA49010  13.737  15.440  12.741 -0.3374 -0.1744 -0.0309
28731ION     NA49011  10.124   1.280  14.877  0.3721 -0.1795  0.0138
28732ION     NA49012  11.865   1.681  10.258  0.4242 -0.1512  0.0005
28733ION     NA49013   5.180   0.748  12.256  0.1038 -0.3435 -0.1568
28734ION     NA49014   9.185  15.680  10.152 -0.1863  0.0450 -0.1803
28735ION     NA49015  16.732   2.545   5.622  0.0216  0.1008  0.1414
28736ION     NA49016  10.312   6.120  15.273 -0.0923 -0.0209  0.0659
28737ION     NA49017  13.488  14.590   2.668 -0.0619 -0.3632 -0.0743
28738ION     NA49018  12.610   8.956   5.641 -0.2638 -0.3335 -0.3151
28739ION     NA49019   7.467   8.346  10.715 -0.1558  0.0100  0.3792
28740ION     NA49020   5.367  10.000  13.028  0.4562 -0.1796 -0.3162
28741ION     NA49021  18.745  15.358   1.452 -0.0032  0.0896  0.3556
28742ION     NA49022   3.067   5.620   1.954  0.0412  0.1382 -0.1949
28743ION     NA49023  18.276   2.713  10.463 -0.0056  0.2895 -0.2480
28744ION     NA49024   6.396   3.803  15.241 -0.1680  0.0738 -0.0418
28745ION     NA49025  17.713   8.075  12.018  0.0732 -0.0187 -0.1437
28746ION     NA49026   2.452   5.296  10.325  0.1541  0.0348  0.5296
28747ION     NA49027  14.652  10.242   2.889  0.2367  0.3485  0.0666
28748ION     NA49028  15.185  17.008   5.225  0.0323 -0.0436 -0.1566
28749ION     NA49029   2.743   4.940   0.901  0.1658 -0.1366  0.1616
28750ION     NA49030  13.960   3.519   2.218 -0.0211 -0.1087  0.1339
28751ION     NA49031  11.939  13.725   5.227  0.0514 -0.0066 -0.0926
28752ION     NA49032  11.542  17.138  14.091 -0.1161  0.2127  0.3844
28753ION     NA49033   3.406  18.398  12.732  0.1798  0.2073 -0.1915
28754ION     NA49034   0.580   1.130   4.975 -0.1664  0.3439  0.1516
28755ION     NA49035   5.466   5.906   1.163 -0.1351 -0.0467 -0.0668
28756ION     NA49036   5.081  10.238   1.899  0.1274 -0.1651 -0.1977
28757ION     NA49037   7.264   7.211   5.288  0.2543 -0.0684  0.2082
28758ION     NA49038  12.875  16.192   1.936  0.0107 -0.0323 -0.0590
28759ION     NA49039   4.237  17.741  12.334  0.1855 -0.0077  0.0272
28760ION     NA49040  11.562   6.202   5.255  0.0209 -0.0967  0.3178
28761ION     NA49041   9.476  18.600  11.034 -0.0992 -0.1081  0.0331
28762ION     NA49042  10.194   0.028  10.393 -0.3859 -0.1471  0.0841
28763ION     NA49043   2.976  10.200   5.197 -0.0216  0.0193  0.0732
28764ION     NA49044   8.720  12.641  10.295 -0.1182  0.0327  0.0840
28765ION     NA49045   4.535  14.879  11.514 -0.1186 -0.3222 -0.2913
28766ION     NA49046   0.627   2.507  10.345 -0.0582 -0.4180 -0.2247
28767ION     NA49047  11.060   2.038   4.804 -0.1802 -0.1887 -0.1600
28768ION     NA49048  13.358  16.637  13.371  0.0544 -0.2659 -0.3315
28769ION     NA49049   9.824  14.293  12.407  0.0022 -0.1590 -0.0354
28770ION     NA49050   9.804  12.422  13.466  0.1538  0.1569 -0.1123
28771ION     NA49051  17.400   9.456   5.326 -0.0354 -0.2475  0.1427
28772ION     NA49052  10.759   4.405  10.373  0.0580  0.0840  0.0822
28773ION     NA49053  12.025  13.500   0.219  0.0262  0.0534  0.0223
28774ION     NA49054   9.592   6.840  12.822 -0.1341 -0.0472 -0.1146
28775ION     NA49055  11.980  10.578  10.570 -0.2843 -0.0805  0.2145
28776ION     NA49056   4.332   2.803  14.490  0.0568  0.0961  0.7579
28777ION     NA49057  16.324  14.271   5.075 -0.3702 -0.2557 -0.0306
28778ION     NA49058  16.552  12.083  14.697  0.1670 -0.3150 -0.1161
28779ION     NA49059   7.544   2.338  10.139 -0.0708  0.3346  0.2737
28780ION     NA49060   6.316  15.559   4.388 -0.1368 -0.1440 -0.1626
28781ION     NA49061  17.415  11.719   5.083 -0.1619  0.0863  0.0542
28782ION     NA49062   1.608   8.072  10.734  0.2025 -0.0326  0.1197
28783ION     NA49063   0.675   9.432   2.271 -0.0655 -0.0451 -0.1713
28784ION     NA49064  12.524   7.334  10.951  0.1932  0.1095 -0.2681
28785ION     NA49065  14.955  15.496   4.323  0.0503  0.2338  0.0423
28786ION     NA49066   3.890  14.355  11.793 -0.2282 -0.0259 -0.0919
28787ION     NA49067  18.396  13.541   5.058 -0.1686 -0.1001 -0.0172
28788ION     NA49068   6.558   8.405   4.368  0.3677  0.2309  0.1347
28789ION     NA49069   8.081   9.453   5.680  0.1989 -0.0902  0.3301
28790ION     NA49070  10.873  18.196   4.877  0.1271  0.1434  0.0810
28791ION     NA49071   6.616   5.744   2.537 -0.1187 -0.0649  0.1632
28792ION     NA49072   1.113   1.740  13.591 -0.1058  0.2776 -0.1534
28793ION     NA49073  14.405   8.333  10.751 -0.2682 -0.1769 -0.1780
28794ION     NA49074  11.229   8.474   4.835 -0.2747  0.1044 -0.0402
28795ION     NA49075   8.405   6.275   0.676 -0.2203  0.1435 -0.0397
28796ION     NA49076   6.592  13.617   3.032  0.2593  0.4930  0.3460
28797ION     NA49077  15.559   4.216   5.234 -0.2437  0.0417  0.1081
28798ION     NA49078   1.383  12.602  12.363 -0.0649  0.3553 -0.5396
28799ION     NA49079  10.122   9.658   2.479  0.2522 -0.0391 -0.2332
28800ION     NA49080  11.871  15.849   1.953  0.1067  0.0154 -0.1558
28801ION     NA49081  16.067   4.410  13.822  0.0538 -0.2434  0.1651
28802ION     NA49082   1.626   6.817   4.823  0.1569 -0.1133  0.2455
28803ION     NA49083   0.627  17.557   4.989 -0.2527 -0.3717 -0.0379
28804ION     NA49084   5.183  15.184   5.102 -0.0060  0.2008 -0.0780
28805ION     NA49085   5.895   8.681   5.234 -0.3052  0.2541 -0.1311
28806ION     NA49086  11.183  13.122   2.027 -0.0268  0.0668  0.0312
28807ION     NA49087   4.530  13.084   5.249 -0.0068 -0.1695  0.2376
28808ION     NA49088  15.101   7.151   1.900 -0.0159  0.1043 -0.0565
28809ION     NA49089   7.454  18.713  10.461 -0.2797 -0.1662 -0.0244
28810ION     NA49090  17.548   4.042   5.596  0.0872 -0.1535 -0.0333
28811ION     NA49091  10.668  14.031  10.050  0.0833 -0.3306 -0.0044
28812ION     NA49092  15.969  13.793  10.529  0.1547 -0.1743  0.2730
28813ION     NA49093   2.133  13.578   3.517 -0.0940  0.2184 -0.2220
28814ION     NA49094  11.621  16.723  10.124  0.1258  0.0244  0.0109
28815ION     NA49095   3.010  13.681   4.865  0.0219  0.0791 -0.2065
28816ION     NA49096  13.051   8.592  10.896 -0.0578  0.0229  0.0074
28817ION     NA49097   4.943  16.654   4.910 -0.1173  0.0142  0.2234
28818ION     NA49098  11.881  12.440  13.397 -0.0521 -0.4780  0.1399
28819ION     NA49099  12.857  10.252  10.571 -0.1213 -0.0289  0.0259
28820ION     NA49100  16.565   3.593  10.065  0.1950 -0.1272  0.0508
28821ION     NA49101   8.247  17.875   0.129  0.0597  0.3177  0.4298
28822ION     NA49102  13.041   5.596  14.242  0.0573  0.3110 -0.1402
28823ION     NA49103  12.358   2.186  13.213 -0.3749  0.0117 -0.0486
28824ION     NA49104  14.066   1.771   5.009 -0.3839 -0.0205 -0.0911
28825ION     NA49105   7.082  12.698  10.371 -0.2616 -0.2648  0.1759
28826ION     NA49106  13.742  10.013  11.240  0.2505  0.4641  0.1911
28827ION     NA49107   5.589  12.353   2.438  0.3467 -0.0444  0.0850
28828ION     NA49108  17.269   4.766  10.382 -0.1152  0.1046  0.1385
28829ION     NA49109   5.627  14.710  12.442 -0.2630 -0.0649  0.2302
28830ION     NA49110  16.227  10.462   3.307 -0.1465  0.1316 -0.1377
28831ION     NA49111   7.663   9.230  13.943  0.0963 -0.3645  0.3054
28832ION     NA49112   1.626   9.129  10.559 -0.1203  0.1607 -0.0642
28833ION     NA49113   3.051   6.396  15.318  0.0684 -0.4067 -0.1516
28834ION     NA49114   8.451  11.646  10.404  0.1162  0.3694 -0.0441
28835ION     NA49115  17.500  11.388  10.580  0.1510 -0.2251  0.0556
28836ION     NA49116   1.757  13.956   0.032  0.0476  0.2634  0.3374
28837ION     NA49117  12.245   3.566  11.209 -0.3173 -0.1824 -0.0803
28838ION     NA49118  16.083   2.526   4.078  0.0039 -0.2061  0.1894
28839ION     NA49119   5.910   1.842   0.481  0.1300 -0.3106 -0.0681
28840ION     NA49120   6.331   0.424   9.670 -0.1134  0.5504  0.1667
28841ION     NA49121  18.657  15.856   3.916  0.2747  0.1249  0.1978
28842ION     NA49122  13.151   3.194  11.602 -0.0895 -0.3517  0.0008
28843ION     NA49123  11.054  11.293   0.851 -0.0671  0.1843 -0.2185
28844ION     NA49124   0.812  17.042  10.299  0.2451 -0.2839 -0.2271
28845ION     NA49125   6.868   0.119   4.720  0.0481 -0.3128 -0.0781
28846ION     NA49126   0.753   8.884  14.427 -0.2312  0.0422 -0.0793
28847ION     NA49127  11.140   2.655   2.249  0.1511  0.0218  0.0216
28848ION     NA49128   6.028  17.145  14.031 -0.1286  0.2663  0.2113
28849ION     NA49129  16.597   1.418  15.073  0.0611 -0.0029 -0.1003
28850ION     NA49130   0.841   5.804   1.309 -0.6093  0.0491  0.1493
28851ION     NA49131  12.923   6.349   2.112 -0.1543  0.1009 -0.0411
28852ION     NA49132  10.978  11.871   5.286 -0.2528 -0.1240  0.1360
28853ION     NA49133  16.860  17.420  14.320 -0.0561  0.0050  0.0476
28854ION     NA49134   2.980   5.625   0.490 -0.0050 -0.0698  0.3020
28855ION     NA49135   4.755   8.673   3.247 -0.0043  0.0612 -0.0355
28856ION     NA49136   1.385   0.976  12.748 -0.2817  0.0578  0.1092
28857ION     NA49137  13.852   9.121  10.860 -0.0563  0.1876  0.0144
28858ION     NA49138  17.486  14.985  10.931 -0.2270 -0.0979 -0.1725
28859ION     NA49139  10.510   1.447   3.731  0.3576  0.2131  0.3783
28860ION     NA49140   3.233   2.258  14.841 -0.1503 -0.0421 -0.0413
28861ION     NA49141   1.025  13.605  13.801  0.0728  0.2562  0.0486
28862ION     NA49142   4.126   0.948   9.989 -0.1580  0.0441 -0.0257
28863ION     NA49143   9.812  16.796   3.590  0.0576  0.0337 -0.1337
28864ION     NA49144  17.940   9.868  10.632  0.1173 -0.0613 -0.1432
28865ION     NA49145  11.908  15.288  10.533  0.0796  0.1379 -0.0943
28866ION     NA49146  16.043   1.655  11.223 -0.3207  0.2733  0.0983
28867ION     NA49147   0.540  13.723   3.600 -0.0103  0.1311  0.1011
28868ION     NA49148   0.028  12.201   2.859 -0.0034  0.2337  0.0691
28869ION     NA49149  16.758  14.323  12.971  0.2491 -0.2346 -0.2898
28870ION     NA49150  11.932  17.962   5.079  0.1556 -0.3133 -0.1597
28871ION     NA49151   9.172  14.770   4.675 -0.0928  0.2480  0.2908
28872ION     NA49152   3.655  14.924  12.546 -0.0366 -0.1098  0.1552
28873ION     NA49153   0.023   3.967  13.978 -0.3438  0.0379  0.0805
28874ION     NA49154   0.534  18.660   3.730 -0.1428 -0.2451  0.2137
28875ION     NA49155  16.755   0.670  10.159  0.2377 -0.1025  0.0717
28876ION     NA49156   2.049  14.104   1.555  0.0995  0.1067  0.0289
28877ION     NA49157  17.806  11.332  15.058  0.2596 -0.1333 -0.2843
28878ION     NA49158   8.579   4.488  10.573  0.2580  0.0645  0.0412
28879ION     NA49159  10.165   8.839   0.125 -0.1488 -0.3003  0.0624
28880ION     NA49160  13.074   0.103   4.929 -0.0109 -0.0227  0.0439
28881ION     NA49161   8.614  12.752  13.450 -0.0090  0.0256  0.0010
28882ION     NA49162   7.525   0.496  11.418  0.2036 -0.1091 -0.0861
28883ION     NA49163   0.450  13.260   5.193  0.0504 -0.1096 -0.0151
28884ION     NA49164   2.580   4.405   4.829 -0.1184  0.1140 -0.1086
28885ION     NA49165   7.122   4.931  14.823  0.0100 -0.0835  0.0376
28886ION     NA49166   6.815  15.460  12.560 -0.3469 -0.3095 -0.2926
28887ION     NA49167  13.996  13.856  10.948  0.1481  0.2240 -0.1315
28888ION     NA49168   3.131  17.092   0.476  0.1221 -0.3490 -0.0320
28889ION     NA49169   7.419   7.174  13.717 -0.2938 -0.4428 -0.2709
28890ION     NA49170   7.688   9.427   2.542 -0.0308  0.0197 -0.0390
28891ION     NA49171   2.155  15.718   5.212  0.1030 -0.1722  0.1316
28892ION     NA49172  13.331   0.168  10.048  0.0693 -0.0705 -0.2087
28893ION     NA49173   9.418  14.220   4.764  0.0392 -0.1810 -0.0905
28894ION     NA49174  15.846  11.809   5.300  0.1760 -0.0580 -0.0696
28895ION     NA49175  12.478  17.146  10.254 -0.1623 -0.0146  0.2106
28896ION     NA49176   0.211   3.830  10.185 -0.0319  0.1929 -0.2219
28897ION     NA49177   8.964   9.244   1.565 -0.3182  0.0350  0.3731
28898ION     NA49178  17.620   0.644  10.414 -0.2075 -0.1783 -0.1095
28899ION     NA49179   5.441   6.859   4.896  0.0218 -0.0871 -0.0326
28900ION     NA49180  14.098   1.178   4.253 -0.2751 -0.0941 -0.2138
28901ION     NA49181  17.782   5.622   5.743  0.2244 -0.2543  0.1218
28902ION     NA49182   7.205   5.303   4.244  0.1137  0.0080  0.0256
28903ION     NA49183   9.056  18.389   2.765  0.0517 -0.1678 -0.0622
28904ION     NA49184  10.301   3.734  13.474 -0.0722 -0.3252  0.3650
28905ION     NA49185   8.841  18.739  10.095  0.1562 -0.1620  0.2578
28906ION     NA49186  13.328  14.942   4.701  0.0922  0.0824 -0.1121
28907ION     NA49187  11.790   8.461   0.696 -0.0264 -0.3513  0.0219
28908ION     NA49188   1.984  17.631   3.051  0.0903 -0.3160 -0.4812
28909ION     NA49189  17.252  16.372   2.249  0.1362  0.3019 -0.1282
28910ION     NA49190   7.610   3.448  13.894 -0.2876  0.1589 -0.0435
28911ION     NA49191   0.837   0.489   4.767  0.2755  0.0933  0.0763
28912ION     NA49192   3.974   6.008  15.296  0.1108  0.0693  0.1989
28913ION     NA49193  10.543   8.823   5.477 -0.0672 -0.0619 -0.3633
28914ION     NA49194   8.078  12.669   3.522  0.1410 -0.3566  0.0886
28915ION     NA49195   9.180  11.930  10.251  0.1282  0.0110  0.0870
28916ION     NA49196  17.537  10.223   5.204 -0.0139  0.0268 -0.0872
28917ION     NA49197   3.933   0.516   5.026 -0.0148  0.1307  0.5083
28918ION     NA49198  17.492   6.445   5.707  0.2578  0.3687  0.1000
28919ION     NA49199  10.226   3.642   0.820  0.2742 -0.2446  0.1656
28920ION     NA49200   5.919  17.796   9.766 -0.0416 -0.0565 -0.2065
28921ION     NA49201   9.129   6.789   5.268  0.1281 -0.2455 -0.3472
28922ION     NA49202  14.973   7.978   0.944  0.1912 -0.2145 -0.2290
28923ION     NA49203   0.436  16.830  10.589  0.1669 -0.1023 -0.2679
28924ION     NA49204   1.213  12.013   1.898 -0.1357 -0.1020 -0.0078
28925ION     NA49205   5.930  18.152   0.698  0.1405  0.1898 -0.0839
28926ION     NA49206   3.174  15.464   9.998  0.1073  0.5043  0.1578
28927ION     NA49207   9.113   8.332   1.352 -0.1276  0.2227 -0.0997
28928ION     NA49208   6.277   5.214  14.898  0.0390 -0.3605  0.1077
28929ION     NA49209  15.049   8.925   3.330 -0.0344 -0.1743  0.1640
28930ION     NA49210  11.251   7.560   2.677  0.0730  0.0163 -0.1973
28931ION     NA49211  15.676  11.932   1.005  0.2419 -0.2448 -0.1477
28932ION     NA49212  12.174  14.193  10.475 -0.0751 -0.0098  0.0568
28933ION     NA49213  11.663   4.768  10.377  0.2145 -0.1165  0.1344
28934ION     NA49214  18.063   8.894  11.756  0.0022 -0.2539  0.3311
28935ION     NA49215   0.722  10.437  12.866 -0.2136  0.1503 -0.2190
28936ION     NA49216   4.346   4.061  11.075  0.1398 -0.1778 -0.2261
28937ION     NA49217  16.811  13.309  10.797 -0.1718  0.0699  0.0814
28938ION     NA49218  13.261   6.791   5.687  0.0586  0.2677 -0.3386
28939ION     NA49219  18.619   6.082  10.296  0.2819 -0.2311 -0.1158
28940ION     NA49220  13.171   3.101   0.722 -0.3306  0.1434  0.1946
28941ION     NA49221   7.463  10.141   4.268 -0.1178  0.1781 -0.2972
28942ION     NA49222  14.930  15.830  12.485  0.1392  0.1566  0.1722
28943ION     NA49223   4.250   6.758  10.474  0.2751  0.1217 -0.1764
28944ION     NA49224  14.211  15.673   5.130  0.3555 -0.1167  0.0856
28945ION     NA49225   9.013  10.845   1.535  0.2264  0.0667 -0.1716
28946ION     NA49226   1.932   3.844  14.256  0.0096 -0.0331  0.2446
28947ION     NA49227  15.272   6.136   5.405  0.0472  0.1399  0.0873
28948ION     NA49228   6.173  12.602   0.659 -0.0280  0.1996 -0.0940
28949ION     NA49229   3.912   7.292   2.594  0.1307 -0.0310 -0.0872
28950ION     NA49230   4.533   1.116  11.513  0.0655 -0.0414 -0.0591
28951ION     NA49231  14.618   9.177  10.849  0.3928  0.1538 -0.1556
28952ION     NA49232  18.043  17.677   1.261  0.2984  0.1157  0.3881
28953ION     NA49233   8.202   6.529  13.491 -0.0318 -0.0137  0.0315
28954ION     NA49234   9.441  18.477  14.233 -0.2892 -0.0572  0.1322
28955ION     NA49235  13.116   3.280   5.286  0.1474  0.1342 -0.3982
28956ION     NA49236  13.033  10.064   0.253  0.2402  0.1164  0.1175
28957ION     NA49237  15.953  11.627  10.454  0.2032 -0.0939 -0.0366
28958ION     NA49238   4.162   1.261   2.061  0.0533  0.1027  0.2930
28959ION     NA49239   3.006  10.950  14.232  0.0141 -0.0796  0.0762
28960ION     NA49240  14.138  11.286   0.483 -0.0034 -0.0827 -0.2391
28961ION     NA49241   6.841   8.804  10.447 -0.0146  0.0448  0.0201
28962ION     NA49242   0.441   0.066  12.303  0.1096 -0.0703  0.1171
28963ION     NA49243  15.755  16.307  13.720 -0.1809  0.0111  0.1271
28964ION     NA49244  15.661  14.656  10.587  0.0255  0.1733 -0.0427
28965ION     NA49245   2.929  14.601  10.163 -0.2459 -0.1163 -0.0789
28966ION     NA49246   0.867   3.792   5.257 -0.0600  0.0023  0.0484
28967ION     NA49247   8.748   3.484  12.476  0.1608 -0.0462  0.2768
28968ION     NA49248   0.841  16.018  10.515  0.1017  0.0836 -0.0034
28969ION     NA49249   9.082  11.790   1.306 -0.1227 -0.2426  0.1341
28970ION     NA49250  17.323   7.617  10.616 -0.0398  0.1285 -0.1751
28971ION     NA49251  14.248   0.405  10.341  0.0538  0.0472 -0.1211
28972ION     NA49252  10.799   6.549  10.760 -0.3315 -0.3169 -0.4659
28973ION     NA49253   2.783   2.907  10.275 -0.1446  0.0821 -0.3386
28974ION     NA49254   9.798  11.285  10.295  0.1949  0.2058  0.1310
28975ION     NA49255  12.080  18.068  10.023  0.0628 -0.1678 -0.1968
28976ION     NA49256  10.565  16.523   4.855 -0.0967  0.1214  0.0009
28977ION     NA49257  12.417   6.566   5.550 -0.1687 -0.1481  0.0956
28978ION     NA49258  16.578  15.469  10.230 -0.0524 -0.1243  0.0884
28979ION     NA49259   6.894  17.157   4.706  0.1213 -0.2532  0.1393
28980ION     NA49260  18.063   4.750   5.571 -0.0298 -0.0490  0.2280
28981ION     NA49261   7.869  18.152   9.953  0.0545 -0.3886 -0.1398
28982ION     NA49262  12.590   9.464  10.790 -0.0919 -0.1296 -0.1566
28983ION     NA49263  14.209  15.428  10.097 -0.2354 -0.0934 -0.0094
28984ION     NA49264   5.325  17.066  15.222  0.0595  0.3851  0.0220
28985ION     NA49265   9.215  17.582  10.437  0.0677  0.0507  0.3005
28986ION     NA49266   6.982   9.443   1.652 -0.2580  0.2513 -0.1222
28987ION     NA49267  15.698   6.961  11.722 -0.6602 -0.0384 -0.0250
28988ION     NA49268   7.844  11.733   2.727  0.0817  0.0527  0.1288
28989ION     NA49269  18.104   7.993  10.782  0.2490 -0.1301 -0.4173
28990ION     NA49270  16.434   9.139  10.797 -0.1276  0.0750  0.1816
28991ION     NA49271   0.946   8.491  10.504 -0.1400 -0.2885 -0.0132
28992ION     NA49272  15.581   5.670  10.711 -0.0098  0.0532 -0.3140
28993ION     NA49273  14.834   3.360  14.890 -0.1192 -0.3002 -0.0050
28994ION     NA49274  16.991  11.686  12.096  0.2734  0.0346 -0.1124
28995ION     NA49275   7.711   0.530   4.834  0.2540 -0.0470  0.0097
28996ION     NA49276   2.870  12.753  13.636  0.1340  0.1080 -0.0728
28997ION     NA49277   7.407   1.137  14.300  0.2461 -0.0231  0.0527
28998ION     NA49278  13.685   0.930   4.955  0.0625 -0.1731  0.1057
28999ION     NA49279  14.921   9.116   1.149 -0.2307  0.1987 -0.0539
29000ION     NA49280  15.970   5.633   5.344  0.3571 -0.3042 -0.2501
29001ION     NA49281   0.763  17.233  12.782 -0.1827  0.1226  0.1151
29002ION     NA49282  12.872   9.489  11.633 -0.0481  0.2271 -0.0086
29003ION     NA49283  18.608   0.970   5.171 -0.1772 -0.2286 -0.1234
29004ION     NA49284   6.803  18.346  10.562 -0.0827 -0.1760 -0.1120
29005ION     NA49285   1.766  16.164  13.631 -0.0813  0.0212  0.0339
29006ION     NA49286  12.329  13.145  10.365 -0.2040  0.0471  0.1931
29007ION     NA49287   4.477  10.567  13.832 -0.2734 -0.0710  0.0949
29008ION     NA49288  17.664  10.656   2.485 -0.3103  0.0272 -0.0503
29009ION     NA49289  17.841   8.599   2.730 -0.1275  0.0417  0.2291
29010ION     NA49290   7.094  14.914   4.955 -0.0481  0.0421 -0.1343
29011ION     NA49291  14.558   1.036   5.073  0.0369 -0.0118 -0.0546
29012ION     NA49292   8.227   7.917   4.672  0.1868  0.0741  0.0030
29013ION     NA49293  18.567   2.617   2.055 -0.2894 -0.3445  0.0141
29014ION     NA49294  13.657  13.614   5.324  0.2804  0.1217 -0.1227
29015ION     NA49295   8.374  13.061   5.029 -0.0087  0.0547  0.3199
29016ION     NA49296   4.128   1.180   1.003  0.1090 -0.1040 -0.0866
29017ION     NA49297   4.606   1.516   4.683 -0.1060 -0.0317 -0.1356
29018ION     NA49298   1.726  13.812  12.067  0.0921 -0.0901 -0.0560
29019ION     NA49299   5.083   9.202   1.308 -0.0959  0.0294 -0.0273
29020ION     NA49300   2.921  12.288  10.343 -0.1767  0.4064 -0.1354
29021ION     NA49301   2.563  16.628  10.495  0.5559  0.3057 -0.1586
29022ION     NA49302  16.074  13.933  13.325 -0.0494 -0.2820 -0.1556
29023ION     NA49303  11.070   0.089   4.714  0.2461 -0.0502 -0.0449
29024ION     NA49304  12.514  18.600  10.070  0.1661 -0.2516 -0.0076
29025ION     NA49305  16.678  12.954   5.424  0.1356  0.0997  0.0750
29026ION     NA49306  16.987   1.055   2.161  0.1238 -0.0308  0.0188
29027ION     NA49307   8.492  17.123   1.407 -0.3290 -0.0636  0.4853
29028ION     NA49308   8.513   4.953  11.328  0.0979 -0.3778 -0.1041
29029ION     NA49309   4.249  11.984   5.174 -0.1755  0.1403 -0.1843
29030ION     NA49310   7.381  14.556  13.783 -0.2318  0.1272 -0.0392
29031ION     NA49311   6.182  12.290   3.965 -0.1647 -0.1734  0.3040
29032ION     NA49312  10.521   7.971  10.792 -0.1625  0.1581 -0.1458
29033ION     NA49313   1.300   2.554  12.948  0.0954  0.2371 -0.1220
29034ION     NA49314   1.106   8.368  13.306  0.0200  0.0086  0.2941
29035ION     NA49315  11.921  10.608   5.234  0.2584  0.0590 -0.2891
29036ION     NA49316   4.209  13.243  14.234 -0.2221  0.3705 -0.0772
29037ION     NA49317  10.392   1.348   4.675 -0.0561 -0.2064  0.1622
29038ION     NA49318  14.953   6.966   3.388 -0.0898  0.2806  0.0023
29039ION     NA49319  17.225   5.830  14.690  0.0441  0.1887  0.3421
29040ION     NA49320  18.298  14.432  12.648  0.0944 -0.0684 -0.1011
29041ION     NA49321  13.818   0.604  12.880 -0.1266  0.2756 -0.0155
29042ION     NA49322   4.841   7.364   4.968 -0.0133  0.1348 -0.0064
29043ION     NA49323   6.178  13.684   3.783 -0.0708 -0.1600 -0.0655
29044ION     NA49324   7.628   2.261  11.623 -0.1498  0.0824  0.0461
29045ION     NA49325  13.638  14.160  10.198 -0.0056  0.0030 -0.0724
29046ION     NA49326   7.959   4.384   5.183 -0.6273 -0.0307  0.3053
29047ION     NA49327   3.653   2.132   4.952 -0.0958 -0.1288 -0.0761
29048ION     NA49328   8.759   5.471  10.611 -0.2713 -0.0759  0.1202
29049ION     NA49329   2.556   9.635  14.160  0.0957  0.0446 -0.1395
29050ION     NA49330   2.223   4.918   4.990  0.1403 -0.0758  0.3437
29051ION     NA49331   6.791  15.754  13.472 -0.2248  0.1729 -0.0702
29052ION     NA49332  18.079  10.386  13.621  0.0057 -0.0925 -0.1855
29053ION     NA49333  13.921  16.985  10.343  0.0076  0.3808 -0.2424
29054ION     NA49334   2.396  18.303   4.695  0.4177  0.0532 -0.4041
29055ION     NA49335   9.601  16.220   0.911  0.0544  0.0491  0.0229
29056ION     NA49336   5.829   6.159  12.062 -0.2154 -0.1984 -0.0082
29057ION     NA49337  12.577  12.251   3.811  0.0757 -0.1545  0.0027
29058ION     NA49338   4.360   3.140   0.317  0.0344 -0.0677  0.3530
29059ION     NA49339  14.010   0.349   4.709  0.0115  0.2445 -0.0034
29060ION     NA49340  15.136   3.036  10.376 -0.0498  0.0398  0.1075
29061ION     NA49341   6.629  13.824   5.036  0.2502  0.0369 -0.0748
29062ION     NA49342   3.327  17.267  10.070  0.5123  0.0975 -0.1584
29063ION     NA49343   7.333   4.379  13.464 -0.1564 -0.1498  0.1908
29064ION     NA49344  16.356  12.603   0.945  0.2341 -0.1229 -0.2582
29065ION     NA49345  18.258  13.065  12.921 -0.2332  0.2499 -0.1382
29066ION     NA49346  16.485  18.580  10.298 -0.0640 -0.0230  0.2814
29067ION     NA49347  18.577   9.142  10.470  0.2670 -0.0348  0.4111
29068ION     NA49348   8.943   6.608  14.712  0.1543 -0.1488  0.1169
29069ION     NA49349   5.724   5.690   2.994  0.0531 -0.1785 -0.1406
29070ION     NA49350   8.933  11.365   0.342  0.2311  0.2413 -0.3502
29071ION     NA49351  10.512  17.130  15.255 -0.3120  0.3274 -0.0415
29072ION     NA49352  14.602  18.120  10.166  0.1113  0.1261  0.1434
29073ION     NA49353  15.789   0.566  13.688  0.0588 -0.0817  0.1544
29074ION     NA49354  18.674  18.008   5.053  0.1083  0.0105  0.1662
29075ION     NA49355  16.039   8.257   3.082  0.1546  0.2134  0.0686
29076ION     NA49356  18.270  12.523  10.565 -0.0850 -0.2347  0.1401
29077ION     NA49357  17.005   8.377   3.238  0.1524 -0.3238 -0.0607
29078ION     NA49358   4.938  16.171  10.525  0.2433 -0.0166  0.3283
29079ION     NA49359   4.452   3.841   2.872  0.0003  0.1217 -0.1882
29080ION     NA49360   0.116  18.016   1.497 -0.3973 -0.1094 -0.0237
29081ION     NA49361   7.642  18.598  14.200 -0.0739  0.2052  0.1057
29082ION     NA49362  11.224  10.128  10.548 -0.2997  0.0929  0.2931
29083ION     NA49363   7.004   1.640  10.164  0.1964 -0.2581  0.2663
29084ION     NA49364  11.831  16.155  10.550 -0.2939 -0.1008  0.2464
29085ION     NA49365  14.420  12.421  10.635  0.2187  0.0465  0.3569
29086ION     NA49366  15.603  18.182  13.226 -0.1071  0.1439  0.0766
29087ION     NA49367  16.801  17.901   5.268  0.0838 -0.0587  0.0511
29088ION     NA49368  10.080  10.401   0.443 -0.0786  0.1165  0.1327
29089ION     NA49369  11.065  17.651   3.249 -0.0482  0.0140  0.0680
29090ION     NA49370   8.827   8.353   5.662  0.1016  0.1047  0.0239
29091ION     NA49371   7.789   1.963  12.730 -0.0207  0.3268  0.2745
29092ION     NA49372  14.101  18.250  13.435  0.0150  0.1692 -0.3242
29093ION     NA49373   3.879  11.065  10.050  0.0132  0.0054  0.0962
29094ION     NA49374   0.102  15.994  10.392 -0.1504  0.1731  0.1232
29095ION     NA49375   6.111   0.410   5.093 -0.0026  0.0254 -0.0282
29096ION     NA49376   0.745  18.382   5.025  0.1493 -0.0985  0.0393
29097ION     NA49377   5.378  15.395  10.085  0.1687 -0.4178  0.0980
29098ION     NA49378   3.936   0.730   2.875 -0.0896  0.0239  0.0808
29099ION     NA49379  10.984   3.942  14.101  0.0285 -0.0706  0.2135
29100ION     NA49380   0.233  11.977   4.953 -0.1604  0.1333 -0.2841
29101ION     NA49381   9.200  17.437   4.854  0.3944 -0.1520 -0.0737
29102ION     NA49382   9.215   7.972   2.289 -0.0192  0.1220 -0.1458
29103ION     NA49383  16.338   3.688   1.939  0.0929  0.1501  0.4125
29104ION     NA49384  15.231  18.715   5.071  0.1024  0.0644  0.1727
29105ION     NA49385  17.410  12.531  10.901 -0.1961 -0.1102  0.0365
29106ION     NA49386   2.675  12.374  11.465 -0.0385  0.1459 -0.3970
29107ION     NA49387   3.416  16.388  10.127 -0.1132  0.1361 -0.1962
29108ION     NA49388  14.039   6.887  10.792  0.0044  0.2622  0.0041
29109ION     NA49389  14.508   0.858   3.081  0.0282  0.0762  0.0764
29110ION     NA49390   9.071   3.573  14.725  0.1329 -0.0747 -0.2560
29111ION     NA49391   2.228  13.376  14.683 -0.0030 -0.0381  0.0990
29112ION     NA49392   1.359   6.183  10.239  0.0104 -0.1845  0.2187
29113ION     NA49393   9.010   6.892   4.215  0.1182 -0.0438  0.0706
29114ION     NA49394   0.851  12.799  11.135  0.0583 -0.0871  0.2610
29115ION     NA49395  16.759  12.077  10.547 -0.1086 -0.0889 -0.1525
29116ION     NA49396   2.347   5.182  11.917  0.1887 -0.1736  0.1989
29117ION     NA49397   5.761   5.531   4.657 -0.2268  0.1809 -0.0419
29118ION     NA49398  17.643  17.687  10.636 -0.0555  0.2470 -0.1670
29119ION     NA49399  12.089  11.794   1.216  0.1321  0.0600 -0.0111
29120ION     NA49400  16.364  11.714  12.866 -0.2472 -0.3675  0.0692
29121ION     NA49401   0.510   5.830  10.316  0.1737  0.1586  0.0028
29122ION     NA49402   9.234  17.791  11.660 -0.0006 -0.0728  0.1507
29123ION     NA49403  15.183  13.893   5.601  0.0575 -0.0098 -0.1160
29124ION     NA49404   6.480  10.934   1.390  0.0381  0.0765  0.2993
29125ION     NA49405  18.523   6.466  13.369 -0.3067  0.1217  0.0499
29126ION     NA49406  17.528   6.552  13.116  0.4024  0.1489  0.0055
29127ION     NA49407  10.949  12.496   0.337 -0.1537  0.1887 -0.0229
29128ION     NA49408   3.665   9.143  11.422  0.5182 -0.2131 -0.2757
29129ION     NA49409   9.184   5.729   5.121 -0.0784  0.3063  0.2656
29130ION     NA49410   7.838  12.578  10.453  0.1472  0.0060 -0.2015
29131ION     NA49411   6.920   3.918   4.503 -0.2086  0.1750  0.0792
29132ION     NA49412   6.335   5.482  11.821  0.0936 -0.1202 -0.1459
29133ION     NA49413  12.512   7.862  10.883 -0.1644  0.3406  0.1688
29134ION     NA49414   7.051   6.706  12.614  0.1773 -0.0845  0.0446
29135ION     NA49415   4.202  14.222  14.682  0.0063 -0.0211  0.3017
29136ION     NA49416   9.154   5.913   0.126 -0.3229  0.0439 -0.0289
29137ION     NA49417  11.335   7.734   1.315  0.1391  0.0149 -0.3275
29138ION     NA49418   2.960  11.439  10.187  0.2115  0.3243 -0.0535
29139ION     NA49419   9.783   7.758  15.033  0.2944  0.0287 -0.1854
29140ION     NA49420  17.850   2.297  12.686  0.1447  0.3323  0.0326
29141ION     NA49421   1.109   0.529  12.072  0.1307  0.1040  0.1100
29142ION     NA49422   9.978   5.810  10.509 -0.1612 -0.1198 -0.0238
29143ION     NA49423   8.363  11.068   2.272  0.0697 -0.2023  0.0409
29144ION     NA49424   7.286  15.700   4.560 -0.1551 -0.0132 -0.2212
29145ION     NA49425  14.217   3.684   3.492 -0.1113  0.0173  0.1196
29146ION     NA49426  12.981   8.656  12.979 -0.0367 -0.1749 -0.0975
29147ION     NA49427   6.628  14.081   1.272  0.4308 -0.2900 -0.1575
29148ION     NA49428  15.508  17.982  10.252  0.0357  0.0745 -0.1940
29149ION     NA49429   4.840  12.791  10.286 -0.0644 -0.1068  0.5640
29150ION     NA49430   0.071  12.578  11.852  0.3041  0.1661 -0.0585
29151ION     NA49431   6.087   4.277   3.108 -0.2834  0.2438 -0.0392
29152ION     NA49432   2.853   2.893   2.615  0.0503 -0.0605 -0.0323
29153ION     NA49433  12.474   3.822   5.026 -0.1962 -0.1490  0.0454
29154ION     NA49434  10.496   8.905  10.918 -0.0049  0.0465 -0.0257
29155ION     NA49435  11.181  11.155  10.158  0.0217  0.0873  0.2129
29156ION     NA49436   6.833  14.465   5.136 -0.1164 -0.3941 -0.2657
29157ION     NA49437   8.337  14.608   4.651  0.0979 -0.1442 -0.0332
29158ION     NA49438  13.755  14.097   4.182  0.0059  0.0079 -0.0620
29159ION     NA49439   6.356   7.866   2.671 -0.0710 -0.0916 -0.1693
29160ION     NA49440  17.852   7.528   1.188  0.1832  0.0582 -0.2673
29161ION     NA49441   5.010  11.222   5.267  0.0199 -0.1373  0.1921
29162ION     NA49442  15.994   9.841  10.735  0.2500 -0.0023 -0.0408
29163ION     NA49443  16.824   5.077   3.752  0.1775 -0.3498  0.3059
29164ION     NA49444   4.291  15.999   4.990 -0.2693 -0.0203 -0.1900
29165ION     NA49445  14.503  16.316  10.156 -0.1339  0.1539 -0.2868
29166ION     NA49446  17.051  13.676  12.539 -0.1064 -0.1436  0.3690
29167ION     NA49447  10.365   8.767   1.530 -0.4652  0.0266  0.0899
29168ION     NA49448  16.901  15.212   5.396  0.0100 -0.0165 -0.0844
29169ION     NA49449   8.610  16.465  10.210 -0.1058  0.2254  0.3862
29170ION     NA49450   4.776  18.271  14.844  0.3657 -0.2920 -0.0011
29171ION     NA49451   2.484  14.504   5.009 -0.2593 -0.0845  0.3251
29172ION     NA49452  14.657   4.750   5.304 -0.0146 -0.0871 -0.2723
29173ION     NA49453  12.089   8.263  12.861  0.1659 -0.0524  0.3405
29174ION     NA49454   1.518  10.277   1.353  0.5048 -0.1512  0.2251
29175ION     NA49455  16.980   9.881  11.672 -0.1798  0.0995 -0.0726
29176ION     NA49456   5.404   6.367  15.177  0.0728 -0.2599  0.0642
29177ION     NA49457  11.076  14.859  10.113 -0.2272  0.1331 -0.4100
29178ION     NA49458  17.170   3.946  10.318  0.0965  0.0453  0.0647
29179ION     NA49459   9.244   2.712  10.215 -0.0075 -0.0050  0.3952
29180ION     NA49460  13.586  16.886   5.157 -0.0059 -0.1389 -0.0974
29181ION     NA49461   4.861  11.133  10.076 -0.1485 -0.0729 -0.3368
29182ION     NA49462   1.765   2.607  12.681 -0.2515  0.0828  0.0943
29183ION     NA49463  14.218  18.713   0.694 -0.0013  0.3254  0.2567
29184ION     NA49464  13.529  12.976   0.700  0.1309  0.0290  0.2577
29185ION     NA49465   8.032   0.090   0.883 -0.0903  0.2252  0.2029
29186ION     NA49466   2.869  18.520  10.066 -0.2760 -0.0189  0.1941
29187ION     NA49467   4.557   2.116  15.366 -0.1781 -0.3355  0.1744
29188ION     NA49468   4.891   5.108   3.672  0.0761  0.0442  0.0128
29189ION     NA49469  13.053  17.009   5.341  0.1840 -0.0525 -0.0691
29190ION     NA49470  18.554  10.002  10.446  0.0559  0.1870 -0.0459
29191ION     NA49471   2.051  14.915   3.114 -0.1475 -0.1992 -0.1711
29192ION     NA49472   6.480   6.539   4.982  0.0755  0.2215 -0.3382
29193ION     NA49473  15.543  14.942  11.817 -0.1686 -0.2019 -0.0576
29194ION     NA49474  13.056  17.833   2.592 -0.0232 -0.1035  0.1575
29195ION     NA49475   5.360   6.157  10.261 -0.2107  0.1223 -0.2532
29196ION     NA49476   6.795   1.859   1.750  0.0282  0.3304  0.0652
29197ION     NA49477  16.414  11.833   0.419 -0.1816  0.3419 -0.1496
29198ION     NA49478   0.206  17.062   1.997  0.1304  0.1462  0.2101
29199ION     NA49479   3.547  10.183  10.206 -0.0526  0.0127 -0.2347
29200ION     NA49480  14.491   8.050  12.262 -0.0964 -0.0368 -0.2274
29201ION     NA49481  16.195   0.424  14.264  0.1571  0.0365  0.0760
29202ION     NA49482   5.099   8.331  10.779  0.2790 -0.0333 -0.0966
29203ION     NA49483  10.458   6.504  13.826 -0.0224 -0.4193  0.2647
29204ION     NA49484  16.507  17.009   5.075 -0.0386  0.0979 -0.1123
29205ION     NA49485  18.680   7.368  10.454 -0.0670 -0.2588  0.4790
29206ION     NA49486   2.698   8.573  10.113 -0.1118  0.0938 -0.1646
29207ION     NA49487   9.253   6.108  13.910  0.3328 -0.2097 -0.2399
29208ION     NA49488  12.024   5.355   5.143  0.0624 -0.0076  0.1964
29209ION     NA49489   2.032   5.513  13.765 -0.1092 -0.1710 -0.5603
29210ION     NA49490   6.564   6.238  10.318  0.4068  0.0424 -0.0815
29211ION     NA49491  18.398  17.732   4.765  0.0665  0.0565  0.2759
29212ION     NA49492  13.067  15.616   4.035 -0.2710 -0.2009  0.0752
29213ION     NA49493  12.779   8.254   5.630 -0.0171  0.3745 -0.2706
29214ION     NA49494  15.674  13.097   5.420 -0.2339  0.4746 -0.0394
29215ION     NA49495  15.065   4.737  10.576 -0.2426  0.0662  0.1210
29216ION     NA49496   9.625   2.344  13.878  0.2018 -0.3579 -0.1769
29217ION     NA49497  10.169  10.508   5.270  0.2828  0.2568  0.0519
29218ION     NA49498   9.705   7.239   4.712  0.2490 -0.0142  0.1961
29219ION     NA49499   4.655   0.087   4.736 -0.0715 -0.0231  0.2948
29220ION     NA49500  14.671  17.994  11.625 -0.1984  0.1748 -0.1542
29221ION     NA49501   9.682  12.723  10.204 -0.0820  0.2519  0.0486
29222ION     NA49502  10.515   3.895   4.834 -0.3672  0.2464 -0.1461
29223ION     NA49503   8.272  15.036   0.518 -0.1309  0.0249 -0.4918
29224ION     NA49504   8.211   6.804   4.851 -0.0494  0.0224 -0.0575
29225ION     NA49505   6.004   9.648   5.366 -0.0053  0.0363 -0.2966
29226ION     NA49506   5.064   4.645   4.465 -0.0221  0.0284  0.1586
29227ION     NA49507  16.930  16.807  10.486 -0.3398  0.0530 -0.0479
29228ION     NA49508   0.376  14.191  10.443  0.2329 -0.1546  0.4286
29229ION     NA49509   2.787  13.197  10.304 -0.3031 -0.1519  0.0281
29230ION     NA49510  10.340  17.751  13.758  0.0510  0.0280  0.2272
29231ION     NA49511  16.708  11.324   5.118  0.2975 -0.1405  0.1087
29232ION     NA49512   7.976  12.247   4.903 -0.2146 -0.2937 -0.0219
29233ION     NA49513   2.121   3.908   1.485 -0.0337  0.1203 -0.0751
29234ION     NA49514   2.242   6.718  10.178  0.1391 -0.0229  0.0591
29235ION     NA49515   7.838  11.294  15.007  0.0256 -0.2853 -0.2136
29236ION     NA49516   1.049  13.473  10.750  0.1928 -0.0149 -0.0400
29237ION     NA49517  12.960   2.430  10.438  0.1656  0.1927  0.0176
29238ION     NA49518   1.122   0.757   0.219 -0.1219  0.2433 -0.3350
29239ION     NA49519  10.662   8.356   3.674  0.1095 -0.1626 -0.1858
29240ION     NA49520   0.286   9.376  11.540  0.2178  0.1251  0.1584
29241ION     NA49521  18.662   2.247   5.114 -0.0118  0.1393 -0.3386
29242ION     NA49522   6.912   3.075   4.779 -0.0225 -0.2598  0.1231
29243ION     NA49523  16.058  17.228  10.313 -0.0828 -0.2306 -0.0481
29244ION     NA49524  18.173  11.198   5.171 -0.3939  0.0878 -0.0452
29245ION     NA49525   8.952   1.846   1.201 -0.1764 -0.1662  0.0361
29246ION     NA49526  15.241  15.760   5.147  0.3209  0.3324  0.0694
29247ION     NA49527   9.484   7.442  11.698  0.1771 -0.0804  0.1108
29248ION     NA49528   5.902  14.348   5.107 -0.2044  0.4300  0.1250
29249ION     NA49529  16.952  15.850   3.632 -0.0752  0.1219 -0.0803
29250ION     NA49530  14.871   5.228   4.420 -0.2134 -0.0509 -0.3342
29251ION     NA49531  13.848   2.211  13.059 -0.2815  0.0455  0.1356
29252ION     NA49532   3.250   7.692   5.058 -0.3771 -0.0965  0.2136
29253ION     NA49533  14.657  14.666  15.215  0.0413  0.0078  0.0605
29254ION     NA49534   9.952  15.159   4.882 -0.1310 -0.2201 -0.1558
29255ION     NA49535   8.761   5.041   3.197 -0.0487 -0.0950 -0.0444
29256ION     NA49536  15.428  16.575  10.357 -0.0905  0.2468 -0.0350
29257ION     NA49537  12.733  17.687  14.282  0.1286  0.2346 -0.0158
29258ION     NA49538  11.423   8.700   2.084 -0.0213 -0.1497 -0.0265
29259ION     NA49539   8.920  13.086   2.483  0.3631 -0.0709  0.1352
29260ION     NA49540  13.123  16.425  10.422 -0.3741  0.0582 -0.0486
29261ION     NA49541  14.283  11.752  13.244 -0.2910 -0.1969 -0.0211
29262ION     NA49542   8.280   0.681  12.635  0.3022 -0.0431  0.0366
29263ION     NA49543   6.533   1.993   9.965  0.0703 -0.2119  0.2671
29264ION     NA49544   1.443  10.113  13.841  0.1312  0.1664 -0.2076
29265ION     NA49545   5.417   1.294   9.756 -0.1753 -0.0591 -0.0757
29266ION     NA49546   6.790   9.209   0.479 -0.0004  0.1432 -0.2277
29267ION     NA49547  18.170   1.742  10.504  0.1452  0.2045  0.0586
29268ION     NA49548   9.170  10.680  12.186  0.0530  0.0205 -0.6518
29269ION     NA49549   8.317  14.466   9.975  0.0901  0.1305 -0.2772
29270ION     NA49550   3.586   2.584  10.226  0.0385  0.0328 -0.0766
29271ION     NA49551  15.693   9.281   2.904  0.0787 -0.1389  0.4810
29272ION     NA49552  11.961  15.299   0.689  0.0926  0.0973 -0.2590
29273ION     NA49553   2.252   1.185  10.357  0.0244 -0.0034  0.0996
29274ION     NA49554  10.307   7.900   5.810  0.1706  0.2052  0.3611
29275ION     NA49555   7.155   5.943  10.739  0.3766  0.0340 -0.1820
29276ION     NA49556  14.831  17.187  10.203  0.0739 -0.0761 -0.1332
29277ION     NA49557   5.284   9.844   5.443 -0.0493  0.2999 -0.0793
29278ION     NA49558   4.182   4.919   4.620  0.0473 -0.4070 -0.1064
29279ION     NA49559   5.655   4.897  10.342  0.1120  0.4658  0.0617
29280ION     NA49560   7.388   5.308  12.992 -0.2925 -0.1108 -0.0348
29281ION     NA49561   1.320   3.419   0.262 -0.4097  0.0388 -0.0530
29282ION     NA49562   3.373   9.207   0.098 -0.2355 -0.1825  0.0343
29283ION     NA49563   2.179  11.625   0.343  0.3134 -0.0862  0.0799
29284ION     NA49564   2.254   6.528  14.711  0.4044 -0.1534 -0.1383
29285ION     NA49565   7.338   6.222   5.038  0.0380  0.0390 -0.1247
29286ION     NA49566   6.890  13.778  13.524  0.0966  0.0442  0.3028
29287ION     NA49567  16.539   8.745   2.362  0.0003 -0.1623 -0.0837
29288ION     NA49568   9.313  15.919   3.432 -0.0267 -0.0969 -0.0276
29289ION     NA49569   3.181   4.386   2.061  0.1407  0.2386  0.5467
29290ION     NA49570   5.347  14.840   2.353  0.0277  0.0028  0.1676
29291ION     NA49571   2.926  15.243   4.947 -0.0363  0.1607 -0.0083
29292ION     NA49572  11.691   8.890  13.179 -0.4197  0.1539 -0.3847
29293ION     NA49573   1.291  12.111  10.417  0.1151  0.1747  0.0726
29294ION     NA49574   1.085  10.338   4.827 -0.3821  0.1697  0.0105
29295ION     NA49575  12.453  15.178   5.326 -0.0048  0.2281 -0.0143
29296ION     NA49576   8.274  16.446   1.631  0.0553 -0.2375  0.0546
29297ION     NA49577  11.119   1.534   9.983 -0.2010 -0.3387 -0.0752
29298ION     NA49578  13.896   5.004   5.182  0.0790 -0.0821 -0.0758
29299ION     NA49579   0.009  11.778  10.635 -0.1202  0.0934  0.1109
29300ION     NA49580   0.282   9.642   4.969 -0.0539  0.1205  0.0694
29301ION     NA49581  17.305  15.490   4.647 -0.2166  0.3163 -0.1514
29302ION     NA49582  18.400   4.159   2.923  0.1212 -0.3707  0.0405
29303ION     NA49583   7.868  14.436  14.984  0.0030  0.0449 -0.3061
29304ION     NA49584   8.584   4.982   5.097 -0.1142 -0.2645  0.0801
29305ION     NA49585  13.578   6.022  10.873  0.0229  0.2728  0.0143
29306ION     NA49586   2.574   9.424  10.288 -0.0043  0.0582 -0.0750
29307ION     NA49587   2.042   2.327  10.256 -0.0027  0.3514  0.3467
29308ION     NA49588   3.792  15.620   4.958 -0.1400 -0.1211 -0.2875
29309ION     NA49589  12.155   3.897  15.321  0.0114 -0.2391 -0.0722
29310ION     NA49590  15.830   2.451   5.224 -0.0755  0.2148  0.1602
29311ION     NA49591  15.866  10.884  15.016  0.1726  0.0165 -0.3593
29312ION     NA49592  17.663   4.562  13.693 -0.0769 -0.0771  0.0893
29313ION     NA49593   4.847   0.923   1.871  0.0504 -0.0470  0.0141
29314ION     NA49594   5.546   3.105   4.774 -0.1726 -0.1667  0.0293
29315ION     NA49595  12.898  15.120  11.268  0.2252  0.2604  0.0532
29316ION     NA49596   8.776   3.579   2.018  0.1579  0.2618  0.1667
29317ION     NA49597   4.385  13.433  10.010  0.0091  0.2203 -0.1479
29318ION     NA49598   3.405  16.722   3.003  0.3062 -0.0898  0.1118
29319ION     NA49599  17.530   7.637  14.089  0.2050 -0.1794 -0.3315
29320ION     NA49600  12.145   7.132  10.517  0.0914 -0.2797  0.3483
29321ION     NA49601  18.038   6.528   2.843  0.2202 -0.2013 -0.0512
29322ION     NA49602  18.108  18.430  10.218  0.1350 -0.0598 -0.0514
29323ION     NA49603  11.199  11.064   5.203 -0.2413  0.0555 -0.2273
29324ION     NA49604   4.867   5.909   4.502 -0.4467  0.1073  0.2464
29325ION     NA49605  15.256   5.083   1.434  0.2117  0.1314  0.1483
29326ION     NA49606  14.828  12.579   5.277 -0.1414 -0.1332 -0.0752
29327ION     NA49607   3.332  16.610   4.930 -0.1329  0.1997  0.1430
29328ION     NA49608  18.626   1.988  14.069 -0.0836  0.0572 -0.5050
29329ION     NA49609  14.666   5.264   2.902 -0.2997  0.2490  0.1922
29330ION     NA49610   2.931   8.696  12.562 -0.3452  0.0012 -0.0110
29331ION     NA49611   4.691   8.943   5.072 -0.0383 -0.1223  0.2845
29332ION     NA49612   9.470  12.137  14.691  0.2846  0.0350 -0.0972
29333ION     NA49613   6.116  11.502  10.197  0.1233 -0.1586  0.1698
29334ION     NA49614  16.227  10.496   1.686 -0.2151 -0.0570 -0.1987
29335ION     NA49615   1.175   3.631   2.120  0.1610 -0.2142 -0.1455
29336ION     NA49616   4.521   9.269  12.226 -0.0356 -0.0173 -0.0739
29337ION     NA49617   6.927  17.375   3.444  0.3451  0.2329  0.2344
29338ION     NA49618  11.705   9.617   0.210 -0.1830 -0.2658 -0.0681
29339ION     NA49619   5.772   0.410   2.095 -0.0054 -0.1348 -0.0755
29340ION     NA49620   1.691   4.324  10.120  0.0378 -0.2143  0.1857
29341ION     NA49621  14.013   6.164  12.435  0.1530 -0.1176  0.3568
29342ION     NA49622   7.454   1.214   0.563 -0.0679 -0.0451  0.0526
29343ION     NA49623  13.978  14.550  10.260 -0.0985 -0.0978  0.1916
29344ION     NA49624   5.761   8.543   0.771 -0.1414 -0.0593  0.2838
29345ION     NA49625   6.216   3.944   4.959  0.1978  0.2976 -0.1825
29346ION     NA49626  17.389   8.622   5.422  0.2283  0.0020 -0.2701
29347ION     NA49627   2.293  17.559   5.130  0.1584  0.0652 -0.4005
29348ION     NA49628   1.729   8.068   1.266  0.4942  0.0718  0.2120
29349ION     NA49629   5.201   7.234   4.113 -0.0621  0.1111 -0.0562
29350ION     NA49630  17.746   3.831   4.005  0.4264 -0.2026 -0.3637
29351ION     NA49631  11.731   9.852   5.459  0.1379 -0.0282  0.0729
29352ION     NA49632   3.647   8.887  10.034  0.2939 -0.2016 -0.0072
29353ION     NA49633   9.780  18.073  12.704  0.0406  0.1419 -0.1687
29354ION     NA49634   7.868   0.103   2.364  0.0145  0.0282 -0.4448
29355ION     NA49635   5.700   7.770  10.385 -0.0148  0.3811 -0.1107
29356ION     NA49636   9.054   5.997  11.278  0.3407 -0.0836  0.1070
29357ION     NA49637   3.168   1.032  10.229  0.2618  0.0740  0.1628
29358ION     NA49638   2.334  17.295  11.444  0.2460  0.0445 -0.0826
29359ION     NA49639  16.230  14.109  14.451  0.1494 -0.1115 -0.1313
29360ION     NA49640   7.622   2.692   5.244  0.1768 -0.2566 -0.0687
29361ION     NA49641   8.202  16.801  11.243 -0.1566 -0.2368 -0.0310
29362ION     NA49642  16.025   4.099  10.609  0.1526 -0.0776  0.0590
29363ION     NA49643   8.170  11.317   5.114  0.0703  0.0328 -0.0387
29364ION     NA49644  12.303  16.061  10.336  0.2131 -0.0810 -0.4189
29365ION     NA49645   9.984  17.064  10.398 -0.0942 -0.3261  0.1292
29366ION     NA49646   7.984  16.465   0.178  0.1552 -0.2297  0.1984
29367ION     NA49647  16.940   8.559   1.526 -0.2221 -0.2012  0.0176
29368ION     NA49648  13.206   4.217   3.125 -0.0768 -0.1935 -0.3227
29369ION     NA49649  17.675  16.568   0.445  0.0048  0.0825  0.0002
29370ION     NA49650   4.946   5.894  12.112 -0.1740 -0.0879  0.5427
29371ION     NA49651   4.930  14.937   1.216 -0.3349  0.1615 -0.2678
29372ION     NA49652   8.146  14.811  15.118  0.2873  0.3866 -0.2270
29373ION     NA49653   5.061  14.714   4.968  0.1399  0.2288  0.2581
29374ION     NA49654   3.770   3.979  10.413 -0.0695 -0.0542 -0.1458
29375ION     NA49655  11.160  15.733  10.208 -0.0683  0.2889  0.1310
29376ION     NA49656  11.670  18.225   4.146 -0.1075  0.2201 -0.1058
29377ION     NA49657  10.809   3.514  10.345 -0.3782 -0.2784  0.1356
29378ION     NA49658  11.387   3.951   3.172  0.0283 -0.0120  0.1601
29379ION     NA49659   3.702   6.663  10.268  0.1216 -0.2270  0.1642
29380ION     NA49660  11.556  12.640  10.177 -0.2493  0.0375  0.3120
29381ION     NA49661  17.571  17.525   5.239  0.3227 -0.1621  0.0099
29382ION     NA49662   6.909   9.947   5.000  0.0023 -0.0125  0.1236
29383ION     NA49663   8.544   7.310   5.434  0.4254  0.2285 -0.1378
29384ION     NA49664  18.405   0.744  14.733  0.0094 -0.0453 -0.0105
29385ION     NA49665   1.748  16.661   5.137 -0.0897  0.2477 -0.0719
29386ION     NA49666   8.659   2.130   0.213 -0.0383 -0.0229  0.3620
29387ION     NA49667   0.978   4.233  14.594 -0.0595  0.1830  0.0307
29388ION     NA49668  11.872   2.276  11.381  0.1887 -0.2379 -0.2353
29389ION     NA49669  10.286  15.741  14.574  0.2528  0.2291 -0.2960
29390ION     NA49670  14.232  10.859   4.261  0.0642 -0.0830  0.1636
29391ION     NA49671  14.156   4.483  10.753  0.3311 -0.2222  0.1206
29392ION     NA49672  17.103   6.248  10.547  0.0745  0.2364  0.2168
29393ION     NA49673  17.836  13.316  10.419 -0.0627 -0.0016  0.2869
29394ION     NA49674  12.352  18.637   4.932  0.2425  0.2680 -0.1535
29395ION     NA49675   0.745  16.649   4.937  0.2261 -0.1415 -0.2484
  18.74516  18.74516  15.39513
